<event>
 7    0  0.4770865E-002  0.4520905E+03  0.7546771E-02  0.1027100E+00
         21   -1    0    0  502  501  0.00000000000E+00  0.00000000000E+00  0.11127350036E+03  0.11127350036E+03  0.00000000000E+00 0.  1.
         21   -1    0    0  501  502 -0.00000000000E+00 -0.00000000000E+00 -0.45919704480E+03  0.45919704480E+03  0.00000000000E+00 0.  1.
      99926    2    1    2    0    0  0.00000000000E+00  0.00000000000E+00 -0.34792354445E+03  0.57047054516E+03  0.45209053309E+03 0.  0.
      99925    2    3    3    0    0  0.70310610671E+02  0.47598224315E+02 -0.30843357388E+03  0.41421390112E+03  0.26312110035E+03 0.  0.
         25    1    4    4    0    0  0.26302602948E+02  0.12582980807E+02 -0.92032918358E+02  0.15801178592E+03  0.12509000000E+03 0.  0.
         25    1    4    4    0    0  0.44008007723E+02  0.35015243508E+02 -0.21640065553E+03  0.25620211520E+03  0.12509000000E+03 0.  0.
         25    1    3    3    0    0 -0.70310610671E+02 -0.47598224315E+02 -0.39489970564E+02  0.15625664404E+03  0.12509000000E+03 0.  0.
<mgrwt>
<rscale>  2 0.45209053E+03</rscale>
<asrwt>0</asrwt>
<pdfrwt beam="1">  1       21 0.16363750E-01 0.45209053E+03</pdfrwt>
<pdfrwt beam="2">  1       21 0.67528978E-01 0.45209053E+03</pdfrwt>
<totfact> 0.61946683E+04</totfact>
</mgrwt>
</event>
<event>
 7    0  0.4770865E-002  0.4203403E+03  0.7546771E-02  0.1036956E+00
         21   -1    0    0  502  501  0.00000000000E+00  0.00000000000E+00  0.29976304185E+04  0.29976304185E+04  0.00000000000E+00 0.  1.
         21   -1    0    0  501  502 -0.00000000000E+00 -0.00000000000E+00 -0.14735468659E+02  0.14735468659E+02  0.00000000000E+00 0.  1.
      99926    2    1    2    0    0  0.00000000000E+00 -0.17763568394E-14  0.29828949499E+04  0.30123658872E+04  0.42034028635E+03 0.  0.
      99925    2    3    3    0    0 -0.74522461585E+02 -0.14419068616E+02  0.18926114039E+04  0.19123080589E+04  0.26302600483E+03 0.  0.
         25    1    4    4    0    0 -0.70299685724E+02 -0.22108533037E+02  0.11588032995E+04  0.11678627608E+04  0.12509000000E+03 0.  0.
         25    1    3    3    0    0  0.74522461585E+02  0.14419068616E+02  0.10902835460E+04  0.11000578283E+04  0.12509000000E+03 0.  0.
         25    1    4    4    0    0 -0.42227758618E+01  0.76894644209E+01  0.73380810434E+03  0.74444529805E+03  0.12509000000E+03 0.  0.
<mgrwt>
<rscale>  2 0.42034029E+03</rscale>
<asrwt>0</asrwt>
<pdfrwt beam="1">  1       21 0.44082758E+00 0.42034029E+03</pdfrwt>
<pdfrwt beam="2">  1       21 0.21669828E-02 0.42034029E+03</pdfrwt>
<totfact> 0.42030434E+03</totfact>
</mgrwt>
</event>
<event>
 7    0  0.4770865E-002  0.4624328E+03  0.7546771E-02  0.1024078E+00
         21   -1    0    0  502  501  0.00000000000E+00  0.00000000000E+00  0.14758469764E+03  0.14758469764E+03  0.00000000000E+00 0. -1.
         21   -1    0    0  501  502 -0.00000000000E+00 -0.00000000000E+00 -0.36223967296E+03  0.36223967296E+03  0.00000000000E+00 0. -1.
      99926    2    1    2    0    0  0.00000000000E+00 -0.71054273576E-14 -0.21465497532E+03  0.50982437060E+03  0.46243283883E+03 0.  0.
      99925    2    3    3    0    0  0.62966690697E+02 -0.44784028917E+02 -0.32966861510E+02  0.27609698200E+03  0.26300630435E+03 0.  0.
         25    1    4    4    0    0  0.39363670336E+02 -0.25437811037E+02 -0.56790522912E+02  0.14515251415E+03  0.12509000000E+03 0.  0.
         25    1    3    3    0    0 -0.62966690697E+02  0.44784028917E+02 -0.18168811381E+03  0.23372738860E+03  0.12509000000E+03 0.  0.
         25    1    4    4    0    0  0.23603020361E+02 -0.19346217880E+02  0.23823661401E+02  0.13094446784E+03  0.12509000000E+03 0.  0.
<mgrwt>
<rscale>  2 0.46243284E+03</rscale>
<asrwt>0</asrwt>
<pdfrwt beam="1">  1       21 0.21703633E-01 0.46243284E+03</pdfrwt>
<pdfrwt beam="2">  1       21 0.53270539E-01 0.46243284E+03</pdfrwt>
<totfact> 0.60912175E+04</totfact>
</mgrwt>
</event>
<event>
 7    0  0.4770865E-002  0.4541729E+03  0.7546771E-02  0.1026485E+00
         21   -1    0    0  502  501  0.00000000000E+00  0.00000000000E+00  0.88985011064E+02  0.88985011064E+02  0.00000000000E+00 0.  1.
         21   -1    0    0  501  502 -0.00000000000E+00 -0.00000000000E+00 -0.57951628737E+03  0.57951628737E+03  0.00000000000E+00 0.  1.
      99926    2    1    2    0    0  0.00000000000E+00 -0.17763568394E-14 -0.49053127631E+03  0.66850129844E+03  0.45417293290E+03 0.  0.
      99925    2    3    3    0    0 -0.15352581287E+02  0.88864019572E+01 -0.14557088132E+03  0.30113247545E+03  0.26301181797E+03 0.  0.
         25    1    3    3    0    0  0.15352581287E+02 -0.88864019572E+01 -0.34496039499E+03  0.36736882299E+03  0.12509000000E+03 0.  0.
         25    1    4    4    0    0 -0.11885766723E+02 -0.13892518867E+02 -0.11364856311E+03  0.16999346319E+03  0.12509000000E+03 0.  0.
         25    1    4    4    0    0 -0.34668145630E+01  0.22778920825E+02 -0.31922318215E+02  0.13113901226E+03  0.12509000000E+03 0.  0.
<mgrwt>
<rscale>  2 0.45417293E+03</rscale>
<asrwt>0</asrwt>
<pdfrwt beam="1">  1       21 0.13086031E-01 0.45417293E+03</pdfrwt>
<pdfrwt beam="2">  1       21 0.85222984E-01 0.45417293E+03</pdfrwt>
<totfact> 0.55004468E+04</totfact>
</mgrwt>
</event>
<event>
 7    0  0.4770865E-002  0.4517685E+03  0.7546771E-02  0.1027196E+00
         21   -1    0    0  502  501  0.00000000000E+00  0.00000000000E+00  0.15106009125E+03  0.15106009125E+03  0.00000000000E+00 0. -1.
         21   -1    0    0  501  502 -0.00000000000E+00 -0.00000000000E+00 -0.33777088955E+03  0.33777088955E+03  0.00000000000E+00 0. -1.
      99926    2    1    2    0    0 -0.14210854715E-13  0.35527136788E-14 -0.18671079830E+03  0.48883098080E+03  0.45176853098E+03 0.  0.
      99925    2    3    3    0    0  0.94964493394E+02 -0.19235255083E+02 -0.61300831824E+02  0.28693145669E+03  0.26302779095E+03 0.  0.
         25    1    4    4    0    0  0.71721370301E+02  0.19690267683E+02 -0.47876360476E+02  0.15320351038E+03  0.12509000000E+03 0.  0.
         25    1    4    4    0    0  0.23243123092E+02 -0.38925522766E+02 -0.13424471349E+02  0.13372794631E+03  0.12509000000E+03 0.  0.
         25    1    3    3    0    0 -0.94964493394E+02  0.19235255083E+02 -0.12540996647E+03  0.20189952411E+03  0.12509000000E+03 0.  0.
<mgrwt>
<rscale>  2 0.45176853E+03</rscale>
<asrwt>0</asrwt>
<pdfrwt beam="1">  1       21 0.22214720E-01 0.45176853E+03</pdfrwt>
<pdfrwt beam="2">  1       21 0.49672189E-01 0.45176853E+03</pdfrwt>
<totfact> 0.67784981E+04</totfact>
</mgrwt>
</event>
<event>
 7    0  0.4770865E-002  0.4491931E+03  0.7546771E-02  0.1027963E+00
         21   -1    0    0  502  501  0.00000000000E+00  0.00000000000E+00  0.11813947408E+04  0.11813947408E+04  0.00000000000E+00 0. -1.
         21   -1    0    0  501  502 -0.00000000000E+00 -0.00000000000E+00 -0.42698349812E+02  0.42698349812E+02  0.00000000000E+00 0. -1.
      99926    2    1    2    0    0  0.00000000000E+00  0.00000000000E+00  0.11386963910E+04  0.12240930906E+04  0.44919308058E+03 0.  0.
      99925    2    3    3    0    0  0.82738419738E+02 -0.68433455699E+02  0.73684566303E+03  0.78974265649E+03  0.26310292359E+03 0.  0.
         25    1    4    4    0    0  0.40361438783E+02 -0.69413575266E+02  0.32841102795E+03  0.36048384367E+03  0.12509000000E+03 0.  0.
         25    1    3    3    0    0 -0.82738419738E+02  0.68433455699E+02  0.40185072797E+03  0.43435043414E+03  0.12509000000E+03 0.  0.
         25    1    4    4    0    0  0.42376980956E+02  0.98011956743E+00  0.40843463508E+03  0.42925881282E+03  0.12509000000E+03 0.  0.
<mgrwt>
<rscale>  2 0.44919308E+03</rscale>
<asrwt>0</asrwt>
<pdfrwt beam="1">  1       21 0.17373450E+00 0.44919308E+03</pdfrwt>
<pdfrwt beam="2">  1       21 0.62791699E-02 0.44919308E+03</pdfrwt>
<totfact> 0.32862193E+04</totfact>
</mgrwt>
</event>
<event>
 7    0  0.4770865E-002  0.4512805E+03  0.7546771E-02  0.1027341E+00
         21   -1    0    0  502  501  0.00000000000E+00  0.00000000000E+00  0.11352455241E+04  0.11352455241E+04  0.00000000000E+00 0.  1.
         21   -1    0    0  501  502 -0.00000000000E+00 -0.00000000000E+00 -0.44848035830E+02  0.44848035830E+02  0.00000000000E+00 0.  1.
      99926    2    1    2    0    0 -0.88817841970E-15  0.14210854715E-13  0.10903974883E+04  0.11800935600E+04  0.45128054220E+03 0.  0.
      99925    2    3    3    0    0 -0.30839047459E+01  0.84866118116E+02  0.87018043604E+03  0.91297031747E+03  0.26284794243E+03 0.  0.
         25    1    4    4    0    0  0.78347247206E+01  0.61507062061E+02  0.33843502924E+03  0.36610145959E+03  0.12509000000E+03 0.  0.
         25    1    3    3    0    0  0.30839047459E+01 -0.84866118116E+02  0.22021705226E+03  0.26712324249E+03  0.12509000000E+03 0.  0.
         25    1    4    4    0    0 -0.10918629466E+02  0.23359056055E+02  0.53174540680E+03  0.54686885789E+03  0.12509000000E+03 0.  0.
<mgrwt>
<rscale>  2 0.45128054E+03</rscale>
<asrwt>0</asrwt>
<pdfrwt beam="1">  1       21 0.16694785E+00 0.45128054E+03</pdfrwt>
<pdfrwt beam="2">  1       21 0.65953001E-02 0.45128054E+03</pdfrwt>
<totfact> 0.33761165E+04</totfact>
</mgrwt>
</event>
<event>
 6    0  0.4770865E-002  0.4562919E+03  0.7546771E-02  0.1025862E+00
         21   -1    0    0  502  501  0.00000000000E+00  0.00000000000E+00  0.22033919241E+03  0.22033919241E+03  0.00000000000E+00 0.  1.
         21   -1    0    0  501  502 -0.00000000000E+00 -0.00000000000E+00 -0.23622934939E+03  0.23622934939E+03  0.00000000000E+00 0.  1.
      99926    2    1    2    0    0  0.00000000000E+00  0.00000000000E+00 -0.15890156976E+02  0.45656854179E+03  0.45629194193E+03 0.  0.
         25    1    3    3    0    0 -0.11470753275E+02 -0.30663040531E+01 -0.15168077420E+02  0.12656444633E+03  0.12509000000E+03 0.  0.
         25    1    3    3    0    0  0.55780488107E+02 -0.85285531536E+02  0.38388339712E+02  0.16585010542E+03  0.12509000000E+03 0.  0.
         25    1    3    3    0    0 -0.44309734832E+02  0.88351835589E+02 -0.39110419268E+02  0.16415399005E+03  0.12509000000E+03 0.  0.
<mgrwt>
<rscale>  2 0.45629194E+03</rscale>
<asrwt>0</asrwt>
<pdfrwt beam="1">  1       21 0.32402823E-01 0.45629194E+03</pdfrwt>
<pdfrwt beam="2">  1       21 0.34739610E-01 0.45629194E+03</pdfrwt>
<totfact> 0.67730170E+04</totfact>
</mgrwt>
</event>
<event>
 7    0  0.4770865E-002  0.4067557E+03  0.7546771E-02  0.1041465E+00
         21   -1    0    0  502  501  0.00000000000E+00  0.00000000000E+00  0.43190269465E+03  0.43190269465E+03  0.00000000000E+00 0. -1.
         21   -1    0    0  501  502 -0.00000000000E+00 -0.00000000000E+00 -0.95768228678E+02  0.95768228678E+02  0.00000000000E+00 0. -1.
      99926    2    1    2    0    0  0.44408920985E-15  0.35527136788E-14  0.33613446597E+03  0.52767092333E+03  0.40675573028E+03 0.  0.
      99925    2    3    3    0    0  0.28425566482E+01 -0.20842494809E+02  0.29149782341E+03  0.39320000574E+03  0.26304519334E+03 0.  0.
         25    1    4    4    0    0  0.49541202255E+01  0.26427035360E+02  0.11726022993E+03  0.17355230084E+03  0.12509000000E+03 0.  0.
         25    1    4    4    0    0 -0.21115635773E+01 -0.47269530169E+02  0.17423759349E+03  0.21964770490E+03  0.12509000000E+03 0.  0.
         25    1    3    3    0    0 -0.28425566482E+01  0.20842494809E+02  0.44636642560E+02  0.13447091759E+03  0.12509000000E+03 0.  0.
<mgrwt>
<rscale>  2 0.40675573E+03</rscale>
<asrwt>0</asrwt>
<pdfrwt beam="1">  1       21 0.63515101E-01 0.40675573E+03</pdfrwt>
<pdfrwt beam="2">  1       21 0.14083563E-01 0.40675573E+03</pdfrwt>
<totfact> 0.94665444E+04</totfact>
</mgrwt>
</event>
<event>
 7    0  0.4770865E-002  0.4519689E+03  0.7546771E-02  0.1027137E+00
         21   -1    0    0  502  501  0.00000000000E+00  0.00000000000E+00  0.78471866035E+03  0.78471866035E+03  0.00000000000E+00 0. -1.
         21   -1    0    0  501  502 -0.00000000000E+00 -0.00000000000E+00 -0.65079339686E+02  0.65079339686E+02  0.00000000000E+00 0. -1.
      99926    2    1    2    0    0  0.00000000000E+00  0.00000000000E+00  0.71963932066E+03  0.84979800004E+03  0.45196890271E+03 0.  0.
      99925    2    3    3    0    0  0.47143279111E+02 -0.89147818526E+02  0.37033618886E+03  0.46531131847E+03  0.26305115093E+03 0.  0.
         25    1    3    3    0    0 -0.47143279111E+02  0.89147818526E+02  0.34930313181E+03  0.38448668157E+03  0.12509000000E+03 0.  0.
         25    1    4    4    0    0 -0.14877252432E+02 -0.56223057663E+02  0.17047617770E+03  0.21929888307E+03  0.12509000000E+03 0.  0.
         25    1    4    4    0    0  0.62020531543E+02 -0.32924760863E+02  0.19986001115E+03  0.24601243539E+03  0.12509000000E+03 0.  0.
<mgrwt>
<rscale>  2 0.45196890E+03</rscale>
<asrwt>0</asrwt>
<pdfrwt beam="1">  1       21 0.11539980E+00 0.45196890E+03</pdfrwt>
<pdfrwt beam="2">  1       21 0.95704916E-02 0.45196890E+03</pdfrwt>
<totfact> 0.46545314E+04</totfact>
</mgrwt>
</event>
<event>
 7    0  0.4770865E-002  0.4573547E+03  0.7546771E-02  0.1025551E+00
         21   -1    0    0  502  501  0.00000000000E+00  0.00000000000E+00  0.84251952355E+02  0.84251952355E+02  0.00000000000E+00 0.  1.
         21   -1    0    0  501  502 -0.00000000000E+00 -0.00000000000E+00 -0.62067803141E+03  0.62067803141E+03  0.00000000000E+00 0.  1.
      99926    2    1    2    0    0  0.00000000000E+00 -0.14210854715E-13 -0.53642607905E+03  0.70492998376E+03  0.45735472417E+03 0.  0.
      99925    2    3    3    0    0 -0.15117867388E+02 -0.11360604318E+03 -0.35717769591E+03  0.45812566062E+03  0.26299872909E+03 0.  0.
         25    1    4    4    0    0  0.57964508573E+01 -0.27376707654E+02 -0.11938502552E+03  0.17516670740E+03  0.12509000000E+03 0.  0.
         25    1    4    4    0    0 -0.20914318245E+02 -0.86229335530E+02 -0.23779267039E+03  0.28295895322E+03  0.12509000000E+03 0.  0.
         25    1    3    3    0    0  0.15117867388E+02  0.11360604318E+03 -0.17924838314E+03  0.24680432314E+03  0.12509000000E+03 0.  0.
<mgrwt>
<rscale>  2 0.45735472E+03</rscale>
<asrwt>0</asrwt>
<pdfrwt beam="1">  1       21 0.12389993E-01 0.45735472E+03</pdfrwt>
<pdfrwt beam="2">  1       21 0.91276179E-01 0.45735472E+03</pdfrwt>
<totfact> 0.51672007E+04</totfact>
</mgrwt>
</event>
<event>
 7    0  0.4770865E-002  0.4576353E+03  0.7546771E-02  0.1025469E+00
         21   -1    0    0  502  501  0.00000000000E+00  0.00000000000E+00  0.35548698882E+03  0.35548698882E+03  0.00000000000E+00 0. -1.
         21   -1    0    0  501  502 -0.00000000000E+00 -0.00000000000E+00 -0.14728391793E+03  0.14728391793E+03  0.00000000000E+00 0. -1.
      99926    2    1    2    0    0  0.71054273576E-14  0.00000000000E+00  0.20820307090E+03  0.50277090675E+03  0.45763529797E+03 0.  0.
      99925    2    3    3    0    0 -0.33687969463E+02  0.92290697726E+02  0.19765210459E+03  0.34336173775E+03  0.26301801521E+03 0.  0.
         25    1    4    4    0    0 -0.56754053132E+02  0.41258901379E+02  0.10885364986E+03  0.18005539336E+03  0.12509000000E+03 0.  0.
         25    1    4    4    0    0  0.23066083670E+02  0.51031796347E+02  0.88798454733E+02  0.16330634439E+03  0.12509000000E+03 0.  0.
         25    1    3    3    0    0  0.33687969463E+02 -0.92290697726E+02  0.10550966302E+02  0.15940916901E+03  0.12509000000E+03 0.  0.
<mgrwt>
<rscale>  2 0.45763530E+03</rscale>
<asrwt>0</asrwt>
<pdfrwt beam="1">  1       21 0.52277498E-01 0.45763530E+03</pdfrwt>
<pdfrwt beam="2">  1       21 0.21659400E-01 0.45763530E+03</pdfrwt>
<totfact> 0.63732757E+04</totfact>
</mgrwt>
</event>
<event>
 7    0  0.4770865E-002  0.4243231E+03  0.7546771E-02  0.1035668E+00
         21   -1    0    0  502  501  0.00000000000E+00  0.00000000000E+00  0.45717193142E+03  0.45717193142E+03  0.00000000000E+00 0.  1.
         21   -1    0    0  501  502 -0.00000000000E+00 -0.00000000000E+00 -0.98458650438E+02  0.98458650438E+02  0.00000000000E+00 0.  1.
      99926    2    1    2    0    0  0.14210854715E-13 -0.88817841970E-15  0.35871328098E+03  0.55563058186E+03  0.42432313812E+03 0.  0.
      99925    2    3    3    0    0  0.79937095394E+02 -0.70976015438E+01  0.21692056009E+03  0.35022123697E+03  0.26298302278E+03 0.  0.
         25    1    4    4    0    0  0.89951545148E+01  0.23981024042E+02  0.10644279245E+03  0.16623350590E+03  0.12509000000E+03 0.  0.
         25    1    4    4    0    0  0.70941940879E+02 -0.31078625586E+02  0.11047776764E+03  0.18398773108E+03  0.12509000000E+03 0.  0.
         25    1    3    3    0    0 -0.79937095394E+02  0.70976015438E+01  0.14179272090E+03  0.20540934489E+03  0.12509000000E+03 0.  0.
<mgrwt>
<rscale>  2 0.42432314E+03</rscale>
<asrwt>0</asrwt>
<pdfrwt beam="1">  1       21 0.67231165E-01 0.42432314E+03</pdfrwt>
<pdfrwt beam="2">  1       21 0.14479214E-01 0.42432314E+03</pdfrwt>
<totfact> 0.78988875E+04</totfact>
</mgrwt>
</event>
<event>
 7    0  0.4770865E-002  0.4673829E+03  0.7546771E-02  0.1022661E+00
         21   -1    0    0  502  501  0.00000000000E+00  0.00000000000E+00  0.94956953371E+02  0.94956953371E+02  0.00000000000E+00 0.  1.
         21   -1    0    0  501  502 -0.00000000000E+00 -0.00000000000E+00 -0.57512048793E+03  0.57512048793E+03  0.00000000000E+00 0.  1.
      99926    2    1    2    0    0  0.00000000000E+00  0.00000000000E+00 -0.48016353456E+03  0.67007744130E+03  0.46738288097E+03 0.  0.
      99925    2    3    3    0    0 -0.34510751359E+02 -0.96763435160E+02 -0.40135332871E+03  0.49004213646E+03  0.26173010278E+03 0.  0.
         25    1    4    4    0    0 -0.49074814761E+02 -0.60677190227E+02 -0.17828530294E+03  0.23135085088E+03  0.12509000000E+03 0.  0.
         25    1    3    3    0    0  0.34510751359E+02  0.96763435160E+02 -0.78810205854E+02  0.18003530484E+03  0.12509000000E+03 0.  0.
         25    1    4    4    0    0  0.14564063402E+02 -0.36086244933E+02 -0.22306802577E+03  0.25869128558E+03  0.12509000000E+03 0.  0.
<mgrwt>
<rscale>  2 0.46738288E+03</rscale>
<asrwt>0</asrwt>
<pdfrwt beam="1">  1       21 0.13964259E-01 0.46738288E+03</pdfrwt>
<pdfrwt beam="2">  1       21 0.84576537E-01 0.46738288E+03</pdfrwt>
<totfact> 0.49541395E+04</totfact>
</mgrwt>
</event>
<event>
 7    0  0.4770865E-002  0.4547687E+03  0.7546771E-02  0.1026309E+00
         21   -1    0    0  502  501  0.00000000000E+00  0.00000000000E+00  0.16917264552E+03  0.16917264552E+03  0.00000000000E+00 0. -1.
         21   -1    0    0  501  502 -0.00000000000E+00 -0.00000000000E+00 -0.30562652682E+03  0.30562652682E+03  0.00000000000E+00 0. -1.
      99926    2    1    2    0    0  0.35527136788E-14  0.00000000000E+00 -0.13645388130E+03  0.47479917234E+03  0.45476872400E+03 0.  0.
      99925    2    3    3    0    0 -0.21629530531E+02 -0.96368955969E+02 -0.28716170873E+02  0.28242002946E+03  0.26302403370E+03 0.  0.
         25    1    4    4    0    0 -0.40185630168E+02 -0.20457146607E+02 -0.52669738923E+01  0.13307377215E+03  0.12509000000E+03 0.  0.
         25    1    4    4    0    0  0.18556099637E+02 -0.75911809362E+02 -0.23449196981E+02  0.14934625731E+03  0.12509000000E+03 0.  0.
         25    1    3    3    0    0  0.21629530531E+02  0.96368955969E+02 -0.10773771043E+03  0.19237914288E+03  0.12509000000E+03 0.  0.
<mgrwt>
<rscale>  2 0.45476872E+03</rscale>
<asrwt>0</asrwt>
<pdfrwt beam="1">  1       21 0.24878331E-01 0.45476872E+03</pdfrwt>
<pdfrwt beam="2">  1       21 0.44945077E-01 0.45476872E+03</pdfrwt>
<totfact> 0.67203940E+04</totfact>
</mgrwt>
</event>
<event>
 7    0  0.4770865E-002  0.4430011E+03  0.7546771E-02  0.1029830E+00
         21   -1    0    0  502  501  0.00000000000E+00  0.00000000000E+00  0.60903900372E+02  0.60903900372E+02  0.00000000000E+00 0.  1.
         21   -1    0    0  501  502 -0.00000000000E+00 -0.00000000000E+00 -0.80557238283E+03  0.80557238283E+03  0.00000000000E+00 0.  1.
      99926    2    1    2    0    0  0.00000000000E+00  0.00000000000E+00 -0.74466848246E+03  0.86647628320E+03  0.44300112933E+03 0.  0.
      99925    2    3    3    0    0 -0.82852843319E+02  0.43027906414E+02 -0.55188967185E+03  0.61842956926E+03  0.26297704818E+03 0.  0.
         25    1    3    3    0    0  0.82852843319E+02 -0.43027906414E+02 -0.19277881061E+03  0.24804671394E+03  0.12509000000E+03 0.  0.
         25    1    4    4    0    0 -0.24219309579E+02  0.47701310464E+02 -0.33080384703E+03  0.35768796917E+03  0.12509000000E+03 0.  0.
         25    1    4    4    0    0 -0.58633533740E+02 -0.46734040498E+01 -0.22108582482E+03  0.26074160009E+03  0.12509000000E+03 0.  0.
<mgrwt>
<rscale>  2 0.44300113E+03</rscale>
<asrwt>0</asrwt>
<pdfrwt beam="1">  1       21 0.89564563E-02 0.44300113E+03</pdfrwt>
<pdfrwt beam="2">  1       21 0.11846652E+00 0.44300113E+03</pdfrwt>
<totfact> 0.49176885E+04</totfact>
</mgrwt>
</event>
<event>
 7    0  0.4770865E-002  0.4624582E+03  0.7546771E-02  0.1024071E+00
         21   -1    0    0  502  501  0.00000000000E+00  0.00000000000E+00  0.88941504359E+03  0.88941504359E+03  0.00000000000E+00 0. -1.
         21   -1    0    0  501  502 -0.00000000000E+00 -0.00000000000E+00 -0.60114662778E+02  0.60114662778E+02  0.00000000000E+00 0. -1.
      99926    2    1    2    0    0  0.26645352591E-14  0.00000000000E+00  0.82930038081E+03  0.94952970637E+03  0.46245815125E+03 0.  0.
      99925    2    3    3    0    0 -0.31826594248E+01  0.54820632358E+02  0.29980650711E+03  0.40269636663E+03  0.26318242902E+03 0.  0.
         25    1    4    4    0    0  0.30676913620E+02  0.32057177440E+02  0.18741339690E+03  0.22965196514E+03  0.12509000000E+03 0.  0.
         25    1    3    3    0    0  0.31826594248E+01 -0.54820632358E+02  0.52949387371E+03  0.54683333973E+03  0.12509000000E+03 0.  0.
         25    1    4    4    0    0 -0.33859573044E+02  0.22763454918E+02  0.11239311020E+03  0.17304440149E+03  0.12509000000E+03 0.  0.
<mgrwt>
<rscale>  2 0.46245815E+03</rscale>
<asrwt>0</asrwt>
<pdfrwt beam="1">  1       21 0.13079632E+00 0.46245815E+03</pdfrwt>
<pdfrwt beam="2">  1       21 0.88403921E-02 0.46245815E+03</pdfrwt>
<totfact> 0.38844382E+04</totfact>
</mgrwt>
</event>
<event>
 7    0  0.4770865E-002  0.4666614E+03  0.7546771E-02  0.1022867E+00
         21   -1    0    0  502  501  0.00000000000E+00  0.00000000000E+00  0.17436681894E+04  0.17436681894E+04  0.00000000000E+00 0.  1.
         21   -1    0    0  501  502 -0.00000000000E+00 -0.00000000000E+00 -0.31223385543E+02  0.31223385543E+02  0.00000000000E+00 0.  1.
      99926    2    1    2    0    0  0.00000000000E+00  0.00000000000E+00  0.17124448039E+04  0.17748915750E+04  0.46666143675E+03 0.  0.
      99925    2    3    3    0    0  0.29887177446E+02  0.11038679806E+03  0.12468627109E+04  0.12794193942E+04  0.26299976755E+03 0.  0.
         25    1    4    4    0    0  0.12017683197E+02  0.15730163324E+02  0.63573117263E+03  0.64822333705E+03  0.12509000000E+03 0.  0.
         25    1    3    3    0    0 -0.29887177446E+02 -0.11038679806E+03  0.46558209297E+03  0.49547218081E+03  0.12509000000E+03 0.  0.
         25    1    4    4    0    0  0.17869494248E+02  0.94656634733E+02  0.61113153830E+03  0.63119605712E+03  0.12509000000E+03 0.  0.
<mgrwt>
<rscale>  2 0.46666144E+03</rscale>
<asrwt>0</asrwt>
<pdfrwt beam="1">  1       21 0.25642173E+00 0.46666144E+03</pdfrwt>
<pdfrwt beam="2">  1       21 0.45916755E-02 0.46666144E+03</pdfrwt>
<totfact> 0.16227365E+04</totfact>
</mgrwt>
</event>
<event>
 7    0  0.4770865E-002  0.4544109E+03  0.7546771E-02  0.1026415E+00
         21   -1    0    0  502  501  0.00000000000E+00  0.00000000000E+00  0.18660042179E+03  0.18660042179E+03  0.00000000000E+00 0.  1.
         21   -1    0    0  501  502 -0.00000000000E+00 -0.00000000000E+00 -0.27664625591E+03  0.27664625591E+03  0.00000000000E+00 0.  1.
      99926    2    1    2    0    0  0.00000000000E+00  0.14210854715E-13 -0.90045834117E+02  0.46324667770E+03  0.45441086272E+03 0.  0.
      99925    2    3    3    0    0  0.44764819340E+02 -0.86424781123E+02 -0.52866619855E+00  0.28121930807E+03  0.26383875360E+03 0.  0.
         25    1    4    4    0    0  0.37374900015E+02 -0.19135827381E+02 -0.31494134655E+02  0.13565563629E+03  0.12509000000E+03 0.  0.
         25    1    3    3    0    0 -0.44764819340E+02  0.86424781123E+02 -0.89517167919E+02  0.18202736963E+03  0.12509000000E+03 0.  0.
         25    1    4    4    0    0  0.73899193249E+01 -0.67288953742E+02  0.30965468456E+02  0.14556367177E+03  0.12509000000E+03 0.  0.
<mgrwt>
<rscale>  2 0.45441086E+03</rscale>
<asrwt>0</asrwt>
<pdfrwt beam="1">  1       21 0.27441238E-01 0.45441086E+03</pdfrwt>
<pdfrwt beam="2">  1       21 0.40683273E-01 0.45441086E+03</pdfrwt>
<totfact> 0.68259686E+04</totfact>
</mgrwt>
</event>
<event>
 7    0  0.5353794E-002  0.4258392E+03  0.7546771E-02  0.1035182E+00
         21   -1    0    0  502  501  0.00000000000E+00  0.00000000000E+00  0.64237553328E+03  0.64237553328E+03  0.00000000000E+00 0.  1.
         21   -1    0    0  501  502 -0.00000000000E+00 -0.00000000000E+00 -0.70573602502E+02  0.70573602502E+02  0.00000000000E+00 0.  1.
      99926    2    1    2    0    0  0.71054273576E-14  0.00000000000E+00  0.57180193078E+03  0.71294913578E+03  0.42583919755E+03 0.  0.
      99925    2    3    3    0    0 -0.46535900439E+02  0.33113510229E+02  0.27196128438E+03  0.38307944041E+03  0.26367560160E+03 0.  0.
         25    1    4    4    0    0 -0.49031216329E+02  0.46323638323E+02  0.12171698412E+03  0.18711619910E+03  0.12509000000E+03 0.  0.
         25    1    4    4    0    0  0.24953158903E+01 -0.13210128094E+02  0.15024430027E+03  0.19596324132E+03  0.12509000000E+03 0.  0.
         25    1    3    3    0    0  0.46535900439E+02 -0.33113510229E+02  0.29984064640E+03  0.32986969537E+03  0.12509000000E+03 0.  0.
<mgrwt>
<rscale>  2 0.42583920E+03</rscale>
<asrwt>0</asrwt>
<pdfrwt beam="1">  1       21 0.94466987E-01 0.42583920E+03</pdfrwt>
<pdfrwt beam="2">  1       21 0.10378471E-01 0.42583920E+03</pdfrwt>
<totfact> 0.66117364E+04</totfact>
</mgrwt>
</event>
<event>
 7    0  0.4770865E-002  0.4551326E+03  0.7546771E-02  0.1026202E+00
         21   -1    0    0  502  501  0.00000000000E+00  0.00000000000E+00  0.77895794612E+02  0.77895794612E+02  0.00000000000E+00 0.  1.
         21   -1    0    0  501  502 -0.00000000000E+00 -0.00000000000E+00 -0.66481666037E+03  0.66481666037E+03  0.00000000000E+00 0.  1.
      99926    2    1    2    0    0  0.00000000000E+00  0.00000000000E+00 -0.58692086575E+03  0.74271245498E+03  0.45513260499E+03 0.  0.
      99925    2    3    3    0    0  0.16384449152E+02  0.11095404274E+03 -0.34277647125E+03  0.44634571723E+03  0.26296300172E+03 0.  0.
         25    1    4    4    0    0  0.28621334043E+02  0.18902344475E+02 -0.14425115710E+03  0.19399067971E+03  0.12509000000E+03 0.  0.
         25    1    4    4    0    0 -0.12236884891E+02  0.92051698264E+02 -0.19852531415E+03  0.25235503752E+03  0.12509000000E+03 0.  0.
         25    1    3    3    0    0 -0.16384449152E+02 -0.11095404274E+03 -0.24414439450E+03  0.29636673774E+03  0.12509000000E+03 0.  0.
<mgrwt>
<rscale>  2 0.45513260E+03</rscale>
<asrwt>0</asrwt>
<pdfrwt beam="1">  1       21 0.11455263E-01 0.45513260E+03</pdfrwt>
<pdfrwt beam="2">  1       21 0.97767165E-01 0.45513260E+03</pdfrwt>
<totfact> 0.50591775E+04</totfact>
</mgrwt>
</event>
<event>
 7    0  0.4770865E-002  0.4569077E+03  0.7546771E-02  0.1025682E+00
         21   -1    0    0  502  501  0.00000000000E+00  0.00000000000E+00  0.38215820244E+03  0.38215820244E+03  0.00000000000E+00 0. -1.
         21   -1    0    0  501  502 -0.00000000000E+00 -0.00000000000E+00 -0.13656952096E+03  0.13656952096E+03  0.00000000000E+00 0. -1.
      99926    2    1    2    0    0  0.00000000000E+00  0.14210854715E-13  0.24558868148E+03  0.51872772341E+03  0.45690770464E+03 0.  0.
      99925    2    3    3    0    0 -0.31000252580E+02 -0.10490467053E+03  0.19433352157E+03  0.34482946270E+03  0.26301299432E+03 0.  0.
         25    1    4    4    0    0 -0.49437830843E+02 -0.60561711724E+02  0.12806665645E+03  0.19534686237E+03  0.12509000000E+03 0.  0.
         25    1    4    4    0    0  0.18437578263E+02 -0.44342958802E+02  0.66266865126E+02  0.14948260033E+03  0.12509000000E+03 0.  0.
         25    1    3    3    0    0  0.31000252580E+02  0.10490467053E+03  0.51255159911E+02  0.17389826070E+03  0.12509000000E+03 0.  0.
<mgrwt>
<rscale>  2 0.45690770E+03</rscale>
<asrwt>0</asrwt>
<pdfrwt beam="1">  1       21 0.56199735E-01 0.45690770E+03</pdfrwt>
<pdfrwt beam="2">  1       21 0.20083753E-01 0.45690770E+03</pdfrwt>
<totfact> 0.63014798E+04</totfact>
</mgrwt>
</event>
<event>
 7    0  0.4770865E-002  0.4586266E+03  0.7546771E-02  0.1025180E+00
         21   -1    0    0  502  501  0.00000000000E+00  0.00000000000E+00  0.42682386408E+03  0.42682386408E+03  0.00000000000E+00 0.  1.
         21   -1    0    0  501  502 -0.00000000000E+00 -0.00000000000E+00 -0.12319975486E+03  0.12319975486E+03  0.00000000000E+00 0.  1.
      99926    2    1    2    0    0  0.00000000000E+00  0.00000000000E+00  0.30362410922E+03  0.55002361894E+03  0.45862662557E+03 0.  0.
      99925    2    3    3    0    0 -0.40812262684E+02 -0.10861415278E+03  0.17688707220E+03  0.33748548207E+03  0.26295387300E+03 0.  0.
         25    1    4    4    0    0 -0.14866736861E+02 -0.78904004692E+02  0.55174256370E+02  0.15855146952E+03  0.12509000000E+03 0.  0.
         25    1    3    3    0    0  0.40812262684E+02  0.10861415278E+03  0.12673703702E+03  0.21253813686E+03  0.12509000000E+03 0.  0.
         25    1    4    4    0    0 -0.25945525823E+02 -0.29710148087E+02  0.12171281583E+03  0.17893401255E+03  0.12509000000E+03 0.  0.
<mgrwt>
<rscale>  2 0.45862663E+03</rscale>
<asrwt>0</asrwt>
<pdfrwt beam="1">  1       21 0.62768215E-01 0.45862663E+03</pdfrwt>
<pdfrwt beam="2">  1       21 0.18117611E-01 0.45862663E+03</pdfrwt>
<totfact> 0.60121189E+04</totfact>
</mgrwt>
</event>
<event>
 7    0  0.4770865E-002  0.4548921E+03  0.7546771E-02  0.1026273E+00
         21   -1    0    0  502  501  0.00000000000E+00  0.00000000000E+00  0.95073479047E+02  0.95073479047E+02  0.00000000000E+00 0. -1.
         21   -1    0    0  501  502 -0.00000000000E+00 -0.00000000000E+00 -0.54412339734E+03  0.54412339734E+03  0.00000000000E+00 0. -1.
      99926    2    1    2    0    0  0.00000000000E+00  0.00000000000E+00 -0.44904991830E+03  0.63919687639E+03  0.45489209453E+03 0.  0.
      99925    2    3    3    0    0 -0.66780649946E+02  0.23551480313E+02 -0.15888195417E+03  0.31537704541E+03  0.26306820024E+03 0.  0.
         25    1    4    4    0    0 -0.11203571290E+02  0.28390544315E+02 -0.42350298710E+02  0.13554556030E+03  0.12509000000E+03 0.  0.
         25    1    3    3    0    0  0.66780649946E+02 -0.23551480313E+02 -0.29016796412E+03  0.32381983098E+03  0.12509000000E+03 0.  0.
         25    1    4    4    0    0 -0.55577078656E+02 -0.48390640021E+01 -0.11653165546E+03  0.17983148511E+03  0.12509000000E+03 0.  0.
<mgrwt>
<rscale>  2 0.45489209E+03</rscale>
<asrwt>0</asrwt>
<pdfrwt beam="1">  1       21 0.13981394E-01 0.45489209E+03</pdfrwt>
<pdfrwt beam="2">  1       21 0.80018145E-01 0.45489209E+03</pdfrwt>
<totfact> 0.56376179E+04</totfact>
</mgrwt>
</event>
<event>
 7    0  0.4770865E-002  0.4655525E+03  0.7546771E-02  0.1023183E+00
         21   -1    0    0  502  501  0.00000000000E+00  0.00000000000E+00  0.63358348858E+03  0.63358348858E+03  0.00000000000E+00 0.  1.
         21   -1    0    0  501  502 -0.00000000000E+00 -0.00000000000E+00 -0.85521152457E+02  0.85521152457E+02  0.00000000000E+00 0.  1.
      99926    2    1    2    0    0  0.14210854715E-13 -0.17763568394E-14  0.54806233612E+03  0.71910464103E+03  0.46555253246E+03 0.  0.
      99925    2    3    3    0    0  0.76203987864E+02 -0.13999405443E+02  0.19436002699E+03  0.33601736285E+03  0.26292359523E+03 0.  0.
         25    1    4    4    0    0 -0.25273797490E+01  0.41554126333E+01  0.89435248158E+02  0.15385001403E+03  0.12509000000E+03 0.  0.
         25    1    4    4    0    0  0.78731367613E+02 -0.18154818077E+02  0.10492477883E+03  0.18216734882E+03  0.12509000000E+03 0.  0.
         25    1    3    3    0    0 -0.76203987864E+02  0.13999405443E+02  0.35370230913E+03  0.38308727818E+03  0.12509000000E+03 0.  0.
<mgrwt>
<rscale>  2 0.46555253E+03</rscale>
<asrwt>0</asrwt>
<pdfrwt beam="1">  1       21 0.93174040E-01 0.46555253E+03</pdfrwt>
<pdfrwt beam="2">  1       21 0.12576640E-01 0.46555253E+03</pdfrwt>
<totfact> 0.47786167E+04</totfact>
</mgrwt>
</event>
<event>
 7    0  0.4770865E-002  0.4579121E+03  0.7546771E-02  0.1025389E+00
         21   -1    0    0  502  501  0.00000000000E+00  0.00000000000E+00  0.25233129567E+03  0.25233129567E+03  0.00000000000E+00 0.  1.
         21   -1    0    0  501  502 -0.00000000000E+00 -0.00000000000E+00 -0.20774620270E+03  0.20774620270E+03  0.00000000000E+00 0.  1.
      99926    2    1    2    0    0  0.00000000000E+00  0.00000000000E+00  0.44585092962E+02  0.46007749837E+03  0.45791208107E+03 0.  0.
      99925    2    3    3    0    0 -0.10990627066E+03 -0.33443381079E+02  0.12239124332E+02  0.28718557301E+03  0.26292186883E+03 0.  0.
         25    1    4    4    0    0 -0.53808178724E+02 -0.41501710570E+02 -0.25822396816E+02  0.14467901145E+03  0.12509000000E+03 0.  0.
         25    1    3    3    0    0  0.10990627066E+03  0.33443381079E+02  0.32345968630E+02  0.17289192536E+03  0.12509000000E+03 0.  0.
         25    1    4    4    0    0 -0.56098091938E+02  0.80583294909E+01  0.38061521148E+02  0.14250656155E+03  0.12509000000E+03 0.  0.
<mgrwt>
<rscale>  2 0.45791208E+03</rscale>
<asrwt>0</asrwt>
<pdfrwt beam="1">  1       21 0.37107544E-01 0.45791208E+03</pdfrwt>
<pdfrwt beam="2">  1       21 0.30550912E-01 0.45791208E+03</pdfrwt>
<totfact> 0.66614169E+04</totfact>
</mgrwt>
</event>
<event>
 7    0  0.4770865E-002  0.4482864E+03  0.7546771E-02  0.1028234E+00
         21   -1    0    0  502  501  0.00000000000E+00  0.00000000000E+00  0.53799232597E+02  0.53799232597E+02  0.00000000000E+00 0.  1.
         21   -1    0    0  501  502 -0.00000000000E+00 -0.00000000000E+00 -0.93384561685E+03  0.93384561685E+03  0.00000000000E+00 0.  1.
      99926    2    1    2    0    0  0.00000000000E+00  0.14210854715E-13 -0.88004638425E+03  0.98764484945E+03  0.44828641537E+03 0.  0.
      99925    2    3    3    0    0 -0.38987499799E+02 -0.92905300062E+02 -0.47957514236E+03  0.55616351311E+03  0.26300972649E+03 0.  0.
         25    1    3    3    0    0  0.38987499799E+02  0.92905300062E+02 -0.40047124190E+03  0.43148133634E+03  0.12509000000E+03 0.  0.
         25    1    4    4    0    0 -0.32418269425E+02 -0.61779527387E+02 -0.32239146133E+03  0.35277672348E+03  0.12509000000E+03 0.  0.
         25    1    4    4    0    0 -0.65692303736E+01 -0.31125772675E+02 -0.15718368103E+03  0.20338678963E+03  0.12509000000E+03 0.  0.
<mgrwt>
<rscale>  2 0.44828642E+03</rscale>
<asrwt>0</asrwt>
<pdfrwt beam="1">  1       21 0.79116522E-02 0.44828642E+03</pdfrwt>
<pdfrwt beam="2">  1       21 0.13733023E+00 0.44828642E+03</pdfrwt>
<totfact> 0.41800084E+04</totfact>
</mgrwt>
</event>
<event>
 7    0  0.4770865E-002  0.4453787E+03  0.7546771E-02  0.1029109E+00
         21   -1    0    0  502  501  0.00000000000E+00  0.00000000000E+00  0.17872574108E+03  0.17872574108E+03  0.00000000000E+00 0.  1.
         21   -1    0    0  501  502 -0.00000000000E+00 -0.00000000000E+00 -0.27746732068E+03  0.27746732068E+03  0.00000000000E+00 0.  1.
      99926    2    1    2    0    0  0.00000000000E+00  0.88817841970E-15 -0.98741579602E+02  0.45619306176E+03  0.44537872654E+03 0.  0.
      99925    2    3    3    0    0 -0.33349753116E+02 -0.61427722201E+01  0.37852947244E+02  0.26789671939E+03  0.26303206452E+03 0.  0.
         25    1    4    4    0    0  0.89529589092E+01  0.80877659488E+01 -0.11531801946E+02  0.12619848647E+03  0.12509000000E+03 0.  0.
         25    1    4    4    0    0 -0.42302712026E+02 -0.14230538169E+02  0.49384749190E+02  0.14169823292E+03  0.12509000000E+03 0.  0.
         25    1    3    3    0    0  0.33349753116E+02  0.61427722201E+01 -0.13659452685E+03  0.18829634236E+03  0.12509000000E+03 0.  0.
<mgrwt>
<rscale>  2 0.44537873E+03</rscale>
<asrwt>0</asrwt>
<pdfrwt beam="1">  1       21 0.26283197E-01 0.44537873E+03</pdfrwt>
<pdfrwt beam="2">  1       21 0.40804018E-01 0.44537873E+03</pdfrwt>
<totfact> 0.73962151E+04</totfact>
</mgrwt>
</event>
<event>
 7    0  0.4770865E-002  0.4545887E+03  0.7546771E-02  0.1026362E+00
         21   -1    0    0  502  501  0.00000000000E+00  0.00000000000E+00  0.22749110739E+03  0.22749110739E+03  0.00000000000E+00 0.  1.
         21   -1    0    0  501  502 -0.00000000000E+00 -0.00000000000E+00 -0.22709778585E+03  0.22709778585E+03  0.00000000000E+00 0.  1.
      99926    2    1    2    0    0  0.00000000000E+00  0.22204460493E-15  0.39332154878E+00  0.45458889324E+03  0.45458872308E+03 0.  0.
      99925    2    3    3    0    0  0.36568378142E+02  0.13363924391E+01  0.10692314133E+03  0.28625843602E+03  0.26300627715E+03 0.  0.
         25    1    4    4    0    0  0.54105451381E+02 -0.23134448386E+01  0.76392823733E+02  0.15625659511E+03  0.12509000000E+03 0.  0.
         25    1    3    3    0    0 -0.36568378142E+02 -0.13363924391E+01 -0.10652981978E+03  0.16833045722E+03  0.12509000000E+03 0.  0.
         25    1    4    4    0    0 -0.17537073239E+02  0.36498372777E+01  0.30530317593E+02  0.13000184092E+03  0.12509000000E+03 0.  0.
<mgrwt>
<rscale>  2 0.45458872E+03</rscale>
<asrwt>0</asrwt>
<pdfrwt beam="1">  1       21 0.33454575E-01 0.45458872E+03</pdfrwt>
<pdfrwt beam="2">  1       21 0.33396733E-01 0.45458872E+03</pdfrwt>
<totfact> 0.68801416E+04</totfact>
</mgrwt>
</event>
<event>
 7    0  0.4770865E-002  0.4521177E+03  0.7546771E-02  0.1027092E+00
         21   -1    0    0  502  501  0.00000000000E+00  0.00000000000E+00  0.23695593985E+03  0.23695593985E+03  0.00000000000E+00 0.  1.
         21   -1    0    0  501  502 -0.00000000000E+00 -0.00000000000E+00 -0.21566292233E+03  0.21566292233E+03  0.00000000000E+00 0.  1.
      99926    2    1    2    0    0 -0.71054273576E-14  0.00000000000E+00  0.21293017524E+02  0.45261886218E+03  0.45211773003E+03 0.  0.
      99925    2    3    3    0    0  0.47032377720E+02 -0.82021487039E+02  0.70145998306E+02  0.28838217103E+03  0.26325699724E+03 0.  0.
         25    1    4    4    0    0 -0.95286071727E+01 -0.42613071440E+02  0.59258297557E+02  0.14514035325E+03  0.12509000000E+03 0.  0.
         25    1    4    4    0    0  0.56560984893E+02 -0.39408415599E+02  0.10887700749E+02  0.14324181778E+03  0.12509000000E+03 0.  0.
         25    1    3    3    0    0 -0.47032377720E+02  0.82021487039E+02 -0.48852980781E+02  0.16423669115E+03  0.12509000000E+03 0.  0.
<mgrwt>
<rscale>  2 0.45211773E+03</rscale>
<asrwt>0</asrwt>
<pdfrwt beam="1">  1       21 0.34846462E-01 0.45211773E+03</pdfrwt>
<pdfrwt beam="2">  1       21 0.31715135E-01 0.45211773E+03</pdfrwt>
<totfact> 0.70324008E+04</totfact>
</mgrwt>
</event>
<event>
 7    0  0.4770865E-002  0.4455857E+03  0.7546771E-02  0.1029047E+00
         21   -1    0    0  502  501  0.00000000000E+00  0.00000000000E+00  0.57289107639E+02  0.57289107639E+02  0.00000000000E+00 0. -1.
         21   -1    0    0  501  502 -0.00000000000E+00 -0.00000000000E+00 -0.86642404824E+03  0.86642404824E+03  0.00000000000E+00 0. -1.
      99926    2    1    2    0    0  0.00000000000E+00  0.00000000000E+00 -0.80913494060E+03  0.92371315588E+03  0.44558572940E+03 0.  0.
      99925    2    3    3    0    0  0.13676260849E+02 -0.56931495690E+02 -0.33545102147E+03  0.43030440175E+03  0.26307081755E+03 0.  0.
         25    1    4    4    0    0  0.45193801373E+02 -0.26598795202E+02 -0.19118638636E+03  0.23441356193E+03  0.12509000000E+03 0.  0.
         25    1    4    4    0    0 -0.31517540524E+02 -0.30332700488E+02 -0.14426463511E+03  0.19589083982E+03  0.12509000000E+03 0.  0.
         25    1    3    3    0    0 -0.13676260849E+02  0.56931495690E+02 -0.47368391913E+03  0.49340875413E+03  0.12509000000E+03 0.  0.
<mgrwt>
<rscale>  2 0.44558573E+03</rscale>
<asrwt>0</asrwt>
<pdfrwt beam="1">  1       21 0.84248691E-02 0.44558573E+03</pdfrwt>
<pdfrwt beam="2">  1       21 0.12741530E+00 0.44558573E+03</pdfrwt>
<totfact> 0.45481998E+04</totfact>
</mgrwt>
</event>
<event>
 7    0  0.4770865E-002  0.4550520E+03  0.7546771E-02  0.1026226E+00
         21   -1    0    0  502  501  0.00000000000E+00  0.00000000000E+00  0.11017371517E+03  0.11017371517E+03  0.00000000000E+00 0. -1.
         21   -1    0    0  501  502 -0.00000000000E+00 -0.00000000000E+00 -0.46987692996E+03  0.46987692996E+03  0.00000000000E+00 0. -1.
      99926    2    1    2    0    0 -0.13322676296E-14 -0.14210854715E-13 -0.35970321479E+03  0.58005064512E+03  0.45505202799E+03 0.  0.
      99925    2    3    3    0    0 -0.38226153177E+01 -0.11294124973E+03 -0.22875251078E+03  0.36658886105E+03  0.26322869065E+03 0.  0.
         25    1    3    3    0    0  0.38226153177E+01  0.11294124973E+03 -0.13095070401E+03  0.21346178408E+03  0.12509000000E+03 0.  0.
         25    1    4    4    0    0  0.17518555747E+02 -0.82867415578E+02 -0.15642266050E+03  0.21746141078E+03  0.12509000000E+03 0.  0.
         25    1    4    4    0    0 -0.21341171065E+02 -0.30073834154E+02 -0.72329850282E+02  0.14912745027E+03  0.12509000000E+03 0.  0.
<mgrwt>
<rscale>  2 0.45505203E+03</rscale>
<asrwt>0</asrwt>
<pdfrwt beam="1">  1       21 0.16202017E-01 0.45505203E+03</pdfrwt>
<pdfrwt beam="2">  1       21 0.69099549E-01 0.45505203E+03</pdfrwt>
<totfact> 0.59898675E+04</totfact>
</mgrwt>
</event>
<event>
 7    0  0.4770865E-002  0.4550194E+03  0.7546771E-02  0.1026236E+00
         21   -1    0    0  502  501  0.00000000000E+00  0.00000000000E+00  0.52529037011E+02  0.52529037011E+02  0.00000000000E+00 0. -1.
         21   -1    0    0  501  502 -0.00000000000E+00 -0.00000000000E+00 -0.98537229535E+03  0.98537229535E+03  0.00000000000E+00 0. -1.
      99926    2    1    2    0    0  0.71054273576E-14  0.00000000000E+00 -0.93284325834E+03  0.10379013324E+04  0.45501937441E+03 0.  0.
      99925    2    3    3    0    0  0.63675037135E+02 -0.91913682068E+02 -0.62633791167E+03  0.68847942271E+03  0.26306292137E+03 0.  0.
         25    1    3    3    0    0 -0.63675037135E+02  0.91913682068E+02 -0.30650534668E+03  0.34942190965E+03  0.12509000000E+03 0.  0.
         25    1    4    4    0    0  0.15697596594E+02 -0.55003087745E+02 -0.22444893824E+03  0.26324245133E+03  0.12509000000E+03 0.  0.
         25    1    4    4    0    0  0.47977440541E+02 -0.36910594323E+02 -0.40188897342E+03  0.42523697138E+03  0.12509000000E+03 0.  0.
<mgrwt>
<rscale>  2 0.45501937E+03</rscale>
<asrwt>0</asrwt>
<pdfrwt beam="1">  1       21 0.77248593E-02 0.45501937E+03</pdfrwt>
<pdfrwt beam="2">  1       21 0.14490767E+00 0.45501937E+03</pdfrwt>
<totfact> 0.37718785E+04</totfact>
</mgrwt>
</event>
<event>
 7    0  0.4770865E-002  0.4757846E+03  0.7546771E-02  0.1020300E+00
         21   -1    0    0  502  501  0.00000000000E+00  0.00000000000E+00  0.53568935240E+03  0.53568935240E+03  0.00000000000E+00 0.  1.
         21   -1    0    0  501  502 -0.00000000000E+00 -0.00000000000E+00 -0.10564469495E+03  0.10564469495E+03  0.00000000000E+00 0.  1.
      99926    2    1    2    0    0  0.00000000000E+00  0.71054273576E-14  0.43004465745E+03  0.64133404735E+03  0.47578456562E+03 0.  0.
      99925    2    3    3    0    0  0.52091779699E+02 -0.38510779282E+02  0.11119632594E+03  0.29275349677E+03  0.26295123756E+03 0.  0.
         25    1    3    3    0    0 -0.52091779699E+02  0.38510779282E+02  0.31884833151E+03  0.34858055058E+03  0.12509000000E+03 0.  0.
         25    1    4    4    0    0  0.21894545909E+01 -0.47806873053E+02  0.38142591615E+02  0.13925751763E+03  0.12509000000E+03 0.  0.
         25    1    4    4    0    0  0.49902325108E+02  0.92960937707E+01  0.73053734326E+02  0.15349597913E+03  0.12509000000E+03 0.  0.
<mgrwt>
<rscale>  2 0.47578457E+03</rscale>
<asrwt>0</asrwt>
<pdfrwt beam="1">  1       21 0.78777845E-01 0.47578457E+03</pdfrwt>
<pdfrwt beam="2">  1       21 0.15535985E-01 0.47578457E+03</pdfrwt>
<totfact> 0.47856444E+04</totfact>
</mgrwt>
</event>
<event>
 7    0  0.4770865E-002  0.4583449E+03  0.7546771E-02  0.1025262E+00
         21   -1    0    0  502  501  0.00000000000E+00  0.00000000000E+00  0.25988216790E+02  0.25988216790E+02  0.00000000000E+00 0. -1.
         21   -1    0    0  501  502 -0.00000000000E+00 -0.00000000000E+00 -0.20209159545E+04  0.20209159545E+04  0.00000000000E+00 0. -1.
      99926    2    1    2    0    0  0.00000000000E+00  0.00000000000E+00 -0.19949277377E+04  0.20469041713E+04  0.45834485680E+03 0.  0.
      99925    2    3    3    0    0  0.22018083451E+02 -0.11143113812E+03 -0.11366762422E+04  0.11721785959E+04  0.26280807947E+03 0.  0.
         25    1    4    4    0    0 -0.25493429212E+02 -0.70780066305E+02 -0.54634325434E+03  0.56550702239E+03  0.12509000000E+03 0.  0.
         25    1    3    3    0    0 -0.22018083451E+02  0.11143113812E+03 -0.85825149553E+03  0.87472557538E+03  0.12509000000E+03 0.  0.
         25    1    4    4    0    0  0.47511512663E+02 -0.40651071813E+02 -0.59033298782E+03  0.60667157349E+03  0.12509000000E+03 0.  0.
<mgrwt>
<rscale>  2 0.45834486E+03</rscale>
<asrwt>0</asrwt>
<pdfrwt beam="1">  1       21 0.38217949E-02 0.45834486E+03</pdfrwt>
<pdfrwt beam="2">  1       21 0.29719366E+00 0.45834486E+03</pdfrwt>
<totfact> 0.12627903E+04</totfact>
</mgrwt>
</event>
<event>
 7    0  0.4770865E-002  0.4578881E+03  0.7546771E-02  0.1025396E+00
         21   -1    0    0  502  501  0.00000000000E+00  0.00000000000E+00  0.76952056247E+03  0.76952056247E+03  0.00000000000E+00 0.  1.
         21   -1    0    0  501  502 -0.00000000000E+00 -0.00000000000E+00 -0.68114337152E+02  0.68114337152E+02  0.00000000000E+00 0.  1.
      99926    2    1    2    0    0 -0.17763568394E-14  0.00000000000E+00  0.70140622532E+03  0.83763489962E+03  0.45788812187E+03 0.  0.
      99925    2    3    3    0    0 -0.10734087222E+02 -0.74181947612E+02  0.60179831273E+03  0.66103527807E+03  0.26303659000E+03 0.  0.
         25    1    4    4    0    0  0.44252350094E+01 -0.43400036401E+02  0.20972712052E+03  0.24806474769E+03  0.12509000000E+03 0.  0.
         25    1    3    3    0    0  0.10734087222E+02  0.74181947612E+02  0.99607912593E+02  0.17659962155E+03  0.12509000000E+03 0.  0.
         25    1    4    4    0    0 -0.15159322231E+02 -0.30781911211E+02  0.39207119220E+03  0.41297053038E+03  0.12509000000E+03 0.  0.
<mgrwt>
<rscale>  2 0.45788812E+03</rscale>
<asrwt>0</asrwt>
<pdfrwt beam="1">  1       21 0.11316478E+00 0.45788812E+03</pdfrwt>
<pdfrwt beam="2">  1       21 0.10016815E-01 0.45788812E+03</pdfrwt>
<totfact> 0.44970012E+04</totfact>
</mgrwt>
</event>
<event>
 7    0  0.4770865E-002  0.4520360E+03  0.7546771E-02  0.1027117E+00
         21   -1    0    0  502  501  0.00000000000E+00  0.00000000000E+00  0.12040539439E+03  0.12040539439E+03  0.00000000000E+00 0. -1.
         21   -1    0    0  501  502 -0.00000000000E+00 -0.00000000000E+00 -0.42426789136E+03  0.42426789136E+03  0.00000000000E+00 0. -1.
      99926    2    1    2    0    0  0.00000000000E+00  0.00000000000E+00 -0.30386249697E+03  0.54467328575E+03  0.45203602859E+03 0.  0.
      99925    2    3    3    0    0 -0.94061687163E+02  0.28772348738E+02 -0.25200175619E+03  0.37730395290E+03  0.26301699319E+03 0.  0.
         25    1    4    4    0    0 -0.79951993608E+02  0.28237708333E+02 -0.10634817432E+03  0.18478942539E+03  0.12509000000E+03 0.  0.
         25    1    3    3    0    0  0.94061687163E+02 -0.28772348738E+02 -0.51860740777E+02  0.16736933285E+03  0.12509000000E+03 0.  0.
         25    1    4    4    0    0 -0.14109693555E+02  0.53464040489E+00 -0.14565358187E+03  0.19251452751E+03  0.12509000000E+03 0.  0.
<mgrwt>
<rscale>  2 0.45203603E+03</rscale>
<asrwt>0</asrwt>
<pdfrwt beam="1">  1       21 0.17706676E-01 0.45203603E+03</pdfrwt>
<pdfrwt beam="2">  1       21 0.62392337E-01 0.45203603E+03</pdfrwt>
<totfact> 0.63700809E+04</totfact>
</mgrwt>
</event>
<event>
 7    0  0.4770865E-002  0.4532403E+03  0.7546771E-02  0.1026760E+00
         21   -1    0    0  502  501  0.00000000000E+00  0.00000000000E+00  0.89315859225E+03  0.89315859225E+03  0.00000000000E+00 0.  1.
         21   -1    0    0  501  502 -0.00000000000E+00 -0.00000000000E+00 -0.57500090363E+02  0.57500090363E+02  0.00000000000E+00 0.  1.
      99926    2    1    2    0    0  0.00000000000E+00  0.00000000000E+00  0.83565850188E+03  0.95065868261E+03  0.45324033255E+03 0.  0.
      99925    2    3    3    0    0  0.71391921963E+02  0.78104994850E+02  0.59865298069E+03  0.66253315108E+03  0.26337727360E+03 0.  0.
         25    1    4    4    0    0  0.54544788179E+02  0.78531154918E+02  0.34368333924E+03  0.37803177377E+03  0.12509000000E+03 0.  0.
         25    1    3    3    0    0 -0.71391921963E+02 -0.78104994850E+02  0.23700552119E+03  0.28812553153E+03  0.12509000000E+03 0.  0.
         25    1    4    4    0    0  0.16847133784E+02 -0.42616006816E+00  0.25496964146E+03  0.28450137732E+03  0.12509000000E+03 0.  0.
<mgrwt>
<rscale>  2 0.45324033E+03</rscale>
<asrwt>0</asrwt>
<pdfrwt beam="1">  1       21 0.13134684E+00 0.45324033E+03</pdfrwt>
<pdfrwt beam="2">  1       21 0.84558962E-02 0.45324033E+03</pdfrwt>
<totfact> 0.41684787E+04</totfact>
</mgrwt>
</event>
<event>
 7    0  0.4770865E-002  0.4583893E+03  0.7546771E-02  0.1025249E+00
         21   -1    0    0  502  501  0.00000000000E+00  0.00000000000E+00  0.37722457064E+03  0.37722457064E+03  0.00000000000E+00 0.  1.
         21   -1    0    0  501  502 -0.00000000000E+00 -0.00000000000E+00 -0.13925442758E+03  0.13925442758E+03  0.00000000000E+00 0.  1.
      99926    2    1    2    0    0 -0.88817841970E-15  0.14210854715E-13  0.23797014306E+03  0.51647899823E+03  0.45838931775E+03 0.  0.
      99925    2    3    3    0    0  0.78491308087E+01 -0.11375813055E+03  0.17525445856E+03  0.33597058761E+03  0.26298210847E+03 0.  0.
         25    1    4    4    0    0 -0.11043706942E+02 -0.96336416970E+02  0.10831517941E+03  0.19178726467E+03  0.12509000000E+03 0.  0.
         25    1    3    3    0    0 -0.78491308087E+01  0.11375813055E+03  0.62715684494E+02  0.18050841061E+03  0.12509000000E+03 0.  0.
         25    1    4    4    0    0  0.18892837750E+02 -0.17421713581E+02  0.66939279150E+02  0.14418332294E+03  0.12509000000E+03 0.  0.
<mgrwt>
<rscale>  2 0.45838932E+03</rscale>
<asrwt>0</asrwt>
<pdfrwt beam="1">  1       21 0.55474201E-01 0.45838932E+03</pdfrwt>
<pdfrwt beam="2">  1       21 0.20478592E-01 0.45838932E+03</pdfrwt>
<totfact> 0.62431724E+04</totfact>
</mgrwt>
</event>
<event>
 7    0  0.4770865E-002  0.4451919E+03  0.7546771E-02  0.1029166E+00
         21   -1    0    0  502  501  0.00000000000E+00  0.00000000000E+00  0.63302224412E+02  0.63302224412E+02  0.00000000000E+00 0.  1.
         21   -1    0    0  501  502 -0.00000000000E+00 -0.00000000000E+00 -0.78273633709E+03  0.78273633709E+03  0.00000000000E+00 0.  1.
      99926    2    1    2    0    0  0.00000000000E+00  0.00000000000E+00 -0.71943411267E+03  0.84603856150E+03  0.44519187443E+03 0.  0.
      99925    2    3    3    0    0 -0.53014566636E+02 -0.75734742966E+02 -0.36666135666E+03  0.46049683736E+03  0.26281265415E+03 0.  0.
         25    1    4    4    0    0  0.13940559608E+02 -0.37311975256E+02 -0.18413531365E+03  0.22614120486E+03  0.12509000000E+03 0.  0.
         25    1    4    4    0    0 -0.66955126244E+02 -0.38422767711E+02 -0.18252604301E+03  0.23435563250E+03  0.12509000000E+03 0.  0.
         25    1    3    3    0    0  0.53014566636E+02  0.75734742966E+02 -0.35277275601E+03  0.38554172414E+03  0.12509000000E+03 0.  0.
<mgrwt>
<rscale>  2 0.44519187E+03</rscale>
<asrwt>0</asrwt>
<pdfrwt beam="1">  1       21 0.93091504E-02 0.44519187E+03</pdfrwt>
<pdfrwt beam="2">  1       21 0.11510829E+00 0.44519187E+03</pdfrwt>
<totfact> 0.49302475E+04</totfact>
</mgrwt>
</event>
<event>
 7    0  0.4770865E-002  0.4579610E+03  0.7546771E-02  0.1025374E+00
         21   -1    0    0  502  501  0.00000000000E+00  0.00000000000E+00  0.43718988126E+03  0.43718988126E+03  0.00000000000E+00 0. -1.
         21   -1    0    0  501  502 -0.00000000000E+00 -0.00000000000E+00 -0.11992974016E+03  0.11992974016E+03  0.00000000000E+00 0. -1.
      99926    2    1    2    0    0 -0.71054273576E-14  0.00000000000E+00  0.31726014109E+03  0.55711962142E+03  0.45796099773E+03 0.  0.
      99925    2    3    3    0    0 -0.41536082476E+02 -0.10800790124E+03  0.19120378919E+03  0.34515579235E+03  0.26302600464E+03 0.  0.
         25    1    4    4    0    0 -0.16837877653E+02 -0.43920417468E+02  0.13999152123E+03  0.19353979258E+03  0.12509000000E+03 0.  0.
         25    1    4    4    0    0 -0.24698204823E+02 -0.64087483774E+02  0.51212267962E+02  0.15161599977E+03  0.12509000000E+03 0.  0.
         25    1    3    3    0    0  0.41536082476E+02  0.10800790124E+03  0.12605635190E+03  0.21196382907E+03  0.12509000000E+03 0.  0.
<mgrwt>
<rscale>  2 0.45796100E+03</rscale>
<asrwt>0</asrwt>
<pdfrwt beam="1">  1       21 0.64292629E-01 0.45796100E+03</pdfrwt>
<pdfrwt beam="2">  1       21 0.17636727E-01 0.45796100E+03</pdfrwt>
<totfact> 0.59981144E+04</totfact>
</mgrwt>
</event>
<event>
 7    0  0.4770865E-002  0.4224831E+03  0.7546771E-02  0.1036261E+00
         21   -1    0    0  502  501  0.00000000000E+00  0.00000000000E+00  0.40385237640E+03  0.40385237640E+03  0.00000000000E+00 0. -1.
         21   -1    0    0  501  502 -0.00000000000E+00 -0.00000000000E+00 -0.11049333807E+03  0.11049333807E+03  0.00000000000E+00 0. -1.
      99926    2    1    2    0    0  0.00000000000E+00 -0.71054273576E-14  0.29335903833E+03  0.51434571446E+03  0.42248312228E+03 0.  0.
      99925    2    3    3    0    0  0.14701814262E+02  0.36677159995E+02  0.10755928727E+03  0.28690250616E+03  0.26302602600E+03 0.  0.
         25    1    4    4    0    0  0.12251736536E+02 -0.21484468317E+02  0.42936905599E+02  0.13454654730E+03  0.12509000000E+03 0.  0.
         25    1    3    3    0    0 -0.14701814262E+02 -0.36677159995E+02  0.18579975106E+03  0.22744320830E+03  0.12509000000E+03 0.  0.
         25    1    4    4    0    0  0.24500777253E+01  0.58161628312E+02  0.64622381674E+02  0.15235595887E+03  0.12509000000E+03 0.  0.
<mgrwt>
<rscale>  2 0.42248312E+03</rscale>
<asrwt>0</asrwt>
<pdfrwt beam="1">  1       21 0.59390055E-01 0.42248312E+03</pdfrwt>
<pdfrwt beam="2">  1       21 0.16249020E-01 0.42248312E+03</pdfrwt>
<totfact> 0.83889474E+04</totfact>
</mgrwt>
</event>
<event>
 7    0  0.4770865E-002  0.4364664E+03  0.7546771E-02  0.1031837E+00
         21   -1    0    0  502  501  0.00000000000E+00  0.00000000000E+00  0.28129562099E+03  0.28129562099E+03  0.00000000000E+00 0. -1.
         21   -1    0    0  501  502 -0.00000000000E+00 -0.00000000000E+00 -0.16930847706E+03  0.16930847706E+03  0.00000000000E+00 0. -1.
      99926    2    1    2    0    0  0.00000000000E+00  0.00000000000E+00  0.11198714393E+03  0.45060409804E+03  0.43646641654E+03 0.  0.
      99925    2    3    3    0    0  0.76003467217E+02  0.57112580160E+02  0.78152546223E+02  0.28988489588E+03  0.26246344229E+03 0.  0.
         25    1    4    4    0    0  0.49799088305E+02  0.67002526093E+02  0.51447588111E+02  0.15894543127E+03  0.12509000000E+03 0.  0.
         25    1    4    4    0    0  0.26204378912E+02 -0.98899459335E+01  0.26704958112E+02  0.13093946461E+03  0.12509000000E+03 0.  0.
         25    1    3    3    0    0 -0.76003467217E+02 -0.57112580160E+02  0.33834597707E+02  0.16071920216E+03  0.12509000000E+03 0.  0.
<mgrwt>
<rscale>  2 0.43646642E+03</rscale>
<asrwt>0</asrwt>
<pdfrwt beam="1">  1       21 0.41367003E-01 0.43646642E+03</pdfrwt>
<pdfrwt beam="2">  1       21 0.24898305E-01 0.43646642E+03</pdfrwt>
<totfact> 0.80041155E+04</totfact>
</mgrwt>
</event>
<event>
 6    0  0.4770865E-002  0.4566730E+03  0.7546771E-02  0.1025751E+00
         21   -1    0    0  502  501  0.00000000000E+00  0.00000000000E+00  0.59082718858E+02  0.59082718858E+02  0.00000000000E+00 0. -1.
         21   -1    0    0  501  502 -0.00000000000E+00 -0.00000000000E+00 -0.88245002781E+03  0.88245002781E+03  0.00000000000E+00 0. -1.
      99926    2    1    2    0    0  0.00000000000E+00  0.00000000000E+00 -0.82336730895E+03  0.94153274666E+03  0.45667295475E+03 0.  0.
         25    1    3    3    0    0 -0.32879552127E+02  0.26248145625E+02 -0.51145036978E+03  0.52820357718E+03  0.12509000000E+03 0.  0.
         25    1    3    3    0    0  0.98330581952E+01 -0.26009531188E+02 -0.22610904627E+03  0.25989612088E+03  0.12509000000E+03 0.  0.
         25    1    3    3    0    0  0.23046493932E+02 -0.23861443736E+00 -0.85807892901E+02  0.15343304860E+03  0.12509000000E+03 0.  0.
<mgrwt>
<rscale>  2 0.45667295E+03</rscale>
<asrwt>0</asrwt>
<pdfrwt beam="1">  1       21 0.86886358E-02 0.45667295E+03</pdfrwt>
<pdfrwt beam="2">  1       21 0.12977205E+00 0.45667295E+03</pdfrwt>
<totfact> 0.40947219E+04</totfact>
</mgrwt>
</event>
<event>
 7    0  0.4770865E-002  0.4617421E+03  0.7546771E-02  0.1024277E+00
         21   -1    0    0  502  501  0.00000000000E+00  0.00000000000E+00  0.16103244920E+03  0.16103244920E+03  0.00000000000E+00 0. -1.
         21   -1    0    0  501  502 -0.00000000000E+00 -0.00000000000E+00 -0.33099815634E+03  0.33099815634E+03  0.00000000000E+00 0. -1.
      99926    2    1    2    0    0  0.00000000000E+00  0.00000000000E+00 -0.16996570714E+03  0.49203060554E+03  0.46174210895E+03 0.  0.
      99925    2    3    3    0    0 -0.10011532914E+03  0.50249814385E+02 -0.62099205946E+02  0.29245402085E+03  0.26291618428E+03 0.  0.
         25    1    4    4    0    0 -0.35444088780E+02  0.12273681098E+02 -0.66477114016E+02  0.14653887356E+03  0.12509000000E+03 0.  0.
         25    1    3    3    0    0  0.10011532914E+03 -0.50249814385E+02 -0.10786650120E+03  0.19957658469E+03  0.12509000000E+03 0.  0.
         25    1    4    4    0    0 -0.64671240360E+02  0.37976133287E+02  0.43779080698E+01  0.14591514729E+03  0.12509000000E+03 0.  0.
<mgrwt>
<rscale>  2 0.46174211E+03</rscale>
<asrwt>0</asrwt>
<pdfrwt beam="1">  1       21 0.23681243E-01 0.46174211E+03</pdfrwt>
<pdfrwt beam="2">  1       21 0.48676198E-01 0.46174211E+03</pdfrwt>
<totfact> 0.62425549E+04</totfact>
</mgrwt>
</event>
<event>
 7    0  0.4770865E-002  0.4539714E+03  0.7546771E-02  0.1026544E+00
         21   -1    0    0  502  501  0.00000000000E+00  0.00000000000E+00  0.26918359292E+02  0.26918359292E+02  0.00000000000E+00 0.  1.
         21   -1    0    0  501  502 -0.00000000000E+00 -0.00000000000E+00 -0.19140285800E+04  0.19140285800E+04  0.00000000000E+00 0.  1.
      99926    2    1    2    0    0  0.71054273576E-14  0.00000000000E+00 -0.18871102208E+04  0.19409469393E+04  0.45397140444E+03 0.  0.
      99925    2    3    3    0    0  0.62425730109E+02 -0.68802769083E+02 -0.92589378639E+03  0.96718344926E+03  0.26369248764E+03 0.  0.
         25    1    4    4    0    0  0.86304828466E+01 -0.13956125650E+01 -0.35844960116E+03  0.37974999361E+03  0.12509000000E+03 0.  0.
         25    1    3    3    0    0 -0.62425730109E+02  0.68802769083E+02 -0.96121643436E+03  0.97376349007E+03  0.12509000000E+03 0.  0.
         25    1    4    4    0    0  0.53795247263E+02 -0.67407156518E+02 -0.56744418523E+03  0.58743345566E+03  0.12509000000E+03 0.  0.
<mgrwt>
<rscale>  2 0.45397140E+03</rscale>
<asrwt>0</asrwt>
<pdfrwt beam="1">  1       21 0.39585813E-02 0.45397140E+03</pdfrwt>
<pdfrwt beam="2">  1       21 0.28147486E+00 0.45397140E+03</pdfrwt>
<totfact> 0.14816009E+04</totfact>
</mgrwt>
</event>
<event>
 7    0  0.4770865E-002  0.4754422E+03  0.7546771E-02  0.1020395E+00
         21   -1    0    0  502  501  0.00000000000E+00  0.00000000000E+00  0.31806502147E+03  0.31806502147E+03  0.00000000000E+00 0.  1.
         21   -1    0    0  501  502 -0.00000000000E+00 -0.00000000000E+00 -0.17767221463E+03  0.17767221463E+03  0.00000000000E+00 0.  1.
      99926    2    1    2    0    0  0.71054273576E-14  0.00000000000E+00  0.14039280684E+03  0.49573723610E+03  0.47544218055E+03 0.  0.
      99925    2    3    3    0    0  0.48115020429E+02 -0.10509700339E+03  0.21500893283E+02  0.28802775023E+03  0.26293965311E+03 0.  0.
         25    1    4    4    0    0  0.27024388444E+02 -0.94818498464E+02  0.21775773397E+02  0.16075620557E+03  0.12509000000E+03 0.  0.
         25    1    3    3    0    0 -0.48115020429E+02  0.10509700339E+03  0.11889191355E+03  0.20770948587E+03  0.12509000000E+03 0.  0.
         25    1    4    4    0    0  0.21090631985E+02 -0.10278504923E+02 -0.27488011376E+00  0.12727154466E+03  0.12509000000E+03 0.  0.
<mgrwt>
<rscale>  2 0.47544218E+03</rscale>
<asrwt>0</asrwt>
<pdfrwt beam="1">  1       21 0.46774268E-01 0.47544218E+03</pdfrwt>
<pdfrwt beam="2">  1       21 0.26128267E-01 0.47544218E+03</pdfrwt>
<totfact> 0.55929569E+04</totfact>
</mgrwt>
</event>
<event>
 7    0  0.4770865E-002  0.4565497E+03  0.7546771E-02  0.1025787E+00
         21   -1    0    0  502  501  0.00000000000E+00  0.00000000000E+00  0.73578882928E+03  0.73578882928E+03  0.00000000000E+00 0.  1.
         21   -1    0    0  501  502 -0.00000000000E+00 -0.00000000000E+00 -0.70821143548E+02  0.70821143548E+02  0.00000000000E+00 0.  1.
      99926    2    1    2    0    0  0.17763568394E-14  0.00000000000E+00  0.66496768573E+03  0.80660997283E+03  0.45654969631E+03 0.  0.
      99925    2    3    3    0    0  0.59514427333E+01  0.21113740962E+02  0.61662496970E+03  0.67072128300E+03  0.26298189385E+03 0.  0.
         25    1    4    4    0    0  0.42614071864E+02  0.18944776171E+02  0.30738420197E+03  0.33512299143E+03  0.12509000000E+03 0.  0.
         25    1    3    3    0    0 -0.59514427333E+01 -0.21113740962E+02  0.48342716034E+02  0.13588868982E+03  0.12509000000E+03 0.  0.
         25    1    4    4    0    0 -0.36662629130E+02  0.21689647909E+01  0.30924076772E+03  0.33559829157E+03  0.12509000000E+03 0.  0.
<mgrwt>
<rscale>  2 0.45654970E+03</rscale>
<asrwt>0</asrwt>
<pdfrwt beam="1">  1       21 0.10820424E+00 0.45654970E+03</pdfrwt>
<pdfrwt beam="2">  1       21 0.10414874E-01 0.45654970E+03</pdfrwt>
<totfact> 0.46874106E+04</totfact>
</mgrwt>
</event>
<event>
 7    0  0.4770865E-002  0.4673285E+03  0.7546771E-02  0.1022677E+00
         21   -1    0    0  502  501  0.00000000000E+00  0.00000000000E+00  0.10900307871E+03  0.10900307871E+03  0.00000000000E+00 0. -1.
         21   -1    0    0  501  502 -0.00000000000E+00 -0.00000000000E+00 -0.50089402585E+03  0.50089402585E+03  0.00000000000E+00 0. -1.
      99926    2    1    2    0    0  0.00000000000E+00  0.00000000000E+00 -0.39189094714E+03  0.60989710456E+03  0.46732853937E+03 0.  0.
      99925    2    3    3    0    0  0.11354922233E+03  0.23552946170E+02 -0.30270544067E+03  0.41741404082E+03  0.26297477160E+03 0.  0.
         25    1    4    4    0    0  0.67834376908E+02  0.15298510323E+02 -0.99480075019E+02  0.17429670259E+03  0.12509000000E+03 0.  0.
         25    1    4    4    0    0  0.45714845421E+02  0.82544358477E+01 -0.20322536565E+03  0.24311733823E+03  0.12509000000E+03 0.  0.
         25    1    3    3    0    0 -0.11354922233E+03 -0.23552946170E+02 -0.89185506468E+02  0.19248306375E+03  0.12509000000E+03 0.  0.
<mgrwt>
<rscale>  2 0.46732854E+03</rscale>
<asrwt>0</asrwt>
<pdfrwt beam="1">  1       21 0.16029865E-01 0.46732854E+03</pdfrwt>
<pdfrwt beam="2">  1       21 0.73660886E-01 0.46732854E+03</pdfrwt>
<totfact> 0.52745545E+04</totfact>
</mgrwt>
</event>
<event>
 7    0  0.4770865E-002  0.4454115E+03  0.7546771E-02  0.1029099E+00
         21   -1    0    0  502  501  0.00000000000E+00  0.00000000000E+00  0.66684061106E+02  0.66684061106E+02  0.00000000000E+00 0.  1.
         21   -1    0    0  501  502 -0.00000000000E+00 -0.00000000000E+00 -0.74377374878E+03  0.74377374878E+03  0.00000000000E+00 0.  1.
      99926    2    1    2    0    0 -0.71054273576E-14  0.00000000000E+00 -0.67708968768E+03  0.81045780989E+03  0.44541151361E+03 0.  0.
      99925    2    3    3    0    0 -0.39333512347E+02 -0.91369443479E+02 -0.48434526329E+03  0.56007126547E+03  0.26304750129E+03 0.  0.
         25    1    4    4    0    0 -0.41110461590E+02 -0.82598386817E+02 -0.25345294407E+03  0.29731879610E+03  0.12509000000E+03 0.  0.
         25    1    3    3    0    0  0.39333512347E+02  0.91369443479E+02 -0.19274442438E+03  0.25038654442E+03  0.12509000000E+03 0.  0.
         25    1    4    4    0    0  0.17769492424E+01 -0.87710566616E+01 -0.23089231923E+03  0.26275246937E+03  0.12509000000E+03 0.  0.
<mgrwt>
<rscale>  2 0.44541151E+03</rscale>
<asrwt>0</asrwt>
<pdfrwt beam="1">  1       21 0.98064795E-02 0.44541151E+03</pdfrwt>
<pdfrwt beam="2">  1       21 0.10937849E+00 0.44541151E+03</pdfrwt>
<totfact> 0.50993107E+04</totfact>
</mgrwt>
</event>
<event>
 7    0  0.4770865E-002  0.4626697E+03  0.7546771E-02  0.1024010E+00
         21   -1    0    0  502  501  0.00000000000E+00  0.00000000000E+00  0.40240775357E+02  0.40240775357E+02  0.00000000000E+00 0. -1.
         21   -1    0    0  501  502 -0.00000000000E+00 -0.00000000000E+00 -0.13298903799E+04  0.13298903799E+04  0.00000000000E+00 0. -1.
      99926    2    1    2    0    0 -0.71054273576E-14  0.14210854715E-13 -0.12896496046E+04  0.13701311553E+04  0.46266973114E+03 0.  0.
      99925    2    3    3    0    0 -0.44903482774E+02  0.95821326875E+02 -0.63651853858E+03  0.69676220225E+03  0.26291380161E+03 0.  0.
         25    1    4    4    0    0 -0.44589698779E+02  0.14551948651E+02 -0.32424631720E+03  0.35068958177E+03  0.12509000000E+03 0.  0.
         25    1    4    4    0    0 -0.31378399434E+00  0.81269378225E+02 -0.31227222139E+03  0.34607262048E+03  0.12509000000E+03 0.  0.
         25    1    3    3    0    0  0.44903482774E+02 -0.95821326875E+02 -0.65313106598E+03  0.67336895303E+03  0.12509000000E+03 0.  0.
<mgrwt>
<rscale>  2 0.46266973E+03</rscale>
<asrwt>0</asrwt>
<pdfrwt beam="1">  1       21 0.59177627E-02 0.46266973E+03</pdfrwt>
<pdfrwt beam="2">  1       21 0.19557206E+00 0.46266973E+03</pdfrwt>
<totfact> 0.25579783E+04</totfact>
</mgrwt>
</event>
<event>
 7    0  0.4770865E-002  0.4167704E+03  0.7546771E-02  0.1038123E+00
         21   -1    0    0  502  501  0.00000000000E+00  0.00000000000E+00  0.66806971443E+03  0.66806971443E+03  0.00000000000E+00 0.  1.
         21   -1    0    0  501  502 -0.00000000000E+00 -0.00000000000E+00 -0.64999799122E+02  0.64999799122E+02  0.00000000000E+00 0.  1.
      99926    2    1    2    0    0  0.71054273576E-14  0.00000000000E+00  0.60306991531E+03  0.73306951355E+03  0.41677042715E+03 0.  0.
      99925    2    3    3    0    0 -0.38848007574E+02 -0.58892937381E+02  0.41962238087E+03  0.50009300882E+03  0.26274042167E+03 0.  0.
         25    1    3    3    0    0  0.38848007574E+02  0.58892937381E+02  0.18344753444E+03  0.23297650473E+03  0.12509000000E+03 0.  0.
         25    1    4    4    0    0  0.13535396843E+02 -0.26940225645E+02  0.15877762923E+03  0.20436933813E+03  0.12509000000E+03 0.  0.
         25    1    4    4    0    0 -0.52383404417E+02 -0.31952711736E+02  0.26084475164E+03  0.29572367069E+03  0.12509000000E+03 0.  0.
<mgrwt>
<rscale>  2 0.41677043E+03</rscale>
<asrwt>0</asrwt>
<pdfrwt beam="1">  1       21 0.98245542E-01 0.41677043E+03</pdfrwt>
<pdfrwt beam="2">  1       21 0.95587944E-02 0.41677043E+03</pdfrwt>
<totfact> 0.69904589E+04</totfact>
</mgrwt>
</event>
<event>
 6    0  0.4770865E-002  0.4699288E+03  0.7546771E-02  0.1021940E+00
         21   -1    0    0  502  501  0.00000000000E+00  0.00000000000E+00  0.18058976946E+03  0.18058976946E+03  0.00000000000E+00 0.  1.
         21   -1    0    0  501  502 -0.00000000000E+00 -0.00000000000E+00 -0.30571095658E+03  0.30571095658E+03  0.00000000000E+00 0.  1.
      99926    2    1    2    0    0  0.71054273576E-14  0.14210854715E-13 -0.12512118712E+03  0.48630072605E+03  0.46992880811E+03 0.  0.
         25    1    3    3    0    0 -0.47761889678E+02 -0.48577505836E+02  0.89543786591E+00  0.14244045102E+03  0.12509000000E+03 0.  0.
         25    1    3    3    0    0  0.57819253010E+02  0.11339595988E+03 -0.76789030409E+02  0.19428271417E+03  0.12509000000E+03 0.  0.
         25    1    3    3    0    0 -0.10057363332E+02 -0.64818454044E+02 -0.49227594575E+02  0.14957756085E+03  0.12509000000E+03 0.  0.
<mgrwt>
<rscale>  2 0.46992881E+03</rscale>
<asrwt>0</asrwt>
<pdfrwt beam="1">  1       21 0.26557319E-01 0.46992881E+03</pdfrwt>
<pdfrwt beam="2">  1       21 0.44957493E-01 0.46992881E+03</pdfrwt>
<totfact> 0.58944529E+04</totfact>
</mgrwt>
</event>
<event>
 7    0  0.4770865E-002  0.4529915E+03  0.7546771E-02  0.1026834E+00
         21   -1    0    0  502  501  0.00000000000E+00  0.00000000000E+00  0.43105102461E+03  0.43105102461E+03  0.00000000000E+00 0.  1.
         21   -1    0    0  501  502 -0.00000000000E+00 -0.00000000000E+00 -0.11901220599E+03  0.11901220599E+03  0.00000000000E+00 0.  1.
      99926    2    1    2    0    0  0.00000000000E+00 -0.88817841970E-15  0.31203881862E+03  0.55006323060E+03  0.45299153782E+03 0.  0.
      99925    2    3    3    0    0 -0.20959909588E+02  0.47066165694E+01  0.32928872103E+03  0.42197522460E+03  0.26300296259E+03 0.  0.
         25    1    4    4    0    0 -0.50300597016E+02  0.88593982922E+01  0.16029396010E+03  0.20964327021E+03  0.12509000000E+03 0.  0.
         25    1    3    3    0    0  0.20959909588E+02 -0.47066165694E+01 -0.17249902404E+02  0.12808800601E+03  0.12509000000E+03 0.  0.
         25    1    4    4    0    0  0.29340687428E+02 -0.41527817228E+01  0.16899476093E+03  0.21233195439E+03  0.12509000000E+03 0.  0.
<mgrwt>
<rscale>  2 0.45299154E+03</rscale>
<asrwt>0</asrwt>
<pdfrwt beam="1">  1       21 0.63389856E-01 0.45299154E+03</pdfrwt>
<pdfrwt beam="2">  1       21 0.17501795E-01 0.45299154E+03</pdfrwt>
<totfact> 0.62855206E+04</totfact>
</mgrwt>
</event>
<event>
 7    0  0.4770865E-002  0.4651581E+03  0.7546771E-02  0.1023296E+00
         21   -1    0    0  502  501  0.00000000000E+00  0.00000000000E+00  0.44422635542E+02  0.44422635542E+02  0.00000000000E+00 0.  1.
         21   -1    0    0  501  502 -0.00000000000E+00 -0.00000000000E+00 -0.12176902691E+04  0.12176902691E+04  0.00000000000E+00 0.  1.
      99926    2    1    2    0    0  0.00000000000E+00 -0.71054273576E-14 -0.11732676336E+04  0.12621129046E+04  0.46515808507E+03 0.  0.
      99925    2    3    3    0    0 -0.87549527370E+02  0.36406339116E+02 -0.52329522550E+03  0.59345605647E+03  0.26336639243E+03 0.  0.
         25    1    4    4    0    0 -0.59475965174E+02 -0.93763076708E+00 -0.33603978213E+03  0.36346734772E+03  0.12509000000E+03 0.  0.
         25    1    4    4    0    0 -0.28073562196E+02  0.37343969883E+02 -0.18725544338E+03  0.22998870876E+03  0.12509000000E+03 0.  0.
         25    1    3    3    0    0  0.87549527370E+02 -0.36406339116E+02 -0.64997240805E+03  0.66865684817E+03  0.12509000000E+03 0.  0.
<mgrwt>
<rscale>  2 0.46515809E+03</rscale>
<asrwt>0</asrwt>
<pdfrwt beam="1">  1       21 0.65327406E-02 0.46515809E+03</pdfrwt>
<pdfrwt beam="2">  1       21 0.17907210E+00 0.46515809E+03</pdfrwt>
<totfact> 0.27958320E+04</totfact>
</mgrwt>
</event>
<event>
 7    0  0.4770865E-002  0.4272848E+03  0.7546771E-02  0.1034721E+00
         21   -1    0    0  502  501  0.00000000000E+00  0.00000000000E+00  0.12806826210E+03  0.12806826210E+03  0.00000000000E+00 0. -1.
         21   -1    0    0  501  502 -0.00000000000E+00 -0.00000000000E+00 -0.35639651881E+03  0.35639651881E+03  0.00000000000E+00 0. -1.
      99926    2    1    2    0    0 -0.71054273576E-14  0.00000000000E+00 -0.22832825671E+03  0.48446478092E+03  0.42728483607E+03 0.  0.
      99925    2    3    3    0    0  0.48062667459E+02 -0.66336455355E+02 -0.17169883698E+03  0.32457436659E+03  0.26297810464E+03 0.  0.
         25    1    3    3    0    0 -0.48062667459E+02  0.66336455355E+02 -0.56629419733E+02  0.15989041432E+03  0.12509000000E+03 0.  0.
         25    1    4    4    0    0  0.49847979005E+02 -0.64763364163E+02 -0.80286262512E+02  0.16962460434E+03  0.12509000000E+03 0.  0.
         25    1    4    4    0    0 -0.17853115460E+01 -0.15730911918E+01 -0.91412574465E+02  0.15494976226E+03  0.12509000000E+03 0.  0.
<mgrwt>
<rscale>  2 0.42728484E+03</rscale>
<asrwt>0</asrwt>
<pdfrwt beam="1">  1       21 0.18833568E-01 0.42728484E+03</pdfrwt>
<pdfrwt beam="2">  1       21 0.52411253E-01 0.42728484E+03</pdfrwt>
<totfact> 0.83235020E+04</totfact>
</mgrwt>
</event>
<event>
 7    0  0.4770865E-002  0.4496886E+03  0.7546771E-02  0.1027815E+00
         21   -1    0    0  502  501  0.00000000000E+00  0.00000000000E+00  0.33162324930E+03  0.33162324930E+03  0.00000000000E+00 0. -1.
         21   -1    0    0  501  502 -0.00000000000E+00 -0.00000000000E+00 -0.15244700270E+03  0.15244700270E+03  0.00000000000E+00 0. -1.
      99926    2    1    2    0    0  0.00000000000E+00  0.00000000000E+00  0.17917624660E+03  0.48407025200E+03  0.44968864955E+03 0.  0.
      99925    2    3    3    0    0 -0.29280456246E+02 -0.53830099864E+02  0.17516972653E+02  0.27067799881E+03  0.26306788086E+03 0.  0.
         25    1    4    4    0    0 -0.53179502885E+01  0.35135923677E+01  0.34640124946E+02  0.12995411607E+03  0.12509000000E+03 0.  0.
         25    1    3    3    0    0  0.29280456246E+02  0.53830099864E+02  0.16165927394E+03  0.21339225319E+03  0.12509000000E+03 0.  0.
         25    1    4    4    0    0 -0.23962505958E+02 -0.57343692232E+02 -0.17123152293E+02  0.14072388275E+03  0.12509000000E+03 0.  0.
<mgrwt>
<rscale>  2 0.44968865E+03</rscale>
<asrwt>0</asrwt>
<pdfrwt beam="1">  1       21 0.48768125E-01 0.44968865E+03</pdfrwt>
<pdfrwt beam="2">  1       21 0.22418677E-01 0.44968865E+03</pdfrwt>
<totfact> 0.69280400E+04</totfact>
</mgrwt>
</event>
<event>
 7    0  0.4770865E-002  0.4541745E+03  0.7546771E-02  0.1026484E+00
         21   -1    0    0  502  501  0.00000000000E+00  0.00000000000E+00  0.12723489500E+03  0.12723489500E+03  0.00000000000E+00 0.  1.
         21   -1    0    0  501  502 -0.00000000000E+00 -0.00000000000E+00 -0.40530256822E+03  0.40530256822E+03  0.00000000000E+00 0.  1.
      99926    2    1    2    0    0  0.14210854715E-13  0.17763568394E-14 -0.27806767322E+03  0.53253746322E+03  0.45417454667E+03 0.  0.
      99925    2    3    3    0    0 -0.96549807611E+02 -0.80423702520E+01 -0.24184748688E+03  0.37022309211E+03  0.26303685285E+03 0.  0.
         25    1    3    3    0    0  0.96549807611E+02  0.80423702520E+01 -0.36220186341E+02  0.16231437111E+03  0.12509000000E+03 0.  0.
         25    1    4    4    0    0 -0.66596745845E+02  0.21058113846E+02 -0.16109327139E+03  0.21558553037E+03  0.12509000000E+03 0.  0.
         25    1    4    4    0    0 -0.29953061766E+02 -0.29100484098E+02 -0.80754215490E+02  0.15463756175E+03  0.12509000000E+03 0.  0.
<mgrwt>
<rscale>  2 0.45417455E+03</rscale>
<asrwt>0</asrwt>
<pdfrwt beam="1">  1       21 0.18711014E-01 0.45417455E+03</pdfrwt>
<pdfrwt beam="2">  1       21 0.59603319E-01 0.45417455E+03</pdfrwt>
<totfact> 0.63448954E+04</totfact>
</mgrwt>
</event>
<event>
 7    0  0.4770865E-002  0.4560955E+03  0.7546771E-02  0.1025920E+00
         21   -1    0    0  502  501  0.00000000000E+00  0.00000000000E+00  0.31600124419E+02  0.31600124419E+02  0.00000000000E+00 0. -1.
         21   -1    0    0  501  502 -0.00000000000E+00 -0.00000000000E+00 -0.16457456506E+04  0.16457456506E+04  0.00000000000E+00 0. -1.
      99926    2    1    2    0    0  0.00000000000E+00  0.00000000000E+00 -0.16141455262E+04  0.16773457750E+04  0.45609546072E+03 0.  0.
      99925    2    3    3    0    0  0.43872275823E+02  0.90603366359E+02 -0.12122719962E+04  0.12445830354E+04  0.26315355350E+03 0.  0.
         25    1    4    4    0    0 -0.15255529927E+02  0.60583177641E+02 -0.63327232133E+03  0.64852478261E+03  0.12509000000E+03 0.  0.
         25    1    4    4    0    0  0.59127805750E+02  0.30020188718E+02 -0.57899967487E+03  0.59605825281E+03  0.12509000000E+03 0.  0.
         25    1    3    3    0    0 -0.43872275823E+02 -0.90603366359E+02 -0.40187353000E+03  0.43276273962E+03  0.12509000000E+03 0.  0.
<mgrwt>
<rscale>  2 0.45609546E+03</rscale>
<asrwt>0</asrwt>
<pdfrwt beam="1">  1       21 0.46470767E-02 0.45609546E+03</pdfrwt>
<pdfrwt beam="2">  1       21 0.24202144E+00 0.45609546E+03</pdfrwt>
<totfact> 0.19570144E+04</totfact>
</mgrwt>
</event>
<event>
 7    0  0.4770865E-002  0.4519826E+03  0.7546771E-02  0.1027132E+00
         21   -1    0    0  502  501  0.00000000000E+00  0.00000000000E+00  0.61535395282E+03  0.61535395282E+03  0.00000000000E+00 0. -1.
         21   -1    0    0  501  502 -0.00000000000E+00 -0.00000000000E+00 -0.82996230490E+02  0.82996230490E+02  0.00000000000E+00 0. -1.
      99926    2    1    2    0    0  0.00000000000E+00  0.14210854715E-13  0.53235772233E+03  0.69835018331E+03  0.45198255940E+03 0.  0.
      99925    2    3    3    0    0 -0.41481076310E+02  0.10216866748E+03  0.32718019329E+03  0.43395569996E+03  0.26289076502E+03 0.  0.
         25    1    4    4    0    0  0.16639224397E+02  0.32620754509E+02  0.14042203870E+03  0.19159027759E+03  0.12509000000E+03 0.  0.
         25    1    3    3    0    0  0.41481076310E+02 -0.10216866748E+03  0.20517752903E+03  0.26439448335E+03  0.12509000000E+03 0.  0.
         25    1    4    4    0    0 -0.58120300706E+02  0.69547912970E+02  0.18675815460E+03  0.24236542237E+03  0.12509000000E+03 0.  0.
<mgrwt>
<rscale>  2 0.45198256E+03</rscale>
<asrwt>0</asrwt>
<pdfrwt beam="1">  1       21 0.90493226E-01 0.45198256E+03</pdfrwt>
<pdfrwt beam="2">  1       21 0.12205328E-01 0.45198256E+03</pdfrwt>
<totfact> 0.54269969E+04</totfact>
</mgrwt>
</event>
<event>
 7    0  0.4770865E-002  0.4476582E+03  0.7546771E-02  0.1028423E+00
         21   -1    0    0  502  501  0.00000000000E+00  0.00000000000E+00  0.14487910621E+03  0.14487910621E+03  0.00000000000E+00 0. -1.
         21   -1    0    0  501  502 -0.00000000000E+00 -0.00000000000E+00 -0.34580184853E+03  0.34580184853E+03  0.00000000000E+00 0. -1.
      99926    2    1    2    0    0 -0.35527136788E-14  0.00000000000E+00 -0.20092274232E+03  0.49068095474E+03  0.44765818541E+03 0.  0.
      99925    2    3    3    0    0  0.26100555771E+02  0.15881113768E+02 -0.15883340379E+02  0.26524684650E+03  0.26300220587E+03 0.  0.
         25    1    3    3    0    0 -0.26100555771E+02 -0.15881113768E+02 -0.18503940195E+03  0.22543410824E+03  0.12509000000E+03 0.  0.
         25    1    4    4    0    0  0.38821123136E+02 -0.18262740050E+02  0.92131066086E+01  0.13256318007E+03  0.12509000000E+03 0.  0.
         25    1    4    4    0    0 -0.12720567365E+02  0.34143853819E+02 -0.25096446988E+02  0.13268366644E+03  0.12509000000E+03 0.  0.
<mgrwt>
<rscale>  2 0.44765819E+03</rscale>
<asrwt>0</asrwt>
<pdfrwt beam="1">  1       21 0.21305751E-01 0.44765819E+03</pdfrwt>
<pdfrwt beam="2">  1       21 0.50853212E-01 0.44765819E+03</pdfrwt>
<totfact> 0.69917454E+04</totfact>
</mgrwt>
</event>
<event>
 7    0  0.4770865E-002  0.4477398E+03  0.7546771E-02  0.1028398E+00
         21   -1    0    0  502  501  0.00000000000E+00  0.00000000000E+00  0.13265685292E+03  0.13265685292E+03  0.00000000000E+00 0.  1.
         21   -1    0    0  501  502 -0.00000000000E+00 -0.00000000000E+00 -0.37779985778E+03  0.37779985778E+03  0.00000000000E+00 0.  1.
      99926    2    1    2    0    0  0.71054273576E-14  0.00000000000E+00 -0.24514300486E+03  0.51045671069E+03  0.44773983591E+03 0.  0.
      99925    2    3    3    0    0  0.40521871006E+02  0.55776058277E+02 -0.63360611723E+02  0.27927423458E+03  0.26310936942E+03 0.  0.
         25    1    4    4    0    0  0.30782564091E+02 -0.96755591063E+01 -0.43835665076E+02  0.13641941331E+03  0.12509000000E+03 0.  0.
         25    1    3    3    0    0 -0.40521871006E+02 -0.55776058277E+02 -0.18178239314E+03  0.23118247611E+03  0.12509000000E+03 0.  0.
         25    1    4    4    0    0  0.97393069157E+01  0.65451617383E+02 -0.19524946647E+02  0.14285482127E+03  0.12509000000E+03 0.  0.
<mgrwt>
<rscale>  2 0.44773984E+03</rscale>
<asrwt>0</asrwt>
<pdfrwt beam="1">  1       21 0.19508361E-01 0.44773984E+03</pdfrwt>
<pdfrwt beam="2">  1       21 0.55558802E-01 0.44773984E+03</pdfrwt>
<totfact> 0.68398460E+04</totfact>
</mgrwt>
</event>
<event>
 7    0  0.4770865E-002  0.4513246E+03  0.7546771E-02  0.1027328E+00
         21   -1    0    0  502  501  0.00000000000E+00  0.00000000000E+00  0.46559054851E+03  0.46559054851E+03  0.00000000000E+00 0.  1.
         21   -1    0    0  501  502 -0.00000000000E+00 -0.00000000000E+00 -0.10937391934E+03  0.10937391934E+03  0.00000000000E+00 0.  1.
      99926    2    1    2    0    0  0.00000000000E+00  0.00000000000E+00  0.35621662917E+03  0.57496446785E+03  0.45132455329E+03 0.  0.
      99925    2    3    3    0    0 -0.84350723360E+02  0.57454918631E+02  0.27621949742E+03  0.39478910496E+03  0.26295458626E+03 0.  0.
         25    1    4    4    0    0 -0.69265200554E+02  0.55962235076E+02  0.17764017688E+03  0.23480413179E+03  0.12509000000E+03 0.  0.
         25    1    3    3    0    0  0.84350723360E+02 -0.57454918631E+02  0.79997131744E+02  0.18017536289E+03  0.12509000000E+03 0.  0.
         25    1    4    4    0    0 -0.15085522805E+02  0.14926835548E+01  0.98579320543E+02  0.15998497317E+03  0.12509000000E+03 0.  0.
<mgrwt>
<rscale>  2 0.45132455E+03</rscale>
<asrwt>0</asrwt>
<pdfrwt beam="1">  1       21 0.68469198E-01 0.45132455E+03</pdfrwt>
<pdfrwt beam="2">  1       21 0.16084400E-01 0.45132455E+03</pdfrwt>
<totfact> 0.62029411E+04</totfact>
</mgrwt>
</event>
<event>
 7    0  0.4770865E-002  0.4570306E+03  0.7546771E-02  0.1025646E+00
         21   -1    0    0  502  501  0.00000000000E+00  0.00000000000E+00  0.98049518664E+03  0.98049518664E+03  0.00000000000E+00 0. -1.
         21   -1    0    0  501  502 -0.00000000000E+00 -0.00000000000E+00 -0.53258020153E+02  0.53258020153E+02  0.00000000000E+00 0. -1.
      99926    2    1    2    0    0  0.00000000000E+00 -0.71054273576E-14  0.92723716649E+03  0.10337532068E+04  0.45703055657E+03 0.  0.
      99925    2    3    3    0    0 -0.84882618883E+02 -0.46474153326E+02  0.72314224843E+03  0.77555338187E+03  0.26302743345E+03 0.  0.
         25    1    4    4    0    0 -0.37712870198E+02 -0.52693049491E+01  0.45082583588E+03  0.46940544154E+03  0.12509000000E+03 0.  0.
         25    1    4    4    0    0 -0.47169748685E+02 -0.41204848377E+02  0.27231641255E+03  0.30614794033E+03  0.12509000000E+03 0.  0.
         25    1    3    3    0    0  0.84882618883E+02  0.46474153326E+02  0.20409491806E+03  0.25819982493E+03  0.12509000000E+03 0.  0.
<mgrwt>
<rscale>  2 0.45703056E+03</rscale>
<asrwt>0</asrwt>
<pdfrwt beam="1">  1       21 0.14419046E+00 0.45703056E+03</pdfrwt>
<pdfrwt beam="2">  1       21 0.78320624E-02 0.45703056E+03</pdfrwt>
<totfact> 0.37284703E+04</totfact>
</mgrwt>
</event>
<event>
 7    0  0.4770865E-002  0.4626295E+03  0.7546771E-02  0.1024021E+00
         21   -1    0    0  502  501  0.00000000000E+00  0.00000000000E+00  0.73512873745E+03  0.73512873745E+03  0.00000000000E+00 0.  1.
         21   -1    0    0  501  502 -0.00000000000E+00 -0.00000000000E+00 -0.72785238981E+02  0.72785238981E+02  0.00000000000E+00 0.  1.
      99926    2    1    2    0    0  0.00000000000E+00 -0.71054273576E-14  0.66234349847E+03  0.80791397643E+03  0.46262953143E+03 0.  0.
      99925    2    3    3    0    0  0.10581158185E+03  0.49599294859E+02  0.36491177409E+03  0.46473862814E+03  0.26299279213E+03 0.  0.
         25    1    4    4    0    0  0.68607992311E+02  0.45462722354E+02  0.24680392419E+03  0.28867559791E+03  0.12509000000E+03 0.  0.
         25    1    4    4    0    0  0.37203589542E+02  0.41365725050E+01  0.11810784989E+03  0.17606303023E+03  0.12509000000E+03 0.  0.
         25    1    3    3    0    0 -0.10581158185E+03 -0.49599294859E+02  0.29743172438E+03  0.34317534829E+03  0.12509000000E+03 0.  0.
<mgrwt>
<rscale>  2 0.46262953E+03</rscale>
<asrwt>0</asrwt>
<pdfrwt beam="1">  1       21 0.10810716E+00 0.46262953E+03</pdfrwt>
<pdfrwt beam="2">  1       21 0.10703712E-01 0.46262953E+03</pdfrwt>
<totfact> 0.44650484E+04</totfact>
</mgrwt>
</event>
<event>
 7    0  0.4770865E-002  0.4538422E+03  0.7546771E-02  0.1026582E+00
         21   -1    0    0  502  501  0.00000000000E+00  0.00000000000E+00  0.92165684629E+02  0.92165684629E+02  0.00000000000E+00 0.  1.
         21   -1    0    0  501  502 -0.00000000000E+00 -0.00000000000E+00 -0.55870243786E+03  0.55870243786E+03  0.00000000000E+00 0.  1.
      99926    2    1    2    0    0  0.00000000000E+00  0.00000000000E+00 -0.46653675323E+03  0.65086812249E+03  0.45384223113E+03 0.  0.
      99925    2    3    3    0    0 -0.55113327328E+02  0.65037166726E+02 -0.39821778993E+03  0.48478892225E+03  0.26301250735E+03 0.  0.
         25    1    4    4    0    0 -0.84752841567E+01  0.26306596333E+02 -0.25404725122E+03  0.28451956243E+03  0.12509000000E+03 0.  0.
         25    1    4    4    0    0 -0.46638043172E+02  0.38730570392E+02 -0.14417053871E+03  0.20026935982E+03  0.12509000000E+03 0.  0.
         25    1    3    3    0    0  0.55113327328E+02 -0.65037166726E+02 -0.68318963309E+02  0.16607920024E+03  0.12509000000E+03 0.  0.
<mgrwt>
<rscale>  2 0.45384223E+03</rscale>
<asrwt>0</asrwt>
<pdfrwt beam="1">  1       21 0.13553777E-01 0.45384223E+03</pdfrwt>
<pdfrwt beam="2">  1       21 0.82162123E-01 0.45384223E+03</pdfrwt>
<totfact> 0.56162699E+04</totfact>
</mgrwt>
</event>
<event>
 7    0  0.4770865E-002  0.4393136E+03  0.7546771E-02  0.1030958E+00
         21   -1    0    0  502  501  0.00000000000E+00  0.00000000000E+00  0.14537329410E+03  0.14537329410E+03  0.00000000000E+00 0.  1.
         21   -1    0    0  501  502 -0.00000000000E+00 -0.00000000000E+00 -0.33189796221E+03  0.33189796221E+03  0.00000000000E+00 0.  1.
      99926    2    1    2    0    0  0.00000000000E+00  0.00000000000E+00 -0.18652466811E+03  0.47727125631E+03  0.43931355577E+03 0.  0.
      99925    2    3    3    0    0 -0.62340660824E+02 -0.37874649828E+02 -0.18941757852E+03  0.33243782052E+03  0.26327749309E+03 0.  0.
         25    1    3    3    0    0  0.62340660824E+02  0.37874649828E+02  0.28929104126E+01  0.14483343579E+03  0.12509000000E+03 0.  0.
         25    1    4    4    0    0  0.68905413584E+00 -0.44718217621E+02 -0.87396528442E+02  0.15901526677E+03  0.12509000000E+03 0.  0.
         25    1    4    4    0    0 -0.63029714960E+02  0.68435677930E+01 -0.10202105008E+03  0.17342255375E+03  0.12509000000E+03 0.  0.
<mgrwt>
<rscale>  2 0.43931356E+03</rscale>
<asrwt>0</asrwt>
<pdfrwt beam="1">  1       21 0.21378426E-01 0.43931356E+03</pdfrwt>
<pdfrwt beam="2">  1       21 0.48808523E-01 0.43931356E+03</pdfrwt>
<totfact> 0.75922006E+04</totfact>
</mgrwt>
</event>
<event>
 7    0  0.4770865E-002  0.4141749E+03  0.7546771E-02  0.1038979E+00
         21   -1    0    0  502  501  0.00000000000E+00  0.00000000000E+00  0.52550463658E+02  0.52550463658E+02  0.00000000000E+00 0. -1.
         21   -1    0    0  501  502 -0.00000000000E+00 -0.00000000000E+00 -0.81607673927E+03  0.81607673927E+03  0.00000000000E+00 0. -1.
      99926    2    1    2    0    0  0.00000000000E+00 -0.35527136788E-14 -0.76352627562E+03  0.86862720293E+03  0.41417489556E+03 0.  0.
      99925    2    3    3    0    0  0.60223705209E+02  0.16258038501E+02 -0.55866728513E+03  0.62062330665E+03  0.26300748051E+03 0.  0.
         25    1    3    3    0    0 -0.60223705209E+02 -0.16258038501E+02 -0.20485899049E+03  0.24800389628E+03  0.12509000000E+03 0.  0.
         25    1    4    4    0    0  0.13330085010E+02  0.44625204049E+02 -0.28963081513E+03  0.31890847774E+03  0.12509000000E+03 0.  0.
         25    1    4    4    0    0  0.46893620199E+02 -0.28367165548E+02 -0.26903647000E+03  0.30171482891E+03  0.12509000000E+03 0.  0.
<mgrwt>
<rscale>  2 0.41417490E+03</rscale>
<asrwt>0</asrwt>
<pdfrwt beam="1">  1       21 0.77280094E-02 0.41417490E+03</pdfrwt>
<pdfrwt beam="2">  1       21 0.12001129E+00 0.41417490E+03</pdfrwt>
<totfact> 0.62261344E+04</totfact>
</mgrwt>
</event>
<event>
 7    0  0.4770865E-002  0.4501847E+03  0.7546771E-02  0.1027667E+00
         21   -1    0    0  502  501  0.00000000000E+00  0.00000000000E+00  0.87725916833E+02  0.87725916833E+02  0.00000000000E+00 0.  1.
         21   -1    0    0  501  502 -0.00000000000E+00 -0.00000000000E+00 -0.57755532939E+03  0.57755532939E+03  0.00000000000E+00 0.  1.
      99926    2    1    2    0    0  0.00000000000E+00  0.00000000000E+00 -0.48982941255E+03  0.66528124622E+03  0.45018472116E+03 0.  0.
      99925    2    3    3    0    0  0.68719883816E+02  0.82638655097E+02 -0.33250834920E+03  0.43735802489E+03  0.26299937243E+03 0.  0.
         25    1    4    4    0    0  0.34921814222E+02  0.49438463478E+01 -0.12209989427E+03  0.17832517211E+03  0.12509000000E+03 0.  0.
         25    1    3    3    0    0 -0.68719883816E+02 -0.82638655097E+02 -0.15732106335E+03  0.22792322133E+03  0.12509000000E+03 0.  0.
         25    1    4    4    0    0  0.33798069595E+02  0.77694808749E+02 -0.21040845493E+03  0.25903285278E+03  0.12509000000E+03 0.  0.
<mgrwt>
<rscale>  2 0.45018472E+03</rscale>
<asrwt>0</asrwt>
<pdfrwt beam="1">  1       21 0.12900870E-01 0.45018472E+03</pdfrwt>
<pdfrwt beam="2">  1       21 0.84934606E-01 0.45018472E+03</pdfrwt>
<totfact> 0.56960334E+04</totfact>
</mgrwt>
</event>
<event>
 7    0  0.4770865E-002  0.4529577E+03  0.7546771E-02  0.1026844E+00
         21   -1    0    0  502  501  0.00000000000E+00  0.00000000000E+00  0.77742768995E+02  0.77742768995E+02  0.00000000000E+00 0.  1.
         21   -1    0    0  501  502 -0.00000000000E+00 -0.00000000000E+00 -0.65977426338E+03  0.65977426338E+03  0.00000000000E+00 0.  1.
      99926    2    1    2    0    0  0.00000000000E+00  0.00000000000E+00 -0.58203149439E+03  0.73751703238E+03  0.45295773819E+03 0.  0.
      99925    2    3    3    0    0 -0.10689495623E+03  0.24261827993E+02 -0.33572252448E+03  0.44031207831E+03  0.26296377108E+03 0.  0.
         25    1    4    4    0    0 -0.69685356041E+02  0.32389512470E+02 -0.12754426124E+03  0.19447410120E+03  0.12509000000E+03 0.  0.
         25    1    4    4    0    0 -0.37209600188E+02 -0.81276844764E+01 -0.20817826325E+03  0.24583797711E+03  0.12509000000E+03 0.  0.
         25    1    3    3    0    0  0.10689495623E+03 -0.24261827993E+02 -0.24630896990E+03  0.29720495406E+03  0.12509000000E+03 0.  0.
<mgrwt>
<rscale>  2 0.45295774E+03</rscale>
<asrwt>0</asrwt>
<pdfrwt beam="1">  1       21 0.11432760E-01 0.45295774E+03</pdfrwt>
<pdfrwt beam="2">  1       21 0.97025626E-01 0.45295774E+03</pdfrwt>
<totfact> 0.51738655E+04</totfact>
</mgrwt>
</event>
<event>
 7    0  0.4770865E-002  0.4467608E+03  0.7546771E-02  0.1028692E+00
         21   -1    0    0  502  501  0.00000000000E+00  0.00000000000E+00  0.47905587493E+03  0.47905587493E+03  0.00000000000E+00 0.  1.
         21   -1    0    0  501  502 -0.00000000000E+00 -0.00000000000E+00 -0.10416073167E+03  0.10416073167E+03  0.00000000000E+00 0.  1.
      99926    2    1    2    0    0 -0.44408920985E-15 -0.14210854715E-13  0.37489514327E+03  0.58321660660E+03  0.44676083285E+03 0.  0.
      99925    2    3    3    0    0  0.32373949770E+01  0.10133388586E+03  0.27495773396E+03  0.39370663053E+03  0.26291465976E+03 0.  0.
         25    1    4    4    0    0  0.63583811275E+01  0.85790352144E+02  0.18227388295E+03  0.23721654672E+03  0.12509000000E+03 0.  0.
         25    1    3    3    0    0 -0.32373949770E+01 -0.10133388586E+03  0.99937409313E+02  0.18950997607E+03  0.12509000000E+03 0.  0.
         25    1    4    4    0    0 -0.31209861505E+01  0.15543533711E+02  0.92683851001E+02  0.15649008381E+03  0.12509000000E+03 0.  0.
<mgrwt>
<rscale>  2 0.44676083E+03</rscale>
<asrwt>0</asrwt>
<pdfrwt beam="1">  1       21 0.70449393E-01 0.44676083E+03</pdfrwt>
<pdfrwt beam="2">  1       21 0.15317755E-01 0.44676083E+03</pdfrwt>
<totfact> 0.63776718E+04</totfact>
</mgrwt>
</event>
<event>
 7    0  0.4770865E-002  0.4486002E+03  0.7546771E-02  0.1028140E+00
         21   -1    0    0  502  501  0.00000000000E+00  0.00000000000E+00  0.97815898119E+03  0.97815898119E+03  0.00000000000E+00 0.  1.
         21   -1    0    0  501  502 -0.00000000000E+00 -0.00000000000E+00 -0.51433899934E+02  0.51433899934E+02  0.00000000000E+00 0.  1.
      99926    2    1    2    0    0  0.00000000000E+00  0.17763568394E-14  0.92672508126E+03  0.10295928811E+04  0.44860018350E+03 0.  0.
      99925    2    3    3    0    0  0.83098496740E+02 -0.12836702210E+02  0.43445410732E+03  0.51476440390E+03  0.26298646176E+03 0.  0.
         25    1    4    4    0    0  0.33908151776E+02 -0.30044031386E+02  0.27510955274E+03  0.30558988971E+03  0.12509000000E+03 0.  0.
         25    1    3    3    0    0 -0.83098496740E+02  0.12836702210E+02  0.49227097393E+03  0.51482847722E+03  0.12509000000E+03 0.  0.
         25    1    4    4    0    0  0.49190344963E+02  0.17207329176E+02  0.15934455458E+03  0.20917451420E+03  0.12509000000E+03 0.  0.
<mgrwt>
<rscale>  2 0.44860018E+03</rscale>
<asrwt>0</asrwt>
<pdfrwt beam="1">  1       21 0.14384690E+00 0.44860018E+03</pdfrwt>
<pdfrwt beam="2">  1       21 0.75638094E-02 0.44860018E+03</pdfrwt>
<totfact> 0.39996504E+04</totfact>
</mgrwt>
</event>
<event>
 7    0  0.4770865E-002  0.4506995E+03  0.7546771E-02  0.1027514E+00
         21   -1    0    0  502  501  0.00000000000E+00  0.00000000000E+00  0.13681939729E+04  0.13681939729E+04  0.00000000000E+00 0. -1.
         21   -1    0    0  501  502 -0.00000000000E+00 -0.00000000000E+00 -0.37116457619E+02  0.37116457619E+02  0.00000000000E+00 0. -1.
      99926    2    1    2    0    0  0.00000000000E+00  0.14210854715E-13  0.13310775153E+04  0.14053104305E+04  0.45069951680E+03 0.  0.
      99925    2    3    3    0    0  0.31259088079E+02 -0.94300863189E+02  0.70142299549E+03  0.75570893284E+03  0.26311972407E+03 0.  0.
         25    1    4    4    0    0  0.41831564597E+02 -0.53871597068E+02  0.28053943377E+03  0.31464569084E+03  0.12509000000E+03 0.  0.
         25    1    4    4    0    0 -0.10572476519E+02 -0.40429266121E+02  0.42088356172E+03  0.44106324200E+03  0.12509000000E+03 0.  0.
         25    1    3    3    0    0 -0.31259088079E+02  0.94300863189E+02  0.62965451979E+03  0.64960149768E+03  0.12509000000E+03 0.  0.
<mgrwt>
<rscale>  2 0.45069952E+03</rscale>
<asrwt>0</asrwt>
<pdfrwt beam="1">  1       21 0.20120496E+00 0.45069952E+03</pdfrwt>
<pdfrwt beam="2">  1       21 0.54583035E-02 0.45069952E+03</pdfrwt>
<totfact> 0.27084743E+04</totfact>
</mgrwt>
</event>
<event>
 7    0  0.4770865E-002  0.4497938E+03  0.7546771E-02  0.1027784E+00
         21   -1    0    0  502  501  0.00000000000E+00  0.00000000000E+00  0.60523369954E+03  0.60523369954E+03  0.00000000000E+00 0. -1.
         21   -1    0    0  501  502 -0.00000000000E+00 -0.00000000000E+00 -0.83568741537E+02  0.83568741537E+02  0.00000000000E+00 0. -1.
      99926    2    1    2    0    0  0.71054273576E-14  0.00000000000E+00  0.52166495800E+03  0.68880244107E+03  0.44979381323E+03 0.  0.
      99925    2    3    3    0    0 -0.61941170177E+02 -0.86366557327E+02  0.29846126861E+03  0.41174056018E+03  0.26297389462E+03 0.  0.
         25    1    4    4    0    0  0.10195469224E+02 -0.38646153579E+02  0.14673741345E+03  0.19691838254E+03  0.12509000000E+03 0.  0.
         25    1    4    4    0    0 -0.72136639401E+02 -0.47720403748E+02  0.15172385517E+03  0.21482217764E+03  0.12509000000E+03 0.  0.
         25    1    3    3    0    0  0.61941170177E+02  0.86366557327E+02  0.22320368939E+03  0.27706188089E+03  0.12509000000E+03 0.  0.
<mgrwt>
<rscale>  2 0.44979381E+03</rscale>
<asrwt>0</asrwt>
<pdfrwt beam="1">  1       21 0.89004954E-01 0.44979381E+03</pdfrwt>
<pdfrwt beam="2">  1       21 0.12289521E-01 0.44979381E+03</pdfrwt>
<totfact> 0.55765853E+04</totfact>
</mgrwt>
</event>
<event>
 7    0  0.4770865E-002  0.4352187E+03  0.7546771E-02  0.1032224E+00
         21   -1    0    0  502  501  0.00000000000E+00  0.00000000000E+00  0.15452925510E+03  0.15452925510E+03  0.00000000000E+00 0. -1.
         21   -1    0    0  501  502 -0.00000000000E+00 -0.00000000000E+00 -0.30643930344E+03  0.30643930344E+03  0.00000000000E+00 0. -1.
      99926    2    1    2    0    0  0.00000000000E+00  0.00000000000E+00 -0.15191004834E+03  0.46096855853E+03  0.43521873715E+03 0.  0.
      99925    2    3    3    0    0  0.90519153017E+02 -0.16669583759E+02 -0.80269432474E+02  0.28993792377E+03  0.26296240371E+03 0.  0.
         25    1    4    4    0    0  0.68192459774E+02 -0.28207333536E+02 -0.71941017727E+02  0.16207678232E+03  0.12509000000E+03 0.  0.
         25    1    4    4    0    0  0.22326693243E+02  0.11537749777E+02 -0.83284147473E+01  0.12786114145E+03  0.12509000000E+03 0.  0.
         25    1    3    3    0    0 -0.90519153017E+02  0.16669583759E+02 -0.71640615867E+02  0.17103063476E+03  0.12509000000E+03 0.  0.
<mgrwt>
<rscale>  2 0.43521874E+03</rscale>
<asrwt>0</asrwt>
<pdfrwt beam="1">  1       21 0.22724890E-01 0.43521874E+03</pdfrwt>
<pdfrwt beam="2">  1       21 0.45064603E-01 0.43521874E+03</pdfrwt>
<totfact> 0.79943677E+04</totfact>
</mgrwt>
</event>
<event>
 7    0  0.4770865E-002  0.4553849E+03  0.7546771E-02  0.1026128E+00
         21   -1    0    0  502  501  0.00000000000E+00  0.00000000000E+00  0.10675257381E+04  0.10675257381E+04  0.00000000000E+00 0.  1.
         21   -1    0    0  501  502 -0.00000000000E+00 -0.00000000000E+00 -0.48564495520E+02  0.48564495520E+02  0.00000000000E+00 0.  1.
      99926    2    1    2    0    0  0.00000000000E+00  0.71054273576E-14  0.10189612425E+04  0.11160902336E+04  0.45538488742E+03 0.  0.
      99925    2    3    3    0    0  0.10494810957E+03 -0.33688016770E+02  0.57454457539E+03  0.64142964925E+03  0.26302383476E+03 0.  0.
         25    1    4    4    0    0  0.66378940507E+02 -0.52224380008E+02  0.34424904679E+03  0.37588357763E+03  0.12509000000E+03 0.  0.
         25    1    4    4    0    0  0.38569169060E+02  0.18536363238E+02  0.23029552860E+03  0.26554607163E+03  0.12509000000E+03 0.  0.
         25    1    3    3    0    0 -0.10494810957E+03  0.33688016770E+02  0.44441666715E+03  0.47466058433E+03  0.12509000000E+03 0.  0.
<mgrwt>
<rscale>  2 0.45538489E+03</rscale>
<asrwt>0</asrwt>
<pdfrwt beam="1">  1       21 0.15698906E+00 0.45538489E+03</pdfrwt>
<pdfrwt beam="2">  1       21 0.71418382E-02 0.45538489E+03</pdfrwt>
<totfact> 0.34830250E+04</totfact>
</mgrwt>
</event>
<event>
 7    0  0.4770865E-002  0.4652676E+03  0.7546771E-02  0.1023264E+00
         21   -1    0    0  502  501  0.00000000000E+00  0.00000000000E+00  0.44402622069E+03  0.44402622069E+03  0.00000000000E+00 0.  1.
         21   -1    0    0  501  502 -0.00000000000E+00 -0.00000000000E+00 -0.12188126868E+03  0.12188126868E+03  0.00000000000E+00 0.  1.
      99926    2    1    2    0    0  0.71054273576E-14  0.71054273576E-14  0.32214495200E+03  0.56590748937E+03  0.46526757508E+03 0.  0.
      99925    2    3    3    0    0  0.40156722057E+02  0.45741620604E+02  0.70693191868E+02  0.27853951280E+03  0.26245356662E+03 0.  0.
         25    1    4    4    0    0  0.41146117819E+02 -0.43226402344E+01  0.14494932878E+02  0.13254923391E+03  0.12509000000E+03 0.  0.
         25    1    4    4    0    0 -0.98939576194E+00  0.50064260838E+02  0.56198258991E+02  0.14599027889E+03  0.12509000000E+03 0.  0.
         25    1    3    3    0    0 -0.40156722057E+02 -0.45741620604E+02  0.25145176014E+03  0.28736797657E+03  0.12509000000E+03 0.  0.
<mgrwt>
<rscale>  2 0.46526758E+03</rscale>
<asrwt>0</asrwt>
<pdfrwt beam="1">  1       21 0.65297973E-01 0.46526758E+03</pdfrwt>
<pdfrwt beam="2">  1       21 0.17923716E-01 0.46526758E+03</pdfrwt>
<totfact> 0.56128694E+04</totfact>
</mgrwt>
</event>
<event>
 7    0  0.4770865E-002  0.4539571E+03  0.7546771E-02  0.1026549E+00
         21   -1    0    0  502  501  0.00000000000E+00  0.00000000000E+00  0.22842808750E+03  0.22842808750E+03  0.00000000000E+00 0. -1.
         21   -1    0    0  501  502 -0.00000000000E+00 -0.00000000000E+00 -0.22553822405E+03  0.22553822405E+03  0.00000000000E+00 0. -1.
      99926    2    1    2    0    0  0.00000000000E+00  0.00000000000E+00  0.28898634517E+01  0.45396631155E+03  0.45395711330E+03 0.  0.
      99925    2    3    3    0    0  0.43870866433E+02  0.95995540223E+02  0.39755726518E+02  0.28619743296E+03  0.26303736651E+03 0.  0.
         25    1    4    4    0    0  0.32628941122E+02  0.37102543218E+02 -0.18469297279E+02  0.13575665565E+03  0.12509000000E+03 0.  0.
         25    1    3    3    0    0 -0.43870866433E+02 -0.95995540223E+02 -0.36865863066E+02  0.16776887859E+03  0.12509000000E+03 0.  0.
         25    1    4    4    0    0  0.11241925310E+02  0.58892997005E+02  0.58225023796E+02  0.15044077731E+03  0.12509000000E+03 0.  0.
<mgrwt>
<rscale>  2 0.45395711E+03</rscale>
<asrwt>0</asrwt>
<pdfrwt beam="1">  1       21 0.33592366E-01 0.45395711E+03</pdfrwt>
<pdfrwt beam="2">  1       21 0.33167386E-01 0.45395711E+03</pdfrwt>
<totfact> 0.69195580E+04</totfact>
</mgrwt>
</event>
<event>
 6    0  0.4770865E-002  0.4510776E+03  0.7546771E-02  0.1027401E+00
         21   -1    0    0  502  501  0.00000000000E+00  0.00000000000E+00  0.21958290080E+03  0.21958290080E+03  0.00000000000E+00 0.  1.
         21   -1    0    0  501  502 -0.00000000000E+00 -0.00000000000E+00 -0.23165621114E+03  0.23165621114E+03  0.00000000000E+00 0.  1.
      99926    2    1    2    0    0 -0.14210854715E-13 -0.71054273576E-14 -0.12073310348E+02  0.45123911194E+03  0.45107756686E+03 0.  0.
         25    1    3    3    0    0 -0.87769049254E+02 -0.43048966225E+02 -0.48189588004E+02  0.16591071090E+03  0.12509000000E+03 0.  0.
         25    1    3    3    0    0  0.36808387692E+02  0.26406326516E+02 -0.26283173378E+02  0.13561144785E+03  0.12509000000E+03 0.  0.
         25    1    3    3    0    0  0.50960661563E+02  0.16642639709E+02  0.62399451035E+02  0.14971695319E+03  0.12509000000E+03 0.  0.
<mgrwt>
<rscale>  2 0.45107757E+03</rscale>
<asrwt>0</asrwt>
<pdfrwt beam="1">  1       21 0.32291603E-01 0.45107757E+03</pdfrwt>
<pdfrwt beam="2">  1       21 0.34067090E-01 0.45107757E+03</pdfrwt>
<totfact> 0.71018981E+04</totfact>
</mgrwt>
</event>
<event>
 7    0  0.4770865E-002  0.4539830E+03  0.7546771E-02  0.1026541E+00
         21   -1    0    0  502  501  0.00000000000E+00  0.00000000000E+00  0.34936629491E+03  0.34936629491E+03  0.00000000000E+00 0. -1.
         21   -1    0    0  501  502 -0.00000000000E+00 -0.00000000000E+00 -0.14748172751E+03  0.14748172751E+03  0.00000000000E+00 0. -1.
      99926    2    1    2    0    0  0.00000000000E+00  0.71054273576E-14  0.20188456740E+03  0.49684802242E+03  0.45398301602E+03 0.  0.
      99925    2    3    3    0    0 -0.73161335745E+02 -0.38164174067E+02  0.43932739429E+02  0.27912027203E+03  0.26299991528E+03 0.  0.
         25    1    4    4    0    0 -0.45169617169E+02 -0.37118420160E+02  0.58792868481E+02  0.15007391817E+03  0.12509000000E+03 0.  0.
         25    1    4    4    0    0 -0.27991718576E+02 -0.10457539075E+01 -0.14860129052E+02  0.12904635386E+03  0.12509000000E+03 0.  0.
         25    1    3    3    0    0  0.73161335745E+02  0.38164174067E+02  0.15795182797E+03  0.21772775039E+03  0.12509000000E+03 0.  0.
<mgrwt>
<rscale>  2 0.45398302E+03</rscale>
<asrwt>0</asrwt>
<pdfrwt beam="1">  1       21 0.51377396E-01 0.45398302E+03</pdfrwt>
<pdfrwt beam="2">  1       21 0.21688489E-01 0.45398302E+03</pdfrwt>
<totfact> 0.66024081E+04</totfact>
</mgrwt>
</event>
<event>
 7    0  0.4770865E-002  0.4585129E+03  0.7546771E-02  0.1025213E+00
         21   -1    0    0  502  501  0.00000000000E+00  0.00000000000E+00  0.11153900072E+04  0.11153900072E+04  0.00000000000E+00 0.  1.
         21   -1    0    0  501  502 -0.00000000000E+00 -0.00000000000E+00 -0.47121199201E+02  0.47121199201E+02  0.00000000000E+00 0.  1.
      99926    2    1    2    0    0 -0.22204460493E-15  0.00000000000E+00  0.10682688080E+04  0.11625112064E+04  0.45851287754E+03 0.  0.
      99925    2    3    3    0    0  0.10386232411E+01 -0.11618980997E+03  0.68885383064E+03  0.74645305684E+03  0.26300459196E+03 0.  0.
         25    1    3    3    0    0 -0.10386232411E+01  0.11618980997E+03  0.37941497737E+03  0.41605814958E+03  0.12509000000E+03 0.  0.
         25    1    4    4    0    0 -0.31959449861E+01 -0.10159784933E+03  0.40442302933E+03  0.43535942830E+03  0.12509000000E+03 0.  0.
         25    1    4    4    0    0  0.42345682272E+01 -0.14591960632E+02  0.28443080131E+03  0.31109362854E+03  0.12509000000E+03 0.  0.
<mgrwt>
<rscale>  2 0.45851288E+03</rscale>
<asrwt>0</asrwt>
<pdfrwt beam="1">  1       21 0.16402793E+00 0.45851288E+03</pdfrwt>
<pdfrwt beam="2">  1       21 0.69295888E-02 0.45851288E+03</pdfrwt>
<totfact> 0.32469389E+04</totfact>
</mgrwt>
</event>
<event>
 7    0  0.4770865E-002  0.4512784E+03  0.7546771E-02  0.1027341E+00
         21   -1    0    0  502  501  0.00000000000E+00  0.00000000000E+00  0.41885311242E+02  0.41885311242E+02  0.00000000000E+00 0.  1.
         21   -1    0    0  501  502 -0.00000000000E+00 -0.00000000000E+00 -0.12155348628E+04  0.12155348628E+04  0.00000000000E+00 0.  1.
      99926    2    1    2    0    0  0.71054273576E-14  0.00000000000E+00 -0.11736495515E+04  0.12574201740E+04  0.45127843313E+03 0.  0.
      99925    2    3    3    0    0  0.36185901226E+02 -0.10180621385E+03 -0.69120881003E+03  0.74744909465E+03  0.26312849601E+03 0.  0.
         25    1    3    3    0    0 -0.36185901226E+02  0.10180621385E+03 -0.48244074150E+03  0.50997107936E+03  0.12509000000E+03 0.  0.
         25    1    4    4    0    0  0.55170433471E+02 -0.69993343531E+02 -0.39330774047E+03  0.42223374057E+03  0.12509000000E+03 0.  0.
         25    1    4    4    0    0 -0.18984532244E+02 -0.31812870316E+02 -0.29790106956E+03  0.32521535408E+03  0.12509000000E+03 0.  0.
<mgrwt>
<rscale>  2 0.45127843E+03</rscale>
<asrwt>0</asrwt>
<pdfrwt beam="1">  1       21 0.61596045E-02 0.45127843E+03</pdfrwt>
<pdfrwt beam="2">  1       21 0.17875513E+00 0.45127843E+03</pdfrwt>
<totfact> 0.31272932E+04</totfact>
</mgrwt>
</event>
<event>
 7    0  0.4770865E-002  0.4477575E+03  0.7546771E-02  0.1028393E+00
         21   -1    0    0  502  501  0.00000000000E+00  0.00000000000E+00  0.10608044473E+03  0.10608044473E+03  0.00000000000E+00 0. -1.
         21   -1    0    0  501  502 -0.00000000000E+00 -0.00000000000E+00 -0.47248757281E+03  0.47248757281E+03  0.00000000000E+00 0. -1.
      99926    2    1    2    0    0  0.00000000000E+00  0.00000000000E+00 -0.36640712808E+03  0.57856801754E+03  0.44775748728E+03 0.  0.
      99925    2    3    3    0    0  0.51617187438E+02  0.21460734399E+02 -0.34898973752E+03  0.44045295408E+03  0.26283087853E+03 0.  0.
         25    1    4    4    0    0 -0.84091494339E+01  0.27006405993E+02 -0.14363697439E+03  0.19255946684E+03  0.12509000000E+03 0.  0.
         25    1    3    3    0    0 -0.51617187438E+02 -0.21460734399E+02 -0.17417390564E+02  0.13811506346E+03  0.12509000000E+03 0.  0.
         25    1    4    4    0    0  0.60026336872E+02 -0.55456715945E+01 -0.20535276313E+03  0.24789348724E+03  0.12509000000E+03 0.  0.
<mgrwt>
<rscale>  2 0.44775749E+03</rscale>
<asrwt>0</asrwt>
<pdfrwt beam="1">  1       21 0.15600066E-01 0.44775749E+03</pdfrwt>
<pdfrwt beam="2">  1       21 0.69483466E-01 0.44775749E+03</pdfrwt>
<totfact> 0.63580272E+04</totfact>
</mgrwt>
</event>
<event>
 7    0  0.4770865E-002  0.4530057E+03  0.7546771E-02  0.1026829E+00
         21   -1    0    0  502  501  0.00000000000E+00  0.00000000000E+00  0.97689059863E+02  0.97689059863E+02  0.00000000000E+00 0. -1.
         21   -1    0    0  501  502 -0.00000000000E+00 -0.00000000000E+00 -0.52517188484E+03  0.52517188484E+03  0.00000000000E+00 0. -1.
      99926    2    1    2    0    0  0.00000000000E+00  0.00000000000E+00 -0.42748282498E+03  0.62286094470E+03  0.45300572931E+03 0.  0.
      99925    2    3    3    0    0 -0.26700994979E+02  0.91048987445E+02 -0.18985155410E+03  0.33804698745E+03  0.26311459838E+03 0.  0.
         25    1    3    3    0    0  0.26700994979E+02 -0.91048987445E+02 -0.23763127088E+03  0.28481395725E+03  0.12509000000E+03 0.  0.
         25    1    4    4    0    0  0.12270048213E+02  0.20588387744E+02 -0.11459595492E+03  0.17133060666E+03  0.12509000000E+03 0.  0.
         25    1    4    4    0    0 -0.38971043192E+02  0.70460599700E+02 -0.75255599181E+02  0.16671638080E+03  0.12509000000E+03 0.  0.
<mgrwt>
<rscale>  2 0.45300573E+03</rscale>
<asrwt>0</asrwt>
<pdfrwt beam="1">  1       21 0.14366038E-01 0.45300573E+03</pdfrwt>
<pdfrwt beam="2">  1       21 0.77231160E-01 0.45300573E+03</pdfrwt>
<totfact> 0.58203818E+04</totfact>
</mgrwt>
</event>
<event>
 7    0  0.4770865E-002  0.4546949E+03  0.7546771E-02  0.1026331E+00
         21   -1    0    0  502  501  0.00000000000E+00  0.00000000000E+00  0.83353180576E+02  0.83353180576E+02  0.00000000000E+00 0. -1.
         21   -1    0    0  501  502 -0.00000000000E+00 -0.00000000000E+00 -0.62009474960E+03  0.62009474960E+03  0.00000000000E+00 0. -1.
      99926    2    1    2    0    0  0.00000000000E+00  0.71054273576E-14 -0.53674156902E+03  0.70344793017E+03  0.45469492910E+03 0.  0.
      99925    2    3    3    0    0 -0.72828636301E+02 -0.55028503677E+02 -0.44048005388E+03  0.52111325470E+03  0.26306691141E+03 0.  0.
         25    1    4    4    0    0 -0.75502424233E+02 -0.21738667538E+02 -0.20986469137E+03  0.25663959654E+03  0.12509000000E+03 0.  0.
         25    1    4    4    0    0  0.26737879323E+01 -0.33289836139E+02 -0.23061536251E+03  0.26447365816E+03  0.12509000000E+03 0.  0.
         25    1    3    3    0    0  0.72828636301E+02  0.55028503677E+02 -0.96261515144E+02  0.18233467547E+03  0.12509000000E+03 0.  0.
<mgrwt>
<rscale>  2 0.45469493E+03</rscale>
<asrwt>0</asrwt>
<pdfrwt beam="1">  1       21 0.12257821E-01 0.45469493E+03</pdfrwt>
<pdfrwt beam="2">  1       21 0.91190402E-01 0.45469493E+03</pdfrwt>
<totfact> 0.52842894E+04</totfact>
</mgrwt>
</event>
<event>
 7    0  0.4770865E-002  0.4521924E+03  0.7546771E-02  0.1027070E+00
         21   -1    0    0  502  501  0.00000000000E+00  0.00000000000E+00  0.22603284931E+04  0.22603284931E+04  0.00000000000E+00 0.  1.
         21   -1    0    0  501  502 -0.00000000000E+00 -0.00000000000E+00 -0.22615959935E+02  0.22615959935E+02  0.00000000000E+00 0.  1.
      99926    2    1    2    0    0  0.00000000000E+00  0.00000000000E+00  0.22377125332E+04  0.22829444530E+04  0.45219243089E+03 0.  0.
      99925    2    3    3    0    0  0.69858045704E+02  0.85550595812E+02  0.14108925867E+04  0.14394530287E+04  0.26307428526E+03 0.  0.
         25    1    3    3    0    0 -0.69858045704E+02 -0.85550595812E+02  0.82681994645E+03  0.84349142434E+03  0.12509000000E+03 0.  0.
         25    1    4    4    0    0  0.72004141727E+01  0.66493988619E+02  0.79773601314E+03  0.81024906742E+03  0.12509000000E+03 0.  0.
         25    1    4    4    0    0  0.62657631532E+02  0.19056607193E+02  0.61315657356E+03  0.62920396127E+03  0.12509000000E+03 0.  0.
<mgrwt>
<rscale>  2 0.45219243E+03</rscale>
<asrwt>0</asrwt>
<pdfrwt beam="1">  1       21 0.33240109E+00 0.45219243E+03</pdfrwt>
<pdfrwt beam="2">  1       21 0.33258780E-02 0.45219243E+03</pdfrwt>
<totfact> 0.98284057E+03</totfact>
</mgrwt>
</event>
<event>
 7    0  0.4770865E-002  0.4549108E+03  0.7546771E-02  0.1026268E+00
         21   -1    0    0  502  501  0.00000000000E+00  0.00000000000E+00  0.81629571039E+02  0.81629571039E+02  0.00000000000E+00 0.  1.
         21   -1    0    0  501  502 -0.00000000000E+00 -0.00000000000E+00 -0.63378937062E+03  0.63378937062E+03  0.00000000000E+00 0.  1.
      99926    2    1    2    0    0  0.00000000000E+00  0.00000000000E+00 -0.55215979959E+03  0.71541894166E+03  0.45491078006E+03 0.  0.
      99925    2    3    3    0    0  0.76834141065E+02  0.57752610395E+02 -0.25516645280E+03  0.37912828557E+03  0.26341884717E+03 0.  0.
         25    1    3    3    0    0 -0.76834141065E+02 -0.57752610395E+02 -0.29699334679E+03  0.33629065609E+03  0.12509000000E+03 0.  0.
         25    1    4    4    0    0  0.64320579990E+00  0.42809383256E+02 -0.13647552317E+03  0.19001614019E+03  0.12509000000E+03 0.  0.
         25    1    4    4    0    0  0.76190935265E+02  0.14943227139E+02 -0.11869092963E+03  0.18911214538E+03  0.12509000000E+03 0.  0.
<mgrwt>
<rscale>  2 0.45491078E+03</rscale>
<asrwt>0</asrwt>
<pdfrwt beam="1">  1       21 0.12004348E-01 0.45491078E+03</pdfrwt>
<pdfrwt beam="2">  1       21 0.93204321E-01 0.45491078E+03</pdfrwt>
<totfact> 0.52110384E+04</totfact>
</mgrwt>
</event>
<event>
 7    0  0.4770865E-002  0.4619125E+03  0.7546771E-02  0.1024228E+00
         21   -1    0    0  502  501  0.00000000000E+00  0.00000000000E+00  0.11153032325E+03  0.11153032325E+03  0.00000000000E+00 0. -1.
         21   -1    0    0  501  502 -0.00000000000E+00 -0.00000000000E+00 -0.47826275477E+03  0.47826275477E+03  0.00000000000E+00 0. -1.
      99926    2    1    2    0    0  0.00000000000E+00  0.00000000000E+00 -0.36673243152E+03  0.58979307802E+03  0.46191254427E+03 0.  0.
      99925    2    3    3    0    0  0.90229838111E+01 -0.98664162277E+02 -0.14382622893E+03  0.31565677176E+03  0.26293950307E+03 0.  0.
         25    1    4    4    0    0  0.13175003448E+01 -0.82975797585E+02 -0.10614531386E+03  0.18385063108E+03  0.12509000000E+03 0.  0.
         25    1    4    4    0    0  0.77054834663E+01 -0.15688364692E+02 -0.37680915064E+02  0.13180614068E+03  0.12509000000E+03 0.  0.
         25    1    3    3    0    0 -0.90229838111E+01  0.98664162277E+02 -0.22290620260E+03  0.27413630626E+03  0.12509000000E+03 0.  0.
<mgrwt>
<rscale>  2 0.46191254E+03</rscale>
<asrwt>0</asrwt>
<pdfrwt beam="1">  1       21 0.16401518E-01 0.46191254E+03</pdfrwt>
<pdfrwt beam="2">  1       21 0.70332757E-01 0.46191254E+03</pdfrwt>
<totfact> 0.56178165E+04</totfact>
</mgrwt>
</event>
<event>
 7    0  0.4770865E-002  0.4645137E+03  0.7546771E-02  0.1023480E+00
         21   -1    0    0  502  501  0.00000000000E+00  0.00000000000E+00  0.32585539525E+02  0.32585539525E+02  0.00000000000E+00 0.  1.
         21   -1    0    0  501  502 -0.00000000000E+00 -0.00000000000E+00 -0.16554351837E+04  0.16554351837E+04  0.00000000000E+00 0.  1.
      99926    2    1    2    0    0  0.00000000000E+00  0.00000000000E+00 -0.16228496442E+04  0.16880207232E+04  0.46451371825E+03 0.  0.
      99925    2    3    3    0    0  0.24429540688E+02 -0.38625697603E+02 -0.14233610703E+04  0.14481625439E+04  0.26292445720E+03 0.  0.
         25    1    4    4    0    0 -0.13519791764E+02  0.12505294874E+02 -0.69047044438E+03  0.70195164351E+03  0.12509000000E+03 0.  0.
         25    1    3    3    0    0 -0.24429540688E+02  0.38625697603E+02 -0.19948857388E+03  0.23985817931E+03  0.12509000000E+03 0.  0.
         25    1    4    4    0    0  0.37949332452E+02 -0.51130992477E+02 -0.73289062593E+03  0.74621090042E+03  0.12509000000E+03 0.  0.
<mgrwt>
<rscale>  2 0.46451372E+03</rscale>
<asrwt>0</asrwt>
<pdfrwt beam="1">  1       21 0.47919907E-02 0.46451372E+03</pdfrwt>
<pdfrwt beam="2">  1       21 0.24344637E+00 0.46451372E+03</pdfrwt>
<totfact> 0.18134984E+04</totfact>
</mgrwt>
</event>
<event>
 7    0  0.4770865E-002  0.4706618E+03  0.7546771E-02  0.1021734E+00
         21   -1    0    0  502  501  0.00000000000E+00  0.00000000000E+00  0.17972015291E+04  0.17972015291E+04  0.00000000000E+00 0.  1.
         21   -1    0    0  501  502 -0.00000000000E+00 -0.00000000000E+00 -0.30814929181E+02  0.30814929181E+02  0.00000000000E+00 0.  1.
      99926    2    1    2    0    0  0.00000000000E+00  0.00000000000E+00  0.17663865999E+04  0.18280164583E+04  0.47066182273E+03 0.  0.
      99925    2    3    3    0    0 -0.61864153115E+01 -0.73292752105E+02  0.69223352952E+03  0.74410574886E+03  0.26286119313E+03 0.  0.
         25    1    4    4    0    0 -0.49508752710E+01 -0.37409806414E+02  0.23693543122E+03  0.27057330143E+03  0.12509000000E+03 0.  0.
         25    1    4    4    0    0 -0.12355400405E+01 -0.35882945692E+02  0.45529809830E+03  0.47353244743E+03  0.12509000000E+03 0.  0.
         25    1    3    3    0    0  0.61864153115E+01  0.73292752105E+02  0.10741530704E+04  0.10839107094E+04  0.12509000000E+03 0.  0.
<mgrwt>
<rscale>  2 0.47066182E+03</rscale>
<asrwt>0</asrwt>
<pdfrwt beam="1">  1       21 0.26429427E+00 0.47066182E+03</pdfrwt>
<pdfrwt beam="2">  1       21 0.45316085E-02 0.47066182E+03</pdfrwt>
<totfact> 0.14839333E+04</totfact>
</mgrwt>
</event>
<event>
 7    0  0.6092066E-002  0.4166234E+03  0.7546771E-02  0.1038171E+00
         21   -1    0    0  502  501  0.00000000000E+00  0.00000000000E+00  0.13804986586E+03  0.13804986586E+03  0.00000000000E+00 0. -1.
         21   -1    0    0  501  502 -0.00000000000E+00 -0.00000000000E+00 -0.31433394536E+03  0.31433394536E+03  0.00000000000E+00 0. -1.
      99926    2    1    2    0    0  0.35527136788E-14  0.00000000000E+00 -0.17628407950E+03  0.45238381122E+03  0.41662337425E+03 0.  0.
      99925    2    3    3    0    0  0.25701360741E+02  0.64959032637E+02 -0.10891813950E+03  0.29406162757E+03  0.26406219690E+03 0.  0.
         25    1    4    4    0    0  0.53422794840E+02  0.42377184306E+02 -0.47367604549E+02  0.15013666714E+03  0.12509000000E+03 0.  0.
         25    1    3    3    0    0 -0.25701360741E+02 -0.64959032637E+02 -0.67365939998E+02  0.15832218365E+03  0.12509000000E+03 0.  0.
         25    1    4    4    0    0 -0.27721434099E+02  0.22581848331E+02 -0.61550534952E+02  0.14392496043E+03  0.12509000000E+03 0.  0.
<mgrwt>
<rscale>  2 0.41662337E+03</rscale>
<asrwt>0</asrwt>
<pdfrwt beam="1">  1       21 0.20301451E-01 0.41662337E+03</pdfrwt>
<pdfrwt beam="2">  1       21 0.46225580E-01 0.41662337E+03</pdfrwt>
<totfact> 0.94407858E+04</totfact>
</mgrwt>
</event>
<event>
 7    0  0.4770865E-002  0.4565401E+03  0.7546771E-02  0.1025789E+00
         21   -1    0    0  502  501  0.00000000000E+00  0.00000000000E+00  0.18073097562E+03  0.18073097562E+03  0.00000000000E+00 0.  1.
         21   -1    0    0  501  502 -0.00000000000E+00 -0.00000000000E+00 -0.28831365389E+03  0.28831365389E+03  0.00000000000E+00 0.  1.
      99926    2    1    2    0    0 -0.71054273576E-14  0.00000000000E+00 -0.10758267826E+03  0.46904462951E+03  0.45654006594E+03 0.  0.
      99925    2    3    3    0    0  0.42913303261E+02  0.82082875004E+02  0.22572159018E+01  0.27854145259E+03  0.26268059659E+03 0.  0.
         25    1    4    4    0    0  0.23339606159E+02  0.36544996775E+02  0.40871664774E+02  0.13855784022E+03  0.12509000000E+03 0.  0.
         25    1    4    4    0    0  0.19573697102E+02  0.45537878229E+02 -0.38614448872E+02  0.13998361237E+03  0.12509000000E+03 0.  0.
         25    1    3    3    0    0 -0.42913303261E+02 -0.82082875004E+02 -0.10983989417E+03  0.19050317692E+03  0.12509000000E+03 0.  0.
<mgrwt>
<rscale>  2 0.45654007E+03</rscale>
<asrwt>0</asrwt>
<pdfrwt beam="1">  1       21 0.26578085E-01 0.45654007E+03</pdfrwt>
<pdfrwt beam="2">  1       21 0.42399066E-01 0.45654007E+03</pdfrwt>
<totfact> 0.66688564E+04</totfact>
</mgrwt>
</event>
<event>
 7    0  0.4770865E-002  0.4486463E+03  0.7546771E-02  0.1028126E+00
         21   -1    0    0  502  501  0.00000000000E+00  0.00000000000E+00  0.24363825789E+03  0.24363825789E+03  0.00000000000E+00 0. -1.
         21   -1    0    0  501  502 -0.00000000000E+00 -0.00000000000E+00 -0.20653930351E+03  0.20653930351E+03  0.00000000000E+00 0. -1.
      99926    2    1    2    0    0  0.00000000000E+00  0.00000000000E+00  0.37098954386E+02  0.45017756140E+03  0.44864630209E+03 0.  0.
      99925    2    3    3    0    0 -0.72915281655E+02  0.42039376911E+02  0.89846999984E+02  0.29044712622E+03  0.26306482512E+03 0.  0.
         25    1    4    4    0    0 -0.41504520790E+02  0.51804086793E+02  0.75025950336E+02  0.16025819785E+03  0.12509000000E+03 0.  0.
         25    1    3    3    0    0  0.72915281655E+02 -0.42039376911E+02 -0.52748045599E+02  0.15973043518E+03  0.12509000000E+03 0.  0.
         25    1    4    4    0    0 -0.31410760864E+02 -0.97647098815E+01  0.14821049648E+02  0.13018892837E+03  0.12509000000E+03 0.  0.
<mgrwt>
<rscale>  2 0.44864630E+03</rscale>
<asrwt>0</asrwt>
<pdfrwt beam="1">  1       21 0.35829156E-01 0.44864630E+03</pdfrwt>
<pdfrwt beam="2">  1       21 0.30373427E-01 0.44864630E+03</pdfrwt>
<totfact> 0.72507121E+04</totfact>
</mgrwt>
</event>
<event>
 7    0  0.4770865E-002  0.4499284E+03  0.7546771E-02  0.1027743E+00
         21   -1    0    0  502  501  0.00000000000E+00  0.00000000000E+00  0.12221863823E+03  0.12221863823E+03  0.00000000000E+00 0.  1.
         21   -1    0    0  501  502 -0.00000000000E+00 -0.00000000000E+00 -0.41408496384E+03  0.41408496384E+03  0.00000000000E+00 0.  1.
      99926    2    1    2    0    0  0.00000000000E+00 -0.14210854715E-13 -0.29186632561E+03  0.53630360207E+03  0.44992844049E+03 0.  0.
      99925    2    3    3    0    0  0.47810176651E+02  0.80712187287E+02 -0.11945990277E+03  0.30355534127E+03  0.26282105447E+03 0.  0.
         25    1    4    4    0    0  0.44280623176E+02  0.76849180245E+02 -0.56538777664E+02  0.16343411998E+03  0.12509000000E+03 0.  0.
         25    1    3    3    0    0 -0.47810176651E+02 -0.80712187287E+02 -0.17240642284E+03  0.23274826080E+03  0.12509000000E+03 0.  0.
         25    1    4    4    0    0  0.35295534751E+01  0.38630070415E+01 -0.62921125108E+02  0.14012122129E+03  0.12509000000E+03 0.  0.
<mgrwt>
<rscale>  2 0.44992844E+03</rscale>
<asrwt>0</asrwt>
<pdfrwt beam="1">  1       21 0.17973329E-01 0.44992844E+03</pdfrwt>
<pdfrwt beam="2">  1       21 0.60894848E-01 0.44992844E+03</pdfrwt>
<totfact> 0.65365225E+04</totfact>
</mgrwt>
</event>
<event>
 7    0  0.4770865E-002  0.4431431E+03  0.7546771E-02  0.1029787E+00
         21   -1    0    0  502  501  0.00000000000E+00  0.00000000000E+00  0.92741384999E+03  0.92741384999E+03  0.00000000000E+00 0.  1.
         21   -1    0    0  501  502 -0.00000000000E+00 -0.00000000000E+00 -0.52936392283E+02  0.52936392283E+02  0.00000000000E+00 0.  1.
      99926    2    1    2    0    0 -0.26645352591E-14  0.14210854715E-13  0.87447745770E+03  0.98035024227E+03  0.44314306210E+03 0.  0.
      99925    2    3    3    0    0 -0.64337265103E+01  0.92562647905E+02  0.47530361251E+03  0.55186861675E+03  0.26464355171E+03 0.  0.
         25    1    3    3    0    0  0.64337265103E+01 -0.92562647905E+02  0.39917384519E+03  0.42848162552E+03  0.12509000000E+03 0.  0.
         25    1    4    4    0    0  0.39619752665E+02  0.45256440571E+02  0.24568800676E+03  0.28218429258E+03  0.12509000000E+03 0.  0.
         25    1    4    4    0    0 -0.46053479175E+02  0.47306207334E+02  0.22961560576E+03  0.26968432417E+03  0.12509000000E+03 0.  0.
<mgrwt>
<rscale>  2 0.44314306E+03</rscale>
<asrwt>0</asrwt>
<pdfrwt beam="1">  1       21 0.13638438E+00 0.44314306E+03</pdfrwt>
<pdfrwt beam="2">  1       21 0.77847642E-02 0.44314306E+03</pdfrwt>
<totfact> 0.43861829E+04</totfact>
</mgrwt>
</event>
<event>
 7    0  0.4770865E-002  0.4537912E+03  0.7546771E-02  0.1026597E+00
         21   -1    0    0  502  501  0.00000000000E+00  0.00000000000E+00  0.25623173217E+02  0.25623173217E+02  0.00000000000E+00 0. -1.
         21   -1    0    0  501  502 -0.00000000000E+00 -0.00000000000E+00 -0.20091819186E+04  0.20091819186E+04  0.00000000000E+00 0. -1.
      99926    2    1    2    0    0  0.00000000000E+00 -0.44408920985E-15 -0.19835587454E+04  0.20348050918E+04  0.45379121333E+03 0.  0.
      99925    2    3    3    0    0  0.11178942069E+03  0.23111140735E+01 -0.11977170879E+04  0.12312524585E+04  0.26259127558E+03 0.  0.
         25    1    4    4    0    0  0.48629701834E+02 -0.16722381199E+02 -0.73745962185E+03  0.74975908657E+03  0.12509000000E+03 0.  0.
         25    1    3    3    0    0 -0.11178942069E+03 -0.23111140735E+01 -0.78584165752E+03  0.80355263338E+03  0.12509000000E+03 0.  0.
         25    1    4    4    0    0  0.63159718854E+02  0.19033495273E+02 -0.46025746604E+03  0.48149337189E+03  0.12509000000E+03 0.  0.
<mgrwt>
<rscale>  2 0.45379121E+03</rscale>
<asrwt>0</asrwt>
<pdfrwt beam="1">  1       21 0.37681131E-02 0.45379121E+03</pdfrwt>
<pdfrwt beam="2">  1       21 0.29546798E+00 0.45379121E+03</pdfrwt>
<totfact> 0.13273846E+04</totfact>
</mgrwt>
</event>
<event>
 7    0  0.4770865E-002  0.4603645E+03  0.7546771E-02  0.1024676E+00
         21   -1    0    0  502  501  0.00000000000E+00  0.00000000000E+00  0.88232537318E+02  0.88232537318E+02  0.00000000000E+00 0.  1.
         21   -1    0    0  501  502 -0.00000000000E+00 -0.00000000000E+00 -0.60050264900E+03  0.60050264900E+03  0.00000000000E+00 0.  1.
      99926    2    1    2    0    0  0.00000000000E+00  0.00000000000E+00 -0.51227011168E+03  0.68873518632E+03  0.46036451813E+03 0.  0.
      99925    2    3    3    0    0  0.31147241823E+02  0.63298595840E+02 -0.46282029871E+03  0.53684820527E+03  0.26272895481E+03 0.  0.
         25    1    4    4    0    0  0.77909245379E+01  0.68914305275E+02 -0.21534913947E+03  0.25852009583E+03  0.12509000000E+03 0.  0.
         25    1    3    3    0    0 -0.31147241823E+02 -0.63298595840E+02 -0.49449812969E+02  0.15188698105E+03  0.12509000000E+03 0.  0.
         25    1    4    4    0    0  0.23356317285E+02 -0.56157094351E+01 -0.24747115924E+03  0.27832810944E+03  0.12509000000E+03 0.  0.
<mgrwt>
<rscale>  2 0.46036452E+03</rscale>
<asrwt>0</asrwt>
<pdfrwt beam="1">  1       21 0.12975373E-01 0.46036452E+03</pdfrwt>
<pdfrwt beam="2">  1       21 0.88309217E-01 0.46036452E+03</pdfrwt>
<totfact> 0.51316879E+04</totfact>
</mgrwt>
</event>
<event>
 7    0  0.4770865E-002  0.4433136E+03  0.7546771E-02  0.1029735E+00
         21   -1    0    0  502  501  0.00000000000E+00  0.00000000000E+00  0.26162314512E+02  0.26162314512E+02  0.00000000000E+00 0.  1.
         21   -1    0    0  501  502 -0.00000000000E+00 -0.00000000000E+00 -0.18779586889E+04  0.18779586889E+04  0.00000000000E+00 0.  1.
      99926    2    1    2    0    0  0.14210854715E-13  0.00000000000E+00 -0.18517963744E+04  0.19041210034E+04  0.44331364003E+03 0.  0.
      99925    2    3    3    0    0 -0.84003639544E+02  0.56175675798E+02 -0.12293169910E+04  0.12612054500E+04  0.26307148206E+03 0.  0.
         25    1    4    4    0    0 -0.10524362392E+01  0.34000814134E+02 -0.53076960605E+03  0.54637079515E+03  0.12509000000E+03 0.  0.
         25    1    4    4    0    0 -0.82951203305E+02  0.22174861665E+02 -0.69854738497E+03  0.71483465484E+03  0.12509000000E+03 0.  0.
         25    1    3    3    0    0  0.84003639544E+02 -0.56175675798E+02 -0.62247938335E+03  0.64291555340E+03  0.12509000000E+03 0.  0.
<mgrwt>
<rscale>  2 0.44331364E+03</rscale>
<asrwt>0</asrwt>
<pdfrwt beam="1">  1       21 0.38473965E-02 0.44331364E+03</pdfrwt>
<pdfrwt beam="2">  1       21 0.27617059E+00 0.44331364E+03</pdfrwt>
<totfact> 0.16812866E+04</totfact>
</mgrwt>
</event>
<event>
 7    0  0.4770865E-002  0.4521728E+03  0.7546771E-02  0.1027076E+00
         21   -1    0    0  502  501  0.00000000000E+00  0.00000000000E+00  0.22745458554E+03  0.22745458554E+03  0.00000000000E+00 0.  1.
         21   -1    0    0  501  502 -0.00000000000E+00 -0.00000000000E+00 -0.22472640128E+03  0.22472640128E+03  0.00000000000E+00 0.  1.
      99926    2    1    2    0    0  0.00000000000E+00  0.00000000000E+00  0.27281842555E+01  0.45218098682E+03  0.45217275664E+03 0.  0.
      99925    2    3    3    0    0  0.81491253904E+02  0.74659701454E+02  0.14230156457E+01  0.28525553325E+03  0.26297109878E+03 0.  0.
         25    1    4    4    0    0  0.61261602179E+02  0.12463690660E+02  0.25246908741E+02  0.14210292744E+03  0.12509000000E+03 0.  0.
         25    1    3    3    0    0 -0.81491253904E+02 -0.74659701454E+02  0.13051686097E+01  0.16692545357E+03  0.12509000000E+03 0.  0.
         25    1    4    4    0    0  0.20229651725E+02  0.62196010794E+02 -0.23823893095E+02  0.14315260581E+03  0.12509000000E+03 0.  0.
<mgrwt>
<rscale>  2 0.45217276E+03</rscale>
<asrwt>0</asrwt>
<pdfrwt beam="1">  1       21 0.33449204E-01 0.45217276E+03</pdfrwt>
<pdfrwt beam="2">  1       21 0.33048000E-01 0.45217276E+03</pdfrwt>
<totfact> 0.70325909E+04</totfact>
</mgrwt>
</event>
<event>
 7    0  0.4770865E-002  0.4497198E+03  0.7546771E-02  0.1027806E+00
         21   -1    0    0  502  501  0.00000000000E+00  0.00000000000E+00  0.28107260060E+03  0.28107260060E+03  0.00000000000E+00 0. -1.
         21   -1    0    0  501  502 -0.00000000000E+00 -0.00000000000E+00 -0.17988937816E+03  0.17988937816E+03  0.00000000000E+00 0. -1.
      99926    2    1    2    0    0  0.00000000000E+00  0.00000000000E+00  0.10118322244E+03  0.46096197876E+03  0.44971980316E+03 0.  0.
      99925    2    3    3    0    0  0.50443286905E+02 -0.77559912672E+02  0.66822904808E+01  0.27892352269E+03  0.26304678910E+03 0.  0.
         25    1    4    4    0    0  0.26559954518E+02 -0.27554472037E+02  0.42416316197E+02  0.13751847910E+03  0.12509000000E+03 0.  0.
         25    1    3    3    0    0 -0.50443286905E+02  0.77559912672E+02  0.94500931960E+02  0.18203845607E+03  0.12509000000E+03 0.  0.
         25    1    4    4    0    0  0.23883332387E+02 -0.50005440635E+02 -0.35734025716E+02  0.14140504359E+03  0.12509000000E+03 0.  0.
<mgrwt>
<rscale>  2 0.44971980E+03</rscale>
<asrwt>0</asrwt>
<pdfrwt beam="1">  1       21 0.41334206E-01 0.44971980E+03</pdfrwt>
<pdfrwt beam="2">  1       21 0.26454320E-01 0.44971980E+03</pdfrwt>
<totfact> 0.71043418E+04</totfact>
</mgrwt>
</event>
<event>
 7    0  0.4770865E-002  0.4521246E+03  0.7546771E-02  0.1027090E+00
         21   -1    0    0  502  501  0.00000000000E+00  0.00000000000E+00  0.16916537226E+04  0.16916537226E+04  0.00000000000E+00 0. -1.
         21   -1    0    0  501  502 -0.00000000000E+00 -0.00000000000E+00 -0.30209583037E+02  0.30209583037E+02  0.00000000000E+00 0. -1.
      99926    2    1    2    0    0  0.53290705182E-14  0.00000000000E+00  0.16614441395E+04  0.17218633056E+04  0.45212455630E+03 0.  0.
      99925    2    3    3    0    0  0.12982332646E+02  0.43358628722E+02  0.66451457700E+03  0.71609764085E+03  0.26299752193E+03 0.  0.
         25    1    4    4    0    0  0.43586937842E+02  0.38411328549E+02  0.33555182309E+03  0.36279165562E+03  0.12509000000E+03 0.  0.
         25    1    3    3    0    0 -0.12982332646E+02 -0.43358628722E+02  0.99692956254E+03  0.10057656648E+04  0.12509000000E+03 0.  0.
         25    1    4    4    0    0 -0.30604605196E+02  0.49473001722E+01  0.32896275391E+03  0.35330598523E+03  0.12509000000E+03 0.  0.
<mgrwt>
<rscale>  2 0.45212456E+03</rscale>
<asrwt>0</asrwt>
<pdfrwt beam="1">  1       21 0.24877254E+00 0.45212456E+03</pdfrwt>
<pdfrwt beam="2">  1       21 0.44425869E-02 0.45212456E+03</pdfrwt>
<totfact> 0.19236144E+04</totfact>
</mgrwt>
</event>
<event>
 7    0  0.4770865E-002  0.4581835E+03  0.7546771E-02  0.1025309E+00
         21   -1    0    0  502  501  0.00000000000E+00  0.00000000000E+00  0.55275778202E+03  0.55275778202E+03  0.00000000000E+00 0.  1.
         21   -1    0    0  501  502 -0.00000000000E+00 -0.00000000000E+00 -0.94947608092E+02  0.94947608092E+02  0.00000000000E+00 0.  1.
      99926    2    1    2    0    0  0.00000000000E+00  0.00000000000E+00  0.45781017393E+03  0.64770539011E+03  0.45818349711E+03 0.  0.
      99925    2    3    3    0    0 -0.77560054548E+02 -0.20329206258E+02  0.16846848222E+03  0.32244401622E+03  0.26298227203E+03 0.  0.
         25    1    4    4    0    0 -0.57896007234E+02 -0.10003044144E+02  0.45149096708E+02  0.14538898713E+03  0.12509000000E+03 0.  0.
         25    1    4    4    0    0 -0.19664047315E+02 -0.10326162113E+02  0.12331938552E+03  0.17705502909E+03  0.12509000000E+03 0.  0.
         25    1    3    3    0    0  0.77560054548E+02  0.20329206258E+02  0.28934169170E+03  0.32526137389E+03  0.12509000000E+03 0.  0.
<mgrwt>
<rscale>  2 0.45818350E+03</rscale>
<asrwt>0</asrwt>
<pdfrwt beam="1">  1       21 0.81287907E-01 0.45818350E+03</pdfrwt>
<pdfrwt beam="2">  1       21 0.13962884E-01 0.45818350E+03</pdfrwt>
<totfact> 0.54453228E+04</totfact>
</mgrwt>
</event>
<event>
 7    0  0.4770865E-002  0.4517387E+03  0.7546771E-02  0.1027205E+00
         21   -1    0    0  502  501  0.00000000000E+00  0.00000000000E+00  0.42878053171E+02  0.42878053171E+02  0.00000000000E+00 0. -1.
         21   -1    0    0  501  502 -0.00000000000E+00 -0.00000000000E+00 -0.11898152781E+04  0.11898152781E+04  0.00000000000E+00 0. -1.
      99926    2    1    2    0    0  0.00000000000E+00  0.00000000000E+00 -0.11469372249E+04  0.12326933312E+04  0.45173869773E+03 0.  0.
      99925    2    3    3    0    0  0.25579540468E+02 -0.73556059947E+02 -0.51160799673E+03  0.58050045861E+03  0.26300804794E+03 0.  0.
         25    1    3    3    0    0 -0.25579540468E+02  0.73556059947E+02 -0.63532922817E+03  0.65219287264E+03  0.12509000000E+03 0.  0.
         25    1    4    4    0    0 -0.52535827912E+01 -0.55670603251E+02 -0.32818933051E+03  0.35564386816E+03  0.12509000000E+03 0.  0.
         25    1    4    4    0    0  0.30833123259E+02 -0.17885456696E+02 -0.18341866621E+03  0.22485659045E+03  0.12509000000E+03 0.  0.
<mgrwt>
<rscale>  2 0.45173870E+03</rscale>
<asrwt>0</asrwt>
<pdfrwt beam="1">  1       21 0.63055964E-02 0.45173870E+03</pdfrwt>
<pdfrwt beam="2">  1       21 0.17497283E+00 0.45173870E+03</pdfrwt>
<totfact> 0.31937028E+04</totfact>
</mgrwt>
</event>
<event>
 7    0  0.4770865E-002  0.4474729E+03  0.7546771E-02  0.1028478E+00
         21   -1    0    0  502  501  0.00000000000E+00  0.00000000000E+00  0.99410503524E+03  0.99410503524E+03  0.00000000000E+00 0. -1.
         21   -1    0    0  501  502 -0.00000000000E+00 -0.00000000000E+00 -0.50354837921E+02  0.50354837921E+02  0.00000000000E+00 0. -1.
      99926    2    1    2    0    0  0.00000000000E+00  0.00000000000E+00  0.94375019732E+03  0.10444598732E+04  0.44747289494E+03 0.  0.
      99925    2    3    3    0    0  0.72900074606E+02 -0.76728570943E+02  0.57165483550E+03  0.63788372917E+03  0.26249706001E+03 0.  0.
         25    1    3    3    0    0 -0.72900074606E+02  0.76728570943E+02  0.37209536182E+03  0.40657614399E+03  0.12509000000E+03 0.  0.
         25    1    4    4    0    0  0.22499987776E+02 -0.56936226861E+02  0.21601481475E+03  0.25701729839E+03  0.12509000000E+03 0.  0.
         25    1    4    4    0    0  0.50400086830E+02 -0.19792344081E+02  0.35564002075E+03  0.38086643078E+03  0.12509000000E+03 0.  0.
<mgrwt>
<rscale>  2 0.44747289E+03</rscale>
<asrwt>0</asrwt>
<pdfrwt beam="1">  1       21 0.14619190E+00 0.44747289E+03</pdfrwt>
<pdfrwt beam="2">  1       21 0.74051239E-02 0.44747289E+03</pdfrwt>
<totfact> 0.39766921E+04</totfact>
</mgrwt>
</event>
<event>
 7    0  0.4770865E-002  0.4309160E+03  0.7546771E-02  0.1033571E+00
         21   -1    0    0  502  501  0.00000000000E+00  0.00000000000E+00  0.37019138906E+03  0.37019138906E+03  0.00000000000E+00 0. -1.
         21   -1    0    0  501  502 -0.00000000000E+00 -0.00000000000E+00 -0.12540040283E+03  0.12540040283E+03  0.00000000000E+00 0. -1.
      99926    2    1    2    0    0  0.00000000000E+00  0.71054273576E-14  0.24479098623E+03  0.49559179190E+03  0.43091599791E+03 0.  0.
      99925    2    3    3    0    0 -0.45737831440E+02 -0.60105489451E+02  0.10423796213E+03  0.29284248914E+03  0.26303336596E+03 0.  0.
         25    1    4    4    0    0 -0.36183886584E+01  0.47290471269E+01  0.33364556250E+02  0.12959999358E+03  0.12509000000E+03 0.  0.
         25    1    4    4    0    0 -0.42119442781E+02 -0.64834536578E+02  0.70873405882E+02  0.16324249555E+03  0.12509000000E+03 0.  0.
         25    1    3    3    0    0  0.45737831440E+02  0.60105489451E+02  0.14055302409E+03  0.20274930276E+03  0.12509000000E+03 0.  0.
<mgrwt>
<rscale>  2 0.43091600E+03</rscale>
<asrwt>0</asrwt>
<pdfrwt beam="1">  1       21 0.54439910E-01 0.43091600E+03</pdfrwt>
<pdfrwt beam="2">  1       21 0.18441236E-01 0.43091600E+03</pdfrwt>
<totfact> 0.79770907E+04</totfact>
</mgrwt>
</event>
<event>
 7    0  0.4770865E-002  0.4384983E+03  0.7546771E-02  0.1031209E+00
         21   -1    0    0  502  501  0.00000000000E+00  0.00000000000E+00  0.71236718772E+02  0.71236718772E+02  0.00000000000E+00 0. -1.
         21   -1    0    0  501  502 -0.00000000000E+00 -0.00000000000E+00 -0.67479512504E+03  0.67479512504E+03  0.00000000000E+00 0. -1.
      99926    2    1    2    0    0  0.00000000000E+00  0.00000000000E+00 -0.60355840626E+03  0.74603184381E+03  0.43849830353E+03 0.  0.
      99925    2    3    3    0    0 -0.32593634474E+02  0.49763959895E+02 -0.51594829206E+03  0.58213603263E+03  0.26294661756E+03 0.  0.
         25    1    4    4    0    0 -0.48725251945E+02  0.13018717879E+02 -0.30701004576E+03  0.33533015595E+03  0.12509000000E+03 0.  0.
         25    1    4    4    0    0  0.16131617471E+02  0.36745242016E+02 -0.20893824630E+03  0.24680587667E+03  0.12509000000E+03 0.  0.
         25    1    3    3    0    0  0.32593634474E+02 -0.49763959895E+02 -0.87610114201E+02  0.16389581118E+03  0.12509000000E+03 0.  0.
<mgrwt>
<rscale>  2 0.43849830E+03</rscale>
<asrwt>0</asrwt>
<pdfrwt beam="1">  1       21 0.10475988E-01 0.43849830E+03</pdfrwt>
<pdfrwt beam="2">  1       21 0.99234581E-01 0.43849830E+03</pdfrwt>
<totfact> 0.57587811E+04</totfact>
</mgrwt>
</event>
<event>
 7    0  0.4770865E-002  0.4564760E+03  0.7546771E-02  0.1025808E+00
         21   -1    0    0  502  501  0.00000000000E+00  0.00000000000E+00  0.27024969146E+04  0.27024969146E+04  0.00000000000E+00 0.  1.
         21   -1    0    0  501  502 -0.00000000000E+00 -0.00000000000E+00 -0.19275725199E+02  0.19275725199E+02  0.00000000000E+00 0.  1.
      99926    2    1    2    0    0 -0.71054273576E-14  0.00000000000E+00  0.26832211894E+04  0.27217726398E+04  0.45647601417E+03 0.  0.
      99925    2    3    3    0    0 -0.59532259365E+02 -0.56372710561E+02  0.21632848426E+04  0.21807520439E+04  0.26297565323E+03 0.  0.
         25    1    4    4    0    0 -0.52348309063E+01 -0.22524268857E+02  0.12873697311E+04  0.12936394702E+04  0.12509000000E+03 0.  0.
         25    1    3    3    0    0  0.59532259365E+02  0.56372710561E+02  0.51993634678E+03  0.54102059591E+03  0.12509000000E+03 0.  0.
         25    1    4    4    0    0 -0.54297428459E+02 -0.33848441704E+02  0.87591511150E+03  0.88711257369E+03  0.12509000000E+03 0.  0.
<mgrwt>
<rscale>  2 0.45647601E+03</rscale>
<asrwt>0</asrwt>
<pdfrwt beam="1">  1       21 0.39742576E+00 0.45647601E+03</pdfrwt>
<pdfrwt beam="2">  1       21 0.28346673E-02 0.45647601E+03</pdfrwt>
<totfact> 0.50603030E+03</totfact>
</mgrwt>
</event>
<event>
 7    0  0.4770865E-002  0.4220907E+03  0.7546771E-02  0.1036388E+00
         21   -1    0    0  502  501  0.00000000000E+00  0.00000000000E+00  0.41581950229E+03  0.41581950229E+03  0.00000000000E+00 0. -1.
         21   -1    0    0  501  502 -0.00000000000E+00 -0.00000000000E+00 -0.10711413515E+03  0.10711413515E+03  0.00000000000E+00 0. -1.
      99926    2    1    2    0    0  0.14210854715E-13  0.00000000000E+00  0.30870536714E+03  0.52293363744E+03  0.42209073132E+03 0.  0.
      99925    2    3    3    0    0 -0.69029234947E+02 -0.23335498036E+02  0.23626926898E+03  0.36105690297E+03  0.26311468787E+03 0.  0.
         25    1    4    4    0    0  0.18631256953E-01 -0.31791626002E+02  0.98104678925E+02  0.16211953602E+03  0.12509000000E+03 0.  0.
         25    1    3    3    0    0  0.69029234947E+02  0.23335498036E+02  0.72436098157E+02  0.16187673447E+03  0.12509000000E+03 0.  0.
         25    1    4    4    0    0 -0.69047866204E+02  0.84561279662E+01  0.13816459005E+03  0.19893736696E+03  0.12509000000E+03 0.  0.
<mgrwt>
<rscale>  2 0.42209073E+03</rscale>
<asrwt>0</asrwt>
<pdfrwt beam="1">  1       21 0.61149926E-01 0.42209073E+03</pdfrwt>
<pdfrwt beam="2">  1       21 0.15752079E-01 0.42209073E+03</pdfrwt>
<totfact> 0.83385106E+04</totfact>
</mgrwt>
</event>
<event>
 7    0  0.4770865E-002  0.4610486E+03  0.7546771E-02  0.1024478E+00
         21   -1    0    0  502  501  0.00000000000E+00  0.00000000000E+00  0.76509215279E+02  0.76509215279E+02  0.00000000000E+00 0.  1.
         21   -1    0    0  501  502 -0.00000000000E+00 -0.00000000000E+00 -0.69457596581E+03  0.69457596581E+03  0.00000000000E+00 0.  1.
      99926    2    1    2    0    0  0.00000000000E+00  0.00000000000E+00 -0.61806675053E+03  0.77108518109E+03  0.46104863993E+03 0.  0.
      99925    2    3    3    0    0 -0.27736948178E+02 -0.10583533576E+03 -0.31030282002E+03  0.42131868525E+03  0.26315610925E+03 0.  0.
         25    1    3    3    0    0  0.27736948178E+02  0.10583533576E+03 -0.30776393051E+03  0.34976649584E+03  0.12509000000E+03 0.  0.
         25    1    4    4    0    0  0.82053657895E+01 -0.85267075019E+02 -0.18825669124E+03  0.24171448448E+03  0.12509000000E+03 0.  0.
         25    1    4    4    0    0 -0.35942313968E+02 -0.20568260745E+02 -0.12204612878E+03  0.17960420077E+03  0.12509000000E+03 0.  0.
<mgrwt>
<rscale>  2 0.46104864E+03</rscale>
<asrwt>0</asrwt>
<pdfrwt beam="1">  1       21 0.11251355E-01 0.46104864E+03</pdfrwt>
<pdfrwt beam="2">  1       21 0.10214353E+00 0.46104864E+03</pdfrwt>
<totfact> 0.46926991E+04</totfact>
</mgrwt>
</event>
<event>
 7    0  0.4770865E-002  0.4589165E+03  0.7546771E-02  0.1025096E+00
         21   -1    0    0  502  501  0.00000000000E+00  0.00000000000E+00  0.71266258706E+03  0.71266258706E+03  0.00000000000E+00 0.  1.
         21   -1    0    0  501  502 -0.00000000000E+00 -0.00000000000E+00 -0.73879398800E+02  0.73879398800E+02  0.00000000000E+00 0.  1.
      99926    2    1    2    0    0  0.00000000000E+00  0.00000000000E+00  0.63878318826E+03  0.78654198586E+03  0.45891647815E+03 0.  0.
      99925    2    3    3    0    0  0.11382967792E+03 -0.26735345566E+02  0.39486351168E+03  0.48852136409E+03  0.26280022077E+03 0.  0.
         25    1    4    4    0    0  0.46739987779E+02  0.13498428487E+02  0.13937764665E+03  0.19349540179E+03  0.12509000000E+03 0.  0.
         25    1    4    4    0    0  0.67089690145E+02 -0.40233774054E+02  0.25548586503E+03  0.29502596229E+03  0.12509000000E+03 0.  0.
         25    1    3    3    0    0 -0.11382967792E+03  0.26735345566E+02  0.24391967659E+03  0.29802062178E+03  0.12509000000E+03 0.  0.
<mgrwt>
<rscale>  2 0.45891648E+03</rscale>
<asrwt>0</asrwt>
<pdfrwt beam="1">  1       21 0.10480332E+00 0.45891648E+03</pdfrwt>
<pdfrwt beam="2">  1       21 0.10864618E-01 0.45891648E+03</pdfrwt>
<totfact> 0.46962373E+04</totfact>
</mgrwt>
</event>
<event>
 7    0  0.4770865E-002  0.4556166E+03  0.7546771E-02  0.1026060E+00
         21   -1    0    0  502  501  0.00000000000E+00  0.00000000000E+00  0.16721383599E+04  0.16721383599E+04  0.00000000000E+00 0. -1.
         21   -1    0    0  501  502 -0.00000000000E+00 -0.00000000000E+00 -0.31036084545E+02  0.31036084545E+02  0.00000000000E+00 0. -1.
      99926    2    1    2    0    0  0.00000000000E+00  0.71054273576E-14  0.16411022754E+04  0.17031744445E+04  0.45561662617E+03 0.  0.
      99925    2    3    3    0    0 -0.97970430478E+02 -0.51608263242E+02  0.11094129362E+04  0.11458570487E+04  0.26444223389E+03 0.  0.
         25    1    4    4    0    0 -0.14748629524E+02 -0.11903546669E+01  0.56346192493E+03  0.57736971515E+03  0.12509000000E+03 0.  0.
         25    1    3    3    0    0  0.97970430478E+02  0.51608263242E+02  0.53168933922E+03  0.55731739577E+03  0.12509000000E+03 0.  0.
         25    1    4    4    0    0 -0.83221800954E+02 -0.50417908576E+02  0.54595101123E+03  0.56848733357E+03  0.12509000000E+03 0.  0.
<mgrwt>
<rscale>  2 0.45561663E+03</rscale>
<asrwt>0</asrwt>
<pdfrwt beam="1">  1       21 0.24590264E+00 0.45561663E+03</pdfrwt>
<pdfrwt beam="2">  1       21 0.45641312E-02 0.45561663E+03</pdfrwt>
<totfact> 0.19104107E+04</totfact>
</mgrwt>
</event>
<event>
 7    0  0.4770865E-002  0.4572892E+03  0.7546771E-02  0.1025570E+00
         21   -1    0    0  502  501  0.00000000000E+00  0.00000000000E+00  0.88116731360E+02  0.88116731360E+02  0.00000000000E+00 0.  1.
         21   -1    0    0  501  502 -0.00000000000E+00 -0.00000000000E+00 -0.59328515533E+03  0.59328515533E+03  0.00000000000E+00 0.  1.
      99926    2    1    2    0    0 -0.71054273576E-14  0.35527136788E-14 -0.50516842397E+03  0.68140188669E+03  0.45728918051E+03 0.  0.
      99925    2    3    3    0    0  0.42625925947E+02  0.29284581132E+02 -0.16366033045E+03  0.31404668760E+03  0.26299441435E+03 0.  0.
         25    1    4    4    0    0 -0.13790811979E+01  0.37813823183E+02 -0.52632523341E+02  0.14088817446E+03  0.12509000000E+03 0.  0.
         25    1    3    3    0    0 -0.42625925947E+02 -0.29284581132E+02 -0.34150809352E+03  0.36735519909E+03  0.12509000000E+03 0.  0.
         25    1    4    4    0    0  0.44005007145E+02 -0.85292420507E+01 -0.11102780710E+03  0.17315851314E+03  0.12509000000E+03 0.  0.
<mgrwt>
<rscale>  2 0.45728918E+03</rscale>
<asrwt>0</asrwt>
<pdfrwt beam="1">  1       21 0.12958343E-01 0.45728918E+03</pdfrwt>
<pdfrwt beam="2">  1       21 0.87247814E-01 0.45728918E+03</pdfrwt>
<totfact> 0.52963399E+04</totfact>
</mgrwt>
</event>
<event>
 7    0  0.4770865E-002  0.4536375E+03  0.7546771E-02  0.1026643E+00
         21   -1    0    0  502  501  0.00000000000E+00  0.00000000000E+00  0.29634979403E+03  0.29634979403E+03  0.00000000000E+00 0.  1.
         21   -1    0    0  501  502 -0.00000000000E+00 -0.00000000000E+00 -0.17360143689E+03  0.17360143689E+03  0.00000000000E+00 0.  1.
      99926    2    1    2    0    0  0.00000000000E+00 -0.14210854715E-13  0.12274835714E+03  0.46995123092E+03  0.45363752078E+03 0.  0.
      99925    2    3    3    0    0 -0.73218152796E+02  0.83809733054E+02  0.64913283087E+02  0.29281463633E+03  0.26294810833E+03 0.  0.
         25    1    4    4    0    0 -0.41945509444E+02  0.23051370323E+01  0.17713941198E+02  0.13313914237E+03  0.12509000000E+03 0.  0.
         25    1    4    4    0    0 -0.31272643352E+02  0.81504596021E+02  0.47199341889E+02  0.15967549395E+03  0.12509000000E+03 0.  0.
         25    1    3    3    0    0  0.73218152796E+02 -0.83809733054E+02  0.57835074049E+02  0.17713659459E+03  0.12509000000E+03 0.  0.
<mgrwt>
<rscale>  2 0.45363752E+03</rscale>
<asrwt>0</asrwt>
<pdfrwt beam="1">  1       21 0.43580852E-01 0.45363752E+03</pdfrwt>
<pdfrwt beam="2">  1       21 0.25529623E-01 0.45363752E+03</pdfrwt>
<totfact> 0.68173249E+04</totfact>
</mgrwt>
</event>
<event>
 7    0  0.4770865E-002  0.4510783E+03  0.7546771E-02  0.1027401E+00
         21   -1    0    0  502  501  0.00000000000E+00  0.00000000000E+00  0.78106733063E+02  0.78106733063E+02  0.00000000000E+00 0. -1.
         21   -1    0    0  501  502 -0.00000000000E+00 -0.00000000000E+00 -0.65126138264E+03  0.65126138264E+03  0.00000000000E+00 0. -1.
      99926    2    1    2    0    0  0.14210854715E-13  0.88817841970E-15 -0.57315464958E+03  0.72936811570E+03  0.45107825914E+03 0.  0.
      99925    2    3    3    0    0 -0.10888604555E+03  0.72580191810E+01 -0.34915338673E+03  0.45056186826E+03  0.26303813394E+03 0.  0.
         25    1    4    4    0    0 -0.32661844993E+02 -0.29639243498E+02 -0.18288118600E+03  0.22591661551E+03  0.12509000000E+03 0.  0.
         25    1    3    3    0    0  0.10888604555E+03 -0.72580191810E+01 -0.22400126285E+03  0.27880624745E+03  0.12509000000E+03 0.  0.
         25    1    4    4    0    0 -0.76224200557E+02  0.36897262679E+02 -0.16627220073E+03  0.22464525274E+03  0.12509000000E+03 0.  0.
<mgrwt>
<rscale>  2 0.45107826E+03</rscale>
<asrwt>0</asrwt>
<pdfrwt beam="1">  1       21 0.11486285E-01 0.45107826E+03</pdfrwt>
<pdfrwt beam="2">  1       21 0.95773730E-01 0.45107826E+03</pdfrwt>
<totfact> 0.52951508E+04</totfact>
</mgrwt>
</event>
<event>
 7    0  0.4770865E-002  0.4567588E+03  0.7546771E-02  0.1025725E+00
         21   -1    0    0  502  501  0.00000000000E+00  0.00000000000E+00  0.47029069389E+03  0.47029069389E+03  0.00000000000E+00 0.  1.
         21   -1    0    0  501  502 -0.00000000000E+00 -0.00000000000E+00 -0.11090405807E+03  0.11090405807E+03  0.00000000000E+00 0.  1.
      99926    2    1    2    0    0 -0.71054273576E-14  0.71054273576E-14  0.35938663581E+03  0.58119475196E+03  0.45675878284E+03 0.  0.
      99925    2    3    3    0    0 -0.39922281173E+02  0.48471826759E+02  0.34807883665E+03  0.44077153114E+03  0.26301589233E+03 0.  0.
         25    1    3    3    0    0  0.39922281173E+02 -0.48471826759E+02  0.11307799168E+02  0.14042322082E+03  0.12509000000E+03 0.  0.
         25    1    4    4    0    0 -0.24020554361E+02  0.53188612151E+02  0.22832758990E+03  0.26680894270E+03  0.12509000000E+03 0.  0.
         25    1    4    4    0    0 -0.15901726812E+02 -0.47167853913E+01  0.11975124674E+03  0.17396258844E+03  0.12509000000E+03 0.  0.
<mgrwt>
<rscale>  2 0.45675878E+03</rscale>
<asrwt>0</asrwt>
<pdfrwt beam="1">  1       21 0.69160395E-01 0.45675878E+03</pdfrwt>
<pdfrwt beam="2">  1       21 0.16309421E-01 0.45675878E+03</pdfrwt>
<totfact> 0.59025979E+04</totfact>
</mgrwt>
</event>
<event>
 7    0  0.4770865E-002  0.4664223E+03  0.7546771E-02  0.1022935E+00
         21   -1    0    0  502  501  0.00000000000E+00  0.00000000000E+00  0.30832479148E+03  0.30832479148E+03  0.00000000000E+00 0. -1.
         21   -1    0    0  501  502 -0.00000000000E+00 -0.00000000000E+00 -0.17639657579E+03  0.17639657579E+03  0.00000000000E+00 0. -1.
      99926    2    1    2    0    0 -0.71054273576E-14  0.00000000000E+00  0.13192821569E+03  0.48472136727E+03  0.46642228698E+03 0.  0.
      99925    2    3    3    0    0 -0.32630623184E+02 -0.41803183785E+02 -0.33814600003E+02  0.27040745545E+03  0.26299144672E+03 0.  0.
         25    1    3    3    0    0  0.32630623184E+02  0.41803183785E+02  0.16574281569E+03  0.21431391181E+03  0.12509000000E+03 0.  0.
         25    1    4    4    0    0  0.12945304932E+02 -0.34068646869E+02 -0.41739818764E+02  0.13681364767E+03  0.12509000000E+03 0.  0.
         25    1    4    4    0    0 -0.45575928116E+02 -0.77345369167E+01  0.79252187609E+01  0.13359380778E+03  0.12509000000E+03 0.  0.
<mgrwt>
<rscale>  2 0.46642229E+03</rscale>
<asrwt>0</asrwt>
<pdfrwt beam="1">  1       21 0.45341881E-01 0.46642229E+03</pdfrwt>
<pdfrwt beam="2">  1       21 0.25940673E-01 0.46642229E+03</pdfrwt>
<totfact> 0.60668611E+04</totfact>
</mgrwt>
</event>
<event>
 7    0  0.4770865E-002  0.4559471E+03  0.7546771E-02  0.1025963E+00
         21   -1    0    0  502  501  0.00000000000E+00  0.00000000000E+00  0.15854745630E+04  0.15854745630E+04  0.00000000000E+00 0. -1.
         21   -1    0    0  501  502 -0.00000000000E+00 -0.00000000000E+00 -0.32780053437E+02  0.32780053437E+02  0.00000000000E+00 0. -1.
      99926    2    1    2    0    0  0.00000000000E+00  0.88817841970E-15  0.15526945096E+04  0.16182546164E+04  0.45594710614E+03 0.  0.
      99925    2    3    3    0    0 -0.19774985117E+02 -0.65484216589E+01  0.13755631327E+04  0.14004084215E+04  0.26179358894E+03 0.  0.
         25    1    4    4    0    0 -0.42447216587E+02 -0.15419313811E+02  0.79245370272E+03  0.80353587380E+03  0.12509000000E+03 0.  0.
         25    1    4    4    0    0  0.22672231470E+02  0.88708921521E+01  0.58310942998E+03  0.59687254774E+03  0.12509000000E+03 0.  0.
         25    1    3    3    0    0  0.19774985117E+02  0.65484216589E+01  0.17713137686E+03  0.21784619490E+03  0.12509000000E+03 0.  0.
<mgrwt>
<rscale>  2 0.45594711E+03</rscale>
<asrwt>0</asrwt>
<pdfrwt beam="1">  1       21 0.23315797E+00 0.45594711E+03</pdfrwt>
<pdfrwt beam="2">  1       21 0.48205971E-02 0.45594711E+03</pdfrwt>
<totfact> 0.20866531E+04</totfact>
</mgrwt>
</event>
<event>
 7    0  0.4770865E-002  0.4676396E+03  0.7546771E-02  0.1022589E+00
         21   -1    0    0  502  501  0.00000000000E+00  0.00000000000E+00  0.36825068578E+02  0.36825068578E+02  0.00000000000E+00 0.  1.
         21   -1    0    0  501  502 -0.00000000000E+00 -0.00000000000E+00 -0.14846326759E+04  0.14846326759E+04  0.00000000000E+00 0.  1.
      99926    2    1    2    0    0  0.35527136788E-14  0.00000000000E+00 -0.14478076073E+04  0.15214577444E+04  0.46763960526E+03 0.  0.
      99925    2    3    3    0    0 -0.27221223814E+02  0.15089015018E+02 -0.12925493379E+04  0.13196625222E+04  0.26430419644E+03 0.  0.
         25    1    3    3    0    0  0.27221223814E+02 -0.15089015018E+02 -0.15525826942E+03  0.20179522225E+03  0.12509000000E+03 0.  0.
         25    1    4    4    0    0 -0.24471101519E+02  0.40918461196E+02 -0.78170588399E+03  0.79308558961E+03  0.12509000000E+03 0.  0.
         25    1    4    4    0    0 -0.27501222946E+01 -0.25829446178E+02 -0.51084345388E+03  0.52657693259E+03  0.12509000000E+03 0.  0.
<mgrwt>
<rscale>  2 0.46763961E+03</rscale>
<asrwt>0</asrwt>
<pdfrwt beam="1">  1       21 0.54154514E-02 0.46763961E+03</pdfrwt>
<pdfrwt beam="2">  1       21 0.21832833E+00 0.46763961E+03</pdfrwt>
<totfact> 0.21108609E+04</totfact>
</mgrwt>
</event>
<event>
 7    0  0.4770865E-002  0.4531479E+03  0.7546771E-02  0.1026787E+00
         21   -1    0    0  502  501  0.00000000000E+00  0.00000000000E+00  0.50815295560E+03  0.50815295560E+03  0.00000000000E+00 0. -1.
         21   -1    0    0  501  502 -0.00000000000E+00 -0.00000000000E+00 -0.10102421939E+03  0.10102421939E+03  0.00000000000E+00 0. -1.
      99926    2    1    2    0    0 -0.35527136788E-14  0.00000000000E+00  0.40712873621E+03  0.60917717500E+03  0.45314790376E+03 0.  0.
      99925    2    3    3    0    0  0.31261011014E+02  0.50641368407E+02  0.13025101109E+03  0.29957972382E+03  0.26313662997E+03 0.  0.
         25    1    3    3    0    0 -0.31261011014E+02 -0.50641368407E+02  0.27687772513E+03  0.30959745118E+03  0.12509000000E+03 0.  0.
         25    1    4    4    0    0  0.50511170063E+02  0.39739461602E+02  0.87087069816E+02  0.16541544347E+03  0.12509000000E+03 0.  0.
         25    1    4    4    0    0 -0.19250159049E+02  0.10901906805E+02  0.43163941271E+02  0.13416428035E+03  0.12509000000E+03 0.  0.
<mgrwt>
<rscale>  2 0.45314790E+03</rscale>
<asrwt>0</asrwt>
<pdfrwt beam="1">  1       21 0.74728375E-01 0.45314790E+03</pdfrwt>
<pdfrwt beam="2">  1       21 0.14856503E-01 0.45314790E+03</pdfrwt>
<totfact> 0.58974984E+04</totfact>
</mgrwt>
</event>
<event>
 7    0  0.4770865E-002  0.4591860E+03  0.7546771E-02  0.1025018E+00
         21   -1    0    0  502  501  0.00000000000E+00  0.00000000000E+00  0.42253199622E+03  0.42253199622E+03  0.00000000000E+00 0. -1.
         21   -1    0    0  501  502 -0.00000000000E+00 -0.00000000000E+00 -0.12475492587E+03  0.12475492587E+03  0.00000000000E+00 0. -1.
      99926    2    1    2    0    0  0.61062266354E-15  0.14210854715E-13  0.29777707035E+03  0.54728692208E+03  0.45918600965E+03 0.  0.
      99925    2    3    3    0    0  0.39951693165E+00  0.11684477989E+03  0.19693152004E+03  0.34861584890E+03  0.26286522083E+03 0.  0.
         25    1    4    4    0    0  0.22375888107E+02  0.69530565483E+02  0.14051629958E+03  0.20181060045E+03  0.12509000000E+03 0.  0.
         25    1    4    4    0    0 -0.21976371175E+02  0.47314214406E+02  0.56415220458E+02  0.14680524846E+03  0.12509000000E+03 0.  0.
         25    1    3    3    0    0 -0.39951693165E+00 -0.11684477989E+03  0.10084555031E+03  0.19867107318E+03  0.12509000000E+03 0.  0.
<mgrwt>
<rscale>  2 0.45918601E+03</rscale>
<asrwt>0</asrwt>
<pdfrwt beam="1">  1       21 0.62137058E-01 0.45918601E+03</pdfrwt>
<pdfrwt beam="2">  1       21 0.18346313E-01 0.45918601E+03</pdfrwt>
<totfact> 0.60032898E+04</totfact>
</mgrwt>
</event>
<event>
 7    0  0.4770865E-002  0.4461005E+03  0.7546771E-02  0.1028891E+00
         21   -1    0    0  502  501  0.00000000000E+00  0.00000000000E+00  0.55226721965E+03  0.55226721965E+03  0.00000000000E+00 0. -1.
         21   -1    0    0  501  502 -0.00000000000E+00 -0.00000000000E+00 -0.90085770211E+02  0.90085770211E+02  0.00000000000E+00 0. -1.
      99926    2    1    2    0    0  0.00000000000E+00  0.00000000000E+00  0.46218144944E+03  0.64235298986E+03  0.44610051712E+03 0.  0.
      99925    2    3    3    0    0  0.42912623749E+02 -0.83119968114E+02  0.36064211225E+03  0.45605170840E+03  0.26300191108E+03 0.  0.
         25    1    4    4    0    0 -0.17501863288E+02 -0.35607281488E+02  0.15014694902E+03  0.19941366080E+03  0.12509000000E+03 0.  0.
         25    1    3    3    0    0 -0.42912623749E+02  0.83119968114E+02  0.10153933719E+03  0.18630128146E+03  0.12509000000E+03 0.  0.
         25    1    4    4    0    0  0.60414487037E+02 -0.47512686625E+02  0.21049516323E+03  0.25663804760E+03  0.12509000000E+03 0.  0.
<mgrwt>
<rscale>  2 0.44610052E+03</rscale>
<asrwt>0</asrwt>
<pdfrwt beam="1">  1       21 0.81215765E-01 0.44610052E+03</pdfrwt>
<pdfrwt beam="2">  1       21 0.13247908E-01 0.44610052E+03</pdfrwt>
<totfact> 0.60265889E+04</totfact>
</mgrwt>
</event>
<event>
 7    0  0.4770865E-002  0.4509738E+03  0.7546771E-02  0.1027432E+00
         21   -1    0    0  502  501  0.00000000000E+00  0.00000000000E+00  0.16978829485E+03  0.16978829485E+03  0.00000000000E+00 0.  1.
         21   -1    0    0  501  502 -0.00000000000E+00 -0.00000000000E+00 -0.29945723247E+03  0.29945723247E+03  0.00000000000E+00 0.  1.
      99926    2    1    2    0    0 -0.14210854715E-13  0.00000000000E+00 -0.12966893762E+03  0.46924552732E+03  0.45097375925E+03 0.  0.
      99925    2    3    3    0    0  0.77715935945E+02 -0.68361107563E+02 -0.11854144063E+03  0.30650543694E+03  0.26302186602E+03 0.  0.
         25    1    4    4    0    0  0.24488456437E+01 -0.15407590883E+02 -0.67769226306E+02  0.14312081203E+03  0.12509000000E+03 0.  0.
         25    1    4    4    0    0  0.75267090302E+02 -0.52953516680E+02 -0.50772214327E+02  0.16338462492E+03  0.12509000000E+03 0.  0.
         25    1    3    3    0    0 -0.77715935945E+02  0.68361107563E+02 -0.11127496993E+02  0.16274009038E+03  0.12509000000E+03 0.  0.
<mgrwt>
<rscale>  2 0.45097376E+03</rscale>
<asrwt>0</asrwt>
<pdfrwt beam="1">  1       21 0.24968867E-01 0.45097376E+03</pdfrwt>
<pdfrwt beam="2">  1       21 0.44037828E-01 0.45097376E+03</pdfrwt>
<totfact> 0.69691613E+04</totfact>
</mgrwt>
</event>
<event>
 7    0  0.4770865E-002  0.4529832E+03  0.7546771E-02  0.1026836E+00
         21   -1    0    0  502  501  0.00000000000E+00  0.00000000000E+00  0.63734213891E+02  0.63734213891E+02  0.00000000000E+00 0. -1.
         21   -1    0    0  501  502 -0.00000000000E+00 -0.00000000000E+00 -0.80488072415E+03  0.80488072415E+03  0.00000000000E+00 0. -1.
      99926    2    1    2    0    0  0.00000000000E+00  0.00000000000E+00 -0.74114651026E+03  0.86861493804E+03  0.45298317951E+03 0.  0.
      99925    2    3    3    0    0 -0.27413782504E+02 -0.50832869369E+02 -0.64962335517E+03  0.70320788832E+03  0.26297401875E+03 0.  0.
         25    1    4    4    0    0 -0.46295708740E+02 -0.43586776282E+02 -0.29626002606E+03  0.32781185283E+03  0.12509000000E+03 0.  0.
         25    1    4    4    0    0  0.18881926237E+02 -0.72460930867E+01 -0.35336332911E+03  0.37539603549E+03  0.12509000000E+03 0.  0.
         25    1    3    3    0    0  0.27413782504E+02  0.50832869369E+02 -0.91523155091E+02  0.16540704972E+03  0.12509000000E+03 0.  0.
<mgrwt>
<rscale>  2 0.45298318E+03</rscale>
<asrwt>0</asrwt>
<pdfrwt beam="1">  1       21 0.93726791E-02 0.45298318E+03</pdfrwt>
<pdfrwt beam="2">  1       21 0.11836481E+00 0.45298318E+03</pdfrwt>
<totfact> 0.45330394E+04</totfact>
</mgrwt>
</event>
<event>
 7    0  0.4770865E-002  0.4116739E+03  0.7546771E-02  0.1039811E+00
         21   -1    0    0  502  501  0.00000000000E+00  0.00000000000E+00  0.27913173154E+03  0.27913173154E+03  0.00000000000E+00 0.  1.
         21   -1    0    0  501  502 -0.00000000000E+00 -0.00000000000E+00 -0.15178803413E+03  0.15178803413E+03  0.00000000000E+00 0.  1.
      99926    2    1    2    0    0  0.88817841970E-15  0.00000000000E+00  0.12734369741E+03  0.43091976567E+03  0.41167393307E+03 0.  0.
      99925    2    3    3    0    0  0.90551049060E+00 -0.40197818423E+02  0.13665801977E+03  0.29919676367E+03  0.26310949140E+03 0.  0.
         25    1    4    4    0    0  0.15383437821E+02  0.11079952209E+02  0.90713537241E+02  0.15567873792E+03  0.12509000000E+03 0.  0.
         25    1    3    3    0    0 -0.90551049060E+00  0.40197818423E+02 -0.93143223588E+01  0.13172300200E+03  0.12509000000E+03 0.  0.
         25    1    4    4    0    0 -0.14477927331E+02 -0.51277770632E+02  0.45944482529E+02  0.14351802575E+03  0.12509000000E+03 0.  0.
<mgrwt>
<rscale>  2 0.41167393E+03</rscale>
<asrwt>0</asrwt>
<pdfrwt beam="1">  1       21 0.41048784E-01 0.41167393E+03</pdfrwt>
<pdfrwt beam="2">  1       21 0.22321770E-01 0.41167393E+03</pdfrwt>
<totfact> 0.10093652E+05</totfact>
</mgrwt>
</event>
<event>
 7    0  0.4770865E-002  0.4611047E+03  0.7546771E-02  0.1024461E+00
         21   -1    0    0  502  501  0.00000000000E+00  0.00000000000E+00  0.74530712428E+03  0.74530712428E+03  0.00000000000E+00 0.  1.
         21   -1    0    0  501  502 -0.00000000000E+00 -0.00000000000E+00 -0.71318760337E+02  0.71318760337E+02  0.00000000000E+00 0.  1.
      99926    2    1    2    0    0 -0.88817841970E-15  0.00000000000E+00  0.67398836394E+03  0.81662588462E+03  0.46110467434E+03 0.  0.
      99925    2    3    3    0    0  0.47740311872E+01 -0.42525444763E+02  0.61796156618E+03  0.67303718383E+03  0.26319450738E+03 0.  0.
         25    1    3    3    0    0 -0.47740311872E+01  0.42525444763E+02  0.56026797758E+02  0.14358870078E+03  0.12509000000E+03 0.  0.
         25    1    4    4    0    0 -0.85542009765E+01 -0.39766217784E+02  0.22735542863E+03  0.26266428280E+03  0.12509000000E+03 0.  0.
         25    1    4    4    0    0  0.13328232164E+02 -0.27592269789E+01  0.39060613755E+03  0.41037290103E+03  0.12509000000E+03 0.  0.
<mgrwt>
<rscale>  2 0.46110467E+03</rscale>
<asrwt>0</asrwt>
<pdfrwt beam="1">  1       21 0.10960398E+00 0.46110467E+03</pdfrwt>
<pdfrwt beam="2">  1       21 0.10488053E-01 0.46110467E+03</pdfrwt>
<totfact> 0.44786875E+04</totfact>
</mgrwt>
</event>
<event>
 7    0  0.4770865E-002  0.4435563E+03  0.7546771E-02  0.1029661E+00
         21   -1    0    0  502  501  0.00000000000E+00  0.00000000000E+00  0.20574486222E+04  0.20574486222E+04  0.00000000000E+00 0.  1.
         21   -1    0    0  501  502 -0.00000000000E+00 -0.00000000000E+00 -0.23906085881E+02  0.23906085881E+02  0.00000000000E+00 0.  1.
      99926    2    1    2    0    0  0.00000000000E+00  0.00000000000E+00  0.20335425363E+04  0.20813547080E+04  0.44355628034E+03 0.  0.
      99925    2    3    3    0    0  0.17324257671E+02 -0.99302245336E+02  0.12283247256E+04  0.12602674431E+04  0.26330843304E+03 0.  0.
         25    1    4    4    0    0  0.42403291349E+02 -0.25402622904E+02  0.58226447986E+03  0.59759749412E+03  0.12509000000E+03 0.  0.
         25    1    4    4    0    0 -0.25079033678E+02 -0.73899622432E+02  0.64606024573E+03  0.66266994902E+03  0.12509000000E+03 0.  0.
         25    1    3    3    0    0 -0.17324257671E+02  0.99302245336E+02  0.80521781068E+03  0.82108726489E+03  0.12509000000E+03 0.  0.
<mgrwt>
<rscale>  2 0.44355628E+03</rscale>
<asrwt>0</asrwt>
<pdfrwt beam="1">  1       21 0.30256585E+00 0.44355628E+03</pdfrwt>
<pdfrwt beam="2">  1       21 0.35156023E-02 0.44355628E+03</pdfrwt>
<totfact> 0.13595204E+04</totfact>
</mgrwt>
</event>
<event>
 7    0  0.4770865E-002  0.4537393E+03  0.7546771E-02  0.1026613E+00
         21   -1    0    0  502  501  0.00000000000E+00  0.00000000000E+00  0.99602933073E+03  0.99602933073E+03  0.00000000000E+00 0.  1.
         21   -1    0    0  501  502 -0.00000000000E+00 -0.00000000000E+00 -0.51675028156E+02  0.51675028156E+02  0.00000000000E+00 0.  1.
      99926    2    1    2    0    0  0.00000000000E+00 -0.14210854715E-13  0.94435430257E+03  0.10477043589E+04  0.45373932477E+03 0.  0.
      99925    2    3    3    0    0 -0.72722123178E+02 -0.85207591615E+02  0.59159895068E+03  0.65702202340E+03  0.26294444265E+03 0.  0.
         25    1    4    4    0    0 -0.69097878617E+02 -0.41555304391E+02  0.37004295283E+03  0.39884916346E+03  0.12509000000E+03 0.  0.
         25    1    3    3    0    0  0.72722123178E+02  0.85207591615E+02  0.35275535189E+03  0.39068233548E+03  0.12509000000E+03 0.  0.
         25    1    4    4    0    0 -0.36242445610E+01 -0.43652287224E+02  0.22155599785E+03  0.25817285994E+03  0.12509000000E+03 0.  0.
<mgrwt>
<rscale>  2 0.45373932E+03</rscale>
<asrwt>0</asrwt>
<pdfrwt beam="1">  1       21 0.14647489E+00 0.45373932E+03</pdfrwt>
<pdfrwt beam="2">  1       21 0.75992695E-02 0.45373932E+03</pdfrwt>
<totfact> 0.37731654E+04</totfact>
</mgrwt>
</event>
<event>
 7    0  0.4770865E-002  0.4529581E+03  0.7546771E-02  0.1026844E+00
         21   -1    0    0  502  501  0.00000000000E+00  0.00000000000E+00  0.39373885537E+03  0.39373885537E+03  0.00000000000E+00 0. -1.
         21   -1    0    0  501  502 -0.00000000000E+00 -0.00000000000E+00 -0.13027099111E+03  0.13027099111E+03  0.00000000000E+00 0. -1.
      99926    2    1    2    0    0  0.00000000000E+00  0.00000000000E+00  0.26346786426E+03  0.52400984648E+03  0.45295805954E+03 0.  0.
      99925    2    3    3    0    0 -0.32189344483E+02 -0.57209709579E+02  0.62054646077E+02  0.27799379552E+03  0.26290809512E+03 0.  0.
         25    1    4    4    0    0 -0.52113303595E+02 -0.31794596294E+02  0.51344725058E+02  0.14835929919E+03  0.12509000000E+03 0.  0.
         25    1    4    4    0    0  0.19923959112E+02 -0.25415113285E+02  0.10709921019E+02  0.12963449633E+03  0.12509000000E+03 0.  0.
         25    1    3    3    0    0  0.32189344483E+02  0.57209709579E+02  0.20141321819E+03  0.24601605096E+03  0.12509000000E+03 0.  0.
<mgrwt>
<rscale>  2 0.45295806E+03</rscale>
<asrwt>0</asrwt>
<pdfrwt beam="1">  1       21 0.57902772E-01 0.45295806E+03</pdfrwt>
<pdfrwt beam="2">  1       21 0.19157499E-01 0.45295806E+03</pdfrwt>
<totfact> 0.64654062E+04</totfact>
</mgrwt>
</event>
<event>
 7    0  0.4770865E-002  0.4542734E+03  0.7546771E-02  0.1026455E+00
         21   -1    0    0  502  501  0.00000000000E+00  0.00000000000E+00  0.41775682041E+03  0.41775682041E+03  0.00000000000E+00 0. -1.
         21   -1    0    0  501  502 -0.00000000000E+00 -0.00000000000E+00 -0.12349546211E+03  0.12349546211E+03  0.00000000000E+00 0. -1.
      99926    2    1    2    0    0  0.14210854715E-13  0.00000000000E+00  0.29426135830E+03  0.54125228252E+03  0.45427336082E+03 0.  0.
      99925    2    3    3    0    0 -0.68942290263E+02  0.64889735926E+02  0.11319471303E+03  0.30167691787E+03  0.26312012942E+03 0.  0.
         25    1    3    3    0    0  0.68942290263E+02 -0.64889735926E+02  0.18106664527E+03  0.23957536465E+03  0.12509000000E+03 0.  0.
         25    1    4    4    0    0 -0.26772005775E+02  0.65011752304E+01  0.87351673403E+02  0.15503815182E+03  0.12509000000E+03 0.  0.
         25    1    4    4    0    0 -0.42170284488E+02  0.58388560696E+02  0.25843039622E+02  0.14663876606E+03  0.12509000000E+03 0.  0.
<mgrwt>
<rscale>  2 0.45427336E+03</rscale>
<asrwt>0</asrwt>
<pdfrwt beam="1">  1       21 0.61434826E-01 0.45427336E+03</pdfrwt>
<pdfrwt beam="2">  1       21 0.18161097E-01 0.45427336E+03</pdfrwt>
<totfact> 0.62808691E+04</totfact>
</mgrwt>
</event>
<event>
 7    0  0.4770865E-002  0.4205884E+03  0.7546771E-02  0.1036875E+00
         21   -1    0    0  502  501  0.00000000000E+00  0.00000000000E+00  0.23756158481E+03  0.23756158481E+03  0.00000000000E+00 0.  1.
         21   -1    0    0  501  502 -0.00000000000E+00 -0.00000000000E+00 -0.18615656906E+03  0.18615656906E+03  0.00000000000E+00 0.  1.
      99926    2    1    2    0    0  0.00000000000E+00  0.00000000000E+00  0.51405015745E+02  0.42371815387E+03  0.42058839531E+03 0.  0.
      99925    2    3    3    0    0 -0.51873742511E+02 -0.53541282474E+02  0.50619282315E+02  0.27809645367E+03  0.26309270554E+03 0.  0.
         25    1    3    3    0    0  0.51873742511E+02  0.53541282474E+02  0.78573343010E+00  0.14562170020E+03  0.12509000000E+03 0.  0.
         25    1    4    4    0    0 -0.11084256066E+02 -0.63656735523E+02  0.16204694371E+02  0.14172205520E+03  0.12509000000E+03 0.  0.
         25    1    4    4    0    0 -0.40789486446E+02  0.10115453049E+02  0.34414587944E+02  0.13637439847E+03  0.12509000000E+03 0.  0.
<mgrwt>
<rscale>  2 0.42058840E+03</rscale>
<asrwt>0</asrwt>
<pdfrwt beam="1">  1       21 0.34935527E-01 0.42058840E+03</pdfrwt>
<pdfrwt beam="2">  1       21 0.27375966E-01 0.42058840E+03</pdfrwt>
<totfact> 0.94234807E+04</totfact>
</mgrwt>
</event>
<event>
 7    0  0.4770865E-002  0.4440912E+03  0.7546771E-02  0.1029499E+00
         21   -1    0    0  502  501  0.00000000000E+00  0.00000000000E+00  0.19239645111E+03  0.19239645111E+03  0.00000000000E+00 0. -1.
         21   -1    0    0  501  502 -0.00000000000E+00 -0.00000000000E+00 -0.25626385429E+03  0.25626385429E+03  0.00000000000E+00 0. -1.
      99926    2    1    2    0    0 -0.17763568394E-14 -0.53290705182E-14 -0.63867403182E+02  0.44866030540E+03  0.44409123438E+03 0.  0.
      99925    2    3    3    0    0  0.14518263781E+02  0.24622308921E+01  0.61967507765E+02  0.27061880609E+03  0.26301658432E+03 0.  0.
         25    1    3    3    0    0 -0.14518263781E+02 -0.24622308921E+01 -0.12583491095E+03  0.17804149931E+03  0.12509000000E+03 0.  0.
         25    1    4    4    0    0 -0.10128566884E+02 -0.35176213512E+02  0.25994961839E+02  0.13290297215E+03  0.12509000000E+03 0.  0.
         25    1    4    4    0    0  0.24646830665E+02  0.37638444404E+02  0.35972545925E+02  0.13771583395E+03  0.12509000000E+03 0.  0.
<mgrwt>
<rscale>  2 0.44409123E+03</rscale>
<asrwt>0</asrwt>
<pdfrwt beam="1">  1       21 0.28293596E-01 0.44409123E+03</pdfrwt>
<pdfrwt beam="2">  1       21 0.37685861E-01 0.44409123E+03</pdfrwt>
<totfact> 0.75360627E+04</totfact>
</mgrwt>
</event>
<event>
 7    0  0.4770865E-002  0.4543039E+03  0.7546771E-02  0.1026446E+00
         21   -1    0    0  502  501  0.00000000000E+00  0.00000000000E+00  0.57689269929E+03  0.57689269929E+03  0.00000000000E+00 0.  1.
         21   -1    0    0  501  502 -0.00000000000E+00 -0.00000000000E+00 -0.89441248770E+02  0.89441248770E+02  0.00000000000E+00 0.  1.
      99926    2    1    2    0    0  0.71054273576E-14  0.00000000000E+00  0.48745145052E+03  0.66633394806E+03  0.45430387817E+03 0.  0.
      99925    2    3    3    0    0  0.63533293987E+02 -0.76628899297E+02  0.38407453210E+03  0.47595862662E+03  0.26289712891E+03 0.  0.
         25    1    4    4    0    0  0.79080135953E+01 -0.11524095434E+02  0.21275675585E+03  0.24720090355E+03  0.12509000000E+03 0.  0.
         25    1    4    4    0    0  0.55625280392E+02 -0.65104803863E+02  0.17131777625E+03  0.22875772307E+03  0.12509000000E+03 0.  0.
         25    1    3    3    0    0 -0.63533293987E+02  0.76628899297E+02  0.10337691842E+03  0.19037532144E+03  0.12509000000E+03 0.  0.
<mgrwt>
<rscale>  2 0.45430388E+03</rscale>
<asrwt>0</asrwt>
<pdfrwt beam="1">  1       21 0.84837160E-01 0.45430388E+03</pdfrwt>
<pdfrwt beam="2">  1       21 0.13153125E-01 0.45430388E+03</pdfrwt>
<totfact> 0.55070689E+04</totfact>
</mgrwt>
</event>
<event>
 7    0  0.4770865E-002  0.4566717E+03  0.7546771E-02  0.1025751E+00
         21   -1    0    0  502  501  0.00000000000E+00  0.00000000000E+00  0.11074632403E+03  0.11074632403E+03  0.00000000000E+00 0. -1.
         21   -1    0    0  501  502 -0.00000000000E+00 -0.00000000000E+00 -0.47078097460E+03  0.47078097460E+03  0.00000000000E+00 0. -1.
      99926    2    1    2    0    0  0.00000000000E+00 -0.71054273576E-14 -0.36003465058E+03  0.58152729863E+03  0.45667170861E+03 0.  0.
      99925    2    3    3    0    0  0.99457884975E+02  0.51449396534E+02 -0.25772270152E+03  0.38492070081E+03  0.26306661466E+03 0.  0.
         25    1    3    3    0    0 -0.99457884975E+02 -0.51449396534E+02 -0.10231194905E+03  0.19660659782E+03  0.12509000000E+03 0.  0.
         25    1    4    4    0    0  0.37269652338E+02 -0.74488626299E+01 -0.14979650856E+03  0.19882407957E+03  0.12509000000E+03 0.  0.
         25    1    4    4    0    0  0.62188232636E+02  0.58898259164E+02 -0.10792619297E+03  0.18609662125E+03  0.12509000000E+03 0.  0.
<mgrwt>
<rscale>  2 0.45667171E+03</rscale>
<asrwt>0</asrwt>
<pdfrwt beam="1">  1       21 0.16286224E-01 0.45667171E+03</pdfrwt>
<pdfrwt beam="2">  1       21 0.69232496E-01 0.45667171E+03</pdfrwt>
<totfact> 0.59045763E+04</totfact>
</mgrwt>
</event>
<event>
 7    0  0.4770865E-002  0.4564043E+03  0.7546771E-02  0.1025829E+00
         21   -1    0    0  502  501  0.00000000000E+00  0.00000000000E+00  0.46925516645E+02  0.46925516645E+02  0.00000000000E+00 0.  1.
         21   -1    0    0  501  502 -0.00000000000E+00 -0.00000000000E+00 -0.11097634019E+04  0.11097634019E+04  0.00000000000E+00 0.  1.
      99926    2    1    2    0    0  0.14210854715E-13  0.00000000000E+00 -0.10628378853E+04  0.11566889186E+04  0.45640429880E+03 0.  0.
      99925    2    3    3    0    0  0.11357540395E+03  0.13780683072E+02 -0.67292386240E+03  0.73151867861E+03  0.26306609999E+03 0.  0.
         25    1    4    4    0    0  0.87799616222E+02  0.21823926563E+02 -0.43133455927E+03  0.45812887543E+03  0.12509000000E+03 0.  0.
         25    1    4    4    0    0  0.25775787730E+02 -0.80432434912E+01 -0.24158930313E+03  0.27338980319E+03  0.12509000000E+03 0.  0.
         25    1    3    3    0    0 -0.11357540395E+03 -0.13780683072E+02 -0.38991402289E+03  0.42517023997E+03  0.12509000000E+03 0.  0.
<mgrwt>
<rscale>  2 0.45640430E+03</rscale>
<asrwt>0</asrwt>
<pdfrwt beam="1">  1       21 0.69008110E-02 0.45640430E+03</pdfrwt>
<pdfrwt beam="2">  1       21 0.16320051E+00 0.45640430E+03</pdfrwt>
<totfact> 0.33195043E+04</totfact>
</mgrwt>
</event>
<event>
 7    0  0.4770865E-002  0.4519375E+03  0.7546771E-02  0.1027146E+00
         21   -1    0    0  502  501  0.00000000000E+00  0.00000000000E+00  0.19690165243E+03  0.19690165243E+03  0.00000000000E+00 0. -1.
         21   -1    0    0  501  502 -0.00000000000E+00 -0.00000000000E+00 -0.25932678948E+03  0.25932678948E+03  0.00000000000E+00 0. -1.
      99926    2    1    2    0    0  0.00000000000E+00  0.00000000000E+00 -0.62425137049E+02  0.45622844191E+03  0.45193748845E+03 0.  0.
      99925    2    3    3    0    0  0.88548613945E+02  0.59941017202E+02 -0.66461703204E+02  0.29161500217E+03  0.26303682047E+03 0.  0.
         25    1    4    4    0    0  0.56329354334E+01  0.33732816930E+02 -0.13752248534E+02  0.13040807237E+03  0.12509000000E+03 0.  0.
         25    1    4    4    0    0  0.82915678512E+02  0.26208200272E+02 -0.52709454670E+02  0.16120692980E+03  0.12509000000E+03 0.  0.
         25    1    3    3    0    0 -0.88548613945E+02 -0.59941017202E+02  0.40365661548E+01  0.16461343973E+03  0.12509000000E+03 0.  0.
<mgrwt>
<rscale>  2 0.45193749E+03</rscale>
<asrwt>0</asrwt>
<pdfrwt beam="1">  1       21 0.28956126E-01 0.45193749E+03</pdfrwt>
<pdfrwt beam="2">  1       21 0.38136292E-01 0.45193749E+03</pdfrwt>
<totfact> 0.70154079E+04</totfact>
</mgrwt>
</event>
<event>
 7    0  0.4770865E-002  0.4474040E+03  0.7546771E-02  0.1028499E+00
         21   -1    0    0  502  501  0.00000000000E+00  0.00000000000E+00  0.45522307666E+02  0.45522307666E+02  0.00000000000E+00 0.  1.
         21   -1    0    0  501  502 -0.00000000000E+00 -0.00000000000E+00 -0.10992981149E+04  0.10992981149E+04  0.00000000000E+00 0.  1.
      99926    2    1    2    0    0  0.00000000000E+00  0.00000000000E+00 -0.10537758072E+04  0.11448204226E+04  0.44740400983E+03 0.  0.
      99925    2    3    3    0    0  0.43224302592E+02  0.70918687375E+02 -0.83582873793E+03  0.88015793245E+03  0.26300286378E+03 0.  0.
         25    1    3    3    0    0 -0.43224302592E+02 -0.70918687375E+02 -0.21794706930E+03  0.26466249010E+03  0.12509000000E+03 0.  0.
         25    1    4    4    0    0  0.49356290521E+02  0.30902098327E+02 -0.52138086462E+03  0.53932967394E+03  0.12509000000E+03 0.  0.
         25    1    4    4    0    0 -0.61319879294E+01  0.40016589048E+02 -0.31444787331E+03  0.34082825852E+03  0.12509000000E+03 0.  0.
<mgrwt>
<rscale>  2 0.44740401E+03</rscale>
<asrwt>0</asrwt>
<pdfrwt beam="1">  1       21 0.66944580E-02 0.44740401E+03</pdfrwt>
<pdfrwt beam="2">  1       21 0.16166146E+00 0.44740401E+03</pdfrwt>
<totfact> 0.36042831E+04</totfact>
</mgrwt>
</event>
<event>
 7    0  0.4770865E-002  0.4745164E+03  0.7546771E-02  0.1020653E+00
         21   -1    0    0  502  501  0.00000000000E+00  0.00000000000E+00  0.15523201019E+04  0.15523201019E+04  0.00000000000E+00 0. -1.
         21   -1    0    0  501  502 -0.00000000000E+00 -0.00000000000E+00 -0.36262789603E+02  0.36262789603E+02  0.00000000000E+00 0. -1.
      99926    2    1    2    0    0  0.71054273576E-14 -0.35527136788E-14  0.15160573123E+04  0.15885828915E+04  0.47451641594E+03 0.  0.
      99925    2    3    3    0    0  0.34399438599E+02 -0.29278009533E+02  0.52778052282E+03  0.59139733006E+03  0.26297908381E+03 0.  0.
         25    1    3    3    0    0 -0.34399438599E+02  0.29278009533E+02  0.98827678945E+03  0.99718556141E+03  0.12509000000E+03 0.  0.
         25    1    4    4    0    0 -0.12888137284E+02  0.69964314134E+01  0.21264290061E+03  0.24714280369E+03  0.12509000000E+03 0.  0.
         25    1    4    4    0    0  0.47287575882E+02 -0.36274440946E+02  0.31513762221E+03  0.34425452637E+03  0.12509000000E+03 0.  0.
<mgrwt>
<rscale>  2 0.47451642E+03</rscale>
<asrwt>0</asrwt>
<pdfrwt beam="1">  1       21 0.22828232E+00 0.47451642E+03</pdfrwt>
<pdfrwt beam="2">  1       21 0.53327642E-02 0.47451642E+03</pdfrwt>
<totfact> 0.18691705E+04</totfact>
</mgrwt>
</event>
<event>
 7    0  0.4770865E-002  0.4546588E+03  0.7546771E-02  0.1026342E+00
         21   -1    0    0  502  501  0.00000000000E+00  0.00000000000E+00  0.80680026731E+03  0.80680026731E+03  0.00000000000E+00 0.  1.
         21   -1    0    0  501  502 -0.00000000000E+00 -0.00000000000E+00 -0.64053852086E+02  0.64053852086E+02  0.00000000000E+00 0.  1.
      99926    2    1    2    0    0  0.00000000000E+00  0.00000000000E+00  0.74274641523E+03  0.87085411940E+03  0.45465883907E+03 0.  0.
      99925    2    3    3    0    0  0.41699059966E+01  0.99256378354E+02  0.36520939710E+03  0.46091397143E+03  0.26304860496E+03 0.  0.
         25    1    4    4    0    0  0.29035143566E+01  0.25494660848E+02  0.22691112387E+03  0.26037391260E+03  0.12509000000E+03 0.  0.
         25    1    4    4    0    0  0.12663916400E+01  0.73761717506E+02  0.13829827323E+03  0.20054005883E+03  0.12509000000E+03 0.  0.
         25    1    3    3    0    0 -0.41699059966E+01 -0.99256378354E+02  0.37753701812E+03  0.40994014796E+03  0.12509000000E+03 0.  0.
<mgrwt>
<rscale>  2 0.45465884E+03</rscale>
<asrwt>0</asrwt>
<pdfrwt beam="1">  1       21 0.11864709E+00 0.45465884E+03</pdfrwt>
<pdfrwt beam="2">  1       21 0.94196847E-02 0.45465884E+03</pdfrwt>
<totfact> 0.44637031E+04</totfact>
</mgrwt>
</event>
<event>
 7    0  0.4770865E-002  0.4553040E+03  0.7546771E-02  0.1026152E+00
         21   -1    0    0  502  501  0.00000000000E+00  0.00000000000E+00  0.31524806512E+03  0.31524806512E+03  0.00000000000E+00 0.  1.
         21   -1    0    0  501  502 -0.00000000000E+00 -0.00000000000E+00 -0.16439571265E+03  0.16439571265E+03  0.00000000000E+00 0.  1.
      99926    2    1    2    0    0 -0.44408920985E-15  0.71054273576E-14  0.15085235248E+03  0.47964377777E+03  0.45530398780E+03 0.  0.
      99925    2    3    3    0    0 -0.25730452947E+01  0.34140247136E+02 -0.19083797838E+02  0.26587291839E+03  0.26296775535E+03 0.  0.
         25    1    4    4    0    0  0.28996948392E+02  0.17608488632E+02 -0.36487178296E+02  0.13464658989E+03  0.12509000000E+03 0.  0.
         25    1    3    3    0    0  0.25730452947E+01 -0.34140247136E+02  0.16993615031E+03  0.21377085938E+03  0.12509000000E+03 0.  0.
         25    1    4    4    0    0 -0.31569993687E+02  0.16531758504E+02  0.17403380458E+02  0.13122632850E+03  0.12509000000E+03 0.  0.
<mgrwt>
<rscale>  2 0.45530399E+03</rscale>
<asrwt>0</asrwt>
<pdfrwt beam="1">  1       21 0.46360009E-01 0.45530399E+03</pdfrwt>
<pdfrwt beam="2">  1       21 0.24175840E-01 0.45530399E+03</pdfrwt>
<totfact> 0.66565279E+04</totfact>
</mgrwt>
</event>
<event>
 7    0  0.4770865E-002  0.4593846E+03  0.7546771E-02  0.1024960E+00
         21   -1    0    0  502  501  0.00000000000E+00  0.00000000000E+00  0.12605142656E+03  0.12605142656E+03  0.00000000000E+00 0.  1.
         21   -1    0    0  501  502 -0.00000000000E+00 -0.00000000000E+00 -0.41854785968E+03  0.41854785968E+03  0.00000000000E+00 0.  1.
      99926    2    1    2    0    0  0.71054273576E-14  0.14210854715E-13 -0.29249643311E+03  0.54459928624E+03  0.45938460922E+03 0.  0.
      99925    2    3    3    0    0  0.60095406137E+02  0.83705818892E+02 -0.11726108214E+03  0.30590898839E+03  0.26308178546E+03 0.  0.
         25    1    4    4    0    0  0.87945556854E+00  0.16594802792E+02 -0.32577234405E+02  0.13032630288E+03  0.12509000000E+03 0.  0.
         25    1    3    3    0    0 -0.60095406137E+02 -0.83705818892E+02 -0.17523535097E+03  0.23869029785E+03  0.12509000000E+03 0.  0.
         25    1    4    4    0    0  0.59215950568E+02  0.67111016101E+02 -0.84683847737E+02  0.17558268551E+03  0.12509000000E+03 0.  0.
<mgrwt>
<rscale>  2 0.45938461E+03</rscale>
<asrwt>0</asrwt>
<pdfrwt beam="1">  1       21 0.18536975E-01 0.45938461E+03</pdfrwt>
<pdfrwt beam="2">  1       21 0.61551155E-01 0.45938461E+03</pdfrwt>
<totfact> 0.60111877E+04</totfact>
</mgrwt>
</event>
<event>
 7    0  0.4770865E-002  0.4544124E+03  0.7546771E-02  0.1026414E+00
         21   -1    0    0  502  501  0.00000000000E+00  0.00000000000E+00  0.69757775829E+03  0.69757775829E+03  0.00000000000E+00 0. -1.
         21   -1    0    0  501  502 -0.00000000000E+00 -0.00000000000E+00 -0.74002726832E+02  0.74002726832E+02  0.00000000000E+00 0. -1.
      99926    2    1    2    0    0  0.00000000000E+00  0.00000000000E+00  0.62357503145E+03  0.77158048512E+03  0.45441239548E+03 0.  0.
      99925    2    3    3    0    0  0.10999290131E+03  0.21284223066E+02  0.37239412895E+03  0.46943679352E+03  0.26294877703E+03 0.  0.
         25    1    4    4    0    0  0.21455926517E+02 -0.14923535088E+02  0.15231892807E+03  0.19882563374E+03  0.12509000000E+03 0.  0.
         25    1    4    4    0    0  0.88536974795E+02  0.36207758154E+02  0.22007520088E+03  0.27061115978E+03  0.12509000000E+03 0.  0.
         25    1    3    3    0    0 -0.10999290131E+03 -0.21284223066E+02  0.25118090251E+03  0.30214369160E+03  0.12509000000E+03 0.  0.
<mgrwt>
<rscale>  2 0.45441240E+03</rscale>
<asrwt>0</asrwt>
<pdfrwt beam="1">  1       21 0.10258496E+00 0.45441240E+03</pdfrwt>
<pdfrwt beam="2">  1       21 0.10882754E-01 0.45441240E+03</pdfrwt>
<totfact> 0.49397584E+04</totfact>
</mgrwt>
</event>
<event>
 7    0  0.4770865E-002  0.4461697E+03  0.7546771E-02  0.1028870E+00
         21   -1    0    0  502  501  0.00000000000E+00  0.00000000000E+00  0.85799660059E+03  0.85799660059E+03  0.00000000000E+00 0. -1.
         21   -1    0    0  501  502 -0.00000000000E+00 -0.00000000000E+00 -0.58003541611E+02  0.58003541611E+02  0.00000000000E+00 0. -1.
      99926    2    1    2    0    0  0.14210854715E-13  0.71054273576E-14  0.79999305898E+03  0.91600014220E+03  0.44616966066E+03 0.  0.
      99925    2    3    3    0    0 -0.68777239905E+02 -0.58235292801E+02  0.39846700188E+03  0.48589278271E+03  0.26304787900E+03 0.  0.
         25    1    3    3    0    0  0.68777239905E+02  0.58235292801E+02  0.40152605710E+03  0.43010735949E+03  0.12509000000E+03 0.  0.
         25    1    4    4    0    0 -0.47383587268E+02 -0.55819990377E+02  0.16100585433E+03  0.21663672102E+03  0.12509000000E+03 0.  0.
         25    1    4    4    0    0 -0.21393652637E+02 -0.24153024242E+01  0.23746114755E+03  0.26925606169E+03  0.12509000000E+03 0.  0.
<mgrwt>
<rscale>  2 0.44616966E+03</rscale>
<asrwt>0</asrwt>
<pdfrwt beam="1">  1       21 0.12617596E+00 0.44616966E+03</pdfrwt>
<pdfrwt beam="2">  1       21 0.85299332E-02 0.44616966E+03</pdfrwt>
<totfact> 0.45619884E+04</totfact>
</mgrwt>
</event>
<event>
 7    0  0.4770865E-002  0.4497661E+03  0.7546771E-02  0.1027792E+00
         21   -1    0    0  502  501  0.00000000000E+00  0.00000000000E+00  0.14153659073E+03  0.14153659073E+03  0.00000000000E+00 0. -1.
         21   -1    0    0  501  502 -0.00000000000E+00 -0.00000000000E+00 -0.35730967263E+03  0.35730967263E+03  0.00000000000E+00 0. -1.
      99926    2    1    2    0    0  0.00000000000E+00  0.00000000000E+00 -0.21577308190E+03  0.49884626336E+03  0.44976612988E+03 0.  0.
      99925    2    3    3    0    0 -0.76710067478E+02 -0.42205053608E+01 -0.22126090900E+03  0.35194537342E+03  0.26269166127E+03 0.  0.
         25    1    4    4    0    0 -0.69046826498E+02 -0.82290799744E+01 -0.15169291102E+03  0.20855078365E+03  0.12509000000E+03 0.  0.
         25    1    3    3    0    0  0.76710067478E+02  0.42205053608E+01  0.54878270975E+01  0.14690088994E+03  0.12509000000E+03 0.  0.
         25    1    4    4    0    0 -0.76632409805E+01  0.40085746136E+01 -0.69567997978E+02  0.14339458977E+03  0.12509000000E+03 0.  0.
<mgrwt>
<rscale>  2 0.44976613E+03</rscale>
<asrwt>0</asrwt>
<pdfrwt beam="1">  1       21 0.20814205E-01 0.44976613E+03</pdfrwt>
<pdfrwt beam="2">  1       21 0.52545539E-01 0.44976613E+03</pdfrwt>
<totfact> 0.68138950E+04</totfact>
</mgrwt>
</event>
<event>
 7    0  0.4770865E-002  0.4550570E+03  0.7546771E-02  0.1026225E+00
         21   -1    0    0  502  501  0.00000000000E+00  0.00000000000E+00  0.15244456120E+03  0.15244456120E+03  0.00000000000E+00 0. -1.
         21   -1    0    0  501  502 -0.00000000000E+00 -0.00000000000E+00 -0.33959371841E+03  0.33959371841E+03  0.00000000000E+00 0. -1.
      99926    2    1    2    0    0 -0.71054273576E-14 -0.14210854715E-13 -0.18714915722E+03  0.49203827961E+03  0.45505698715E+03 0.  0.
      99925    2    3    3    0    0 -0.56369955894E+02 -0.98177628747E+02 -0.12219503168E+03  0.31125397377E+03  0.26292773096E+03 0.  0.
         25    1    4    4    0    0 -0.47935646730E+02 -0.82741961041E+02 -0.47321736085E+02  0.16441080606E+03  0.12509000000E+03 0.  0.
         25    1    4    4    0    0 -0.84343091644E+01 -0.15435667706E+02 -0.74873295598E+02  0.14684316771E+03  0.12509000000E+03 0.  0.
         25    1    3    3    0    0  0.56369955894E+02  0.98177628747E+02 -0.64954125533E+02  0.18078430584E+03  0.12509000000E+03 0.  0.
<mgrwt>
<rscale>  2 0.45505699E+03</rscale>
<asrwt>0</asrwt>
<pdfrwt beam="1">  1       21 0.22418318E-01 0.45505699E+03</pdfrwt>
<pdfrwt beam="2">  1       21 0.49940252E-01 0.45505699E+03</pdfrwt>
<totfact> 0.65803916E+04</totfact>
</mgrwt>
</event>
<event>
 7    0  0.4770865E-002  0.4617237E+03  0.7546771E-02  0.1024282E+00
         21   -1    0    0  502  501  0.00000000000E+00  0.00000000000E+00  0.76375373521E+03  0.76375373521E+03  0.00000000000E+00 0.  1.
         21   -1    0    0  501  502 -0.00000000000E+00 -0.00000000000E+00 -0.69783209043E+02  0.69783209043E+02  0.00000000000E+00 0.  1.
      99926    2    1    2    0    0 -0.14210854715E-13  0.00000000000E+00  0.69397052616E+03  0.83353694425E+03  0.46172366871E+03 0.  0.
      99925    2    3    3    0    0 -0.74681918304E+02 -0.51293098396E+02  0.29388322156E+03  0.40467131230E+03  0.26302690398E+03 0.  0.
         25    1    3    3    0    0  0.74681918304E+02  0.51293098396E+02  0.40008730460E+03  0.42886563195E+03  0.12509000000E+03 0.  0.
         25    1    4    4    0    0 -0.53456362972E+02 -0.32104161747E+02  0.98784853964E+02  0.17115552990E+03  0.12509000000E+03 0.  0.
         25    1    4    4    0    0 -0.21225555332E+02 -0.19188936650E+02  0.19509836760E+03  0.23351578240E+03  0.12509000000E+03 0.  0.
<mgrwt>
<rscale>  2 0.46172367E+03</rscale>
<asrwt>0</asrwt>
<pdfrwt beam="1">  1       21 0.11231672E+00 0.46172367E+03</pdfrwt>
<pdfrwt beam="2">  1       21 0.10262237E-01 0.46172367E+03</pdfrwt>
<totfact> 0.43826888E+04</totfact>
</mgrwt>
</event>
<event>
 7    0  0.4770865E-002  0.4483627E+03  0.7546771E-02  0.1028211E+00
         21   -1    0    0  502  501  0.00000000000E+00  0.00000000000E+00  0.35198510776E+02  0.35198510776E+02  0.00000000000E+00 0. -1.
         21   -1    0    0  501  502 -0.00000000000E+00 -0.00000000000E+00 -0.14278237904E+04  0.14278237904E+04  0.00000000000E+00 0. -1.
      99926    2    1    2    0    0  0.00000000000E+00  0.71054273576E-14 -0.13926252796E+04  0.14630223012E+04  0.44836267049E+03 0.  0.
      99925    2    3    3    0    0 -0.62445287735E+02  0.58845933982E+02 -0.10890085274E+04  0.11236215082E+04  0.26310352175E+03 0.  0.
         25    1    3    3    0    0  0.62445287735E+02 -0.58845933982E+02 -0.30361675226E+03  0.33940079296E+03  0.12509000000E+03 0.  0.
         25    1    4    4    0    0 -0.44385424209E+02  0.68993690473E+02 -0.61768411982E+03  0.63554022310E+03  0.12509000000E+03 0.  0.
         25    1    4    4    0    0 -0.18059863526E+02 -0.10147756491E+02 -0.47132440757E+03  0.48808128514E+03  0.12509000000E+03 0.  0.
<mgrwt>
<rscale>  2 0.44836267E+03</rscale>
<asrwt>0</asrwt>
<pdfrwt beam="1">  1       21 0.51762509E-02 0.44836267E+03</pdfrwt>
<pdfrwt beam="2">  1       21 0.20997411E+00 0.44836267E+03</pdfrwt>
<totfact> 0.26015646E+04</totfact>
</mgrwt>
</event>
<event>
 7    0  0.4770865E-002  0.4547056E+03  0.7546771E-02  0.1026328E+00
         21   -1    0    0  502  501  0.00000000000E+00  0.00000000000E+00  0.29449644387E+03  0.29449644387E+03  0.00000000000E+00 0.  1.
         21   -1    0    0  501  502 -0.00000000000E+00 -0.00000000000E+00 -0.17551751910E+03  0.17551751910E+03  0.00000000000E+00 0.  1.
      99926    2    1    2    0    0  0.00000000000E+00  0.35527136788E-14  0.11897892477E+03  0.47001396297E+03  0.45470555402E+03 0.  0.
      99925    2    3    3    0    0 -0.11168495608E+03  0.15530820603E+02  0.84233302016E+02  0.29805611290E+03  0.26273077753E+03 0.  0.
         25    1    4    4    0    0 -0.55438545116E+02 -0.30520756130E+02  0.54155803245E+02  0.15028409086E+03  0.12509000000E+03 0.  0.
         25    1    3    3    0    0  0.11168495608E+03 -0.15530820603E+02  0.34745622753E+02  0.17195785008E+03  0.12509000000E+03 0.  0.
         25    1    4    4    0    0 -0.56246410962E+02  0.46051576733E+02  0.30077498771E+02  0.14777202204E+03  0.12509000000E+03 0.  0.
<mgrwt>
<rscale>  2 0.45470555E+03</rscale>
<asrwt>0</asrwt>
<pdfrwt beam="1">  1       21 0.43308301E-01 0.45470555E+03</pdfrwt>
<pdfrwt beam="2">  1       21 0.25811400E-01 0.45470555E+03</pdfrwt>
<totfact> 0.67592421E+04</totfact>
</mgrwt>
</event>
<event>
 7    0  0.4770865E-002  0.4556787E+03  0.7546771E-02  0.1026042E+00
         21   -1    0    0  502  501  0.00000000000E+00  0.00000000000E+00  0.20488447660E+04  0.20488447660E+04  0.00000000000E+00 0.  1.
         21   -1    0    0  501  502 -0.00000000000E+00 -0.00000000000E+00 -0.25336607353E+02  0.25336607353E+02  0.00000000000E+00 0.  1.
      99926    2    1    2    0    0  0.00000000000E+00 -0.88817841970E-15  0.20235081586E+04  0.20741813733E+04  0.45567872613E+03 0.  0.
      99925    2    3    3    0    0  0.41990964674E+02 -0.36374341745E+01  0.79092934716E+03  0.83455461232E+03  0.26293667812E+03 0.  0.
         25    1    3    3    0    0 -0.41990964674E+02  0.36374341745E+01  0.12325788114E+04  0.12396267610E+04  0.12509000000E+03 0.  0.
         25    1    4    4    0    0  0.42909573219E+02  0.13997836497E+02  0.49996445585E+03  0.51734817687E+03  0.12509000000E+03 0.  0.
         25    1    4    4    0    0 -0.91860854505E+00 -0.17635270672E+02  0.29096489131E+03  0.31720643545E+03  0.12509000000E+03 0.  0.
<mgrwt>
<rscale>  2 0.45567873E+03</rscale>
<asrwt>0</asrwt>
<pdfrwt beam="1">  1       21 0.30130059E+00 0.45567873E+03</pdfrwt>
<pdfrwt beam="2">  1       21 0.37259731E-02 0.45567873E+03</pdfrwt>
<totfact> 0.12470498E+04</totfact>
</mgrwt>
</event>
<event>
 7    0  0.4770865E-002  0.4042615E+03  0.7546771E-02  0.1042314E+00
         21   -1    0    0  502  501  0.00000000000E+00  0.00000000000E+00  0.35864386770E+02  0.35864386770E+02  0.00000000000E+00 0. -1.
         21   -1    0    0  501  502 -0.00000000000E+00 -0.00000000000E+00 -0.11392039123E+04  0.11392039123E+04  0.00000000000E+00 0. -1.
      99926    2    1    2    0    0  0.00000000000E+00  0.00000000000E+00 -0.11033395255E+04  0.11750682990E+04  0.40426154761E+03 0.  0.
      99925    2    3    3    0    0 -0.37732773668E+02  0.33431506943E+02 -0.68288690483E+03  0.73351497022E+03  0.26299859102E+03 0.  0.
         25    1    4    4    0    0 -0.22926222627E+02 -0.22968224234E+02 -0.30695135666E+03  0.33304623472E+03  0.12509000000E+03 0.  0.
         25    1    4    4    0    0 -0.14806551041E+02  0.56399731177E+02 -0.37593554817E+03  0.40046873550E+03  0.12509000000E+03 0.  0.
         25    1    3    3    0    0  0.37732773668E+02 -0.33431506943E+02 -0.42045262067E+03  0.44155332883E+03  0.12509000000E+03 0.  0.
<mgrwt>
<rscale>  2 0.40426155E+03</rscale>
<asrwt>0</asrwt>
<pdfrwt beam="1">  1       21 0.52741744E-02 0.40426155E+03</pdfrwt>
<pdfrwt beam="2">  1       21 0.16752999E+00 0.40426155E+03</pdfrwt>
<totfact> 0.49978262E+04</totfact>
</mgrwt>
</event>
<event>
 7    0  0.4770865E-002  0.4593176E+03  0.7546771E-02  0.1024979E+00
         21   -1    0    0  502  501  0.00000000000E+00  0.00000000000E+00  0.41521246495E+03  0.41521246495E+03  0.00000000000E+00 0. -1.
         21   -1    0    0  501  502 -0.00000000000E+00 -0.00000000000E+00 -0.12702693516E+03  0.12702693516E+03  0.00000000000E+00 0. -1.
      99926    2    1    2    0    0  0.00000000000E+00 -0.39968028887E-14  0.28818552979E+03  0.54223940011E+03  0.45931761065E+03 0.  0.
      99925    2    3    3    0    0 -0.86792749794E+02 -0.32205091313E+01  0.87798545281E+02  0.29055347529E+03  0.26300073071E+03 0.  0.
         25    1    4    4    0    0 -0.17735395272E+02  0.29494681097E+02  0.31314294467E+02  0.13346375387E+03  0.12509000000E+03 0.  0.
         25    1    3    3    0    0  0.86792749794E+02  0.32205091313E+01  0.20038698451E+03  0.25168592483E+03  0.12509000000E+03 0.  0.
         25    1    4    4    0    0 -0.69057354522E+02 -0.32715190228E+02  0.56484250814E+02  0.15708972142E+03  0.12509000000E+03 0.  0.
<mgrwt>
<rscale>  2 0.45931761E+03</rscale>
<asrwt>0</asrwt>
<pdfrwt beam="1">  1       21 0.61060656E-01 0.45931761E+03</pdfrwt>
<pdfrwt beam="2">  1       21 0.18680432E-01 0.45931761E+03</pdfrwt>
<totfact> 0.60295549E+04</totfact>
</mgrwt>
</event>
<event>
 7    0  0.4770865E-002  0.4328082E+03  0.7546771E-02  0.1032977E+00
         21   -1    0    0  502  501  0.00000000000E+00  0.00000000000E+00  0.10203987985E+04  0.10203987985E+04  0.00000000000E+00 0. -1.
         21   -1    0    0  501  502 -0.00000000000E+00 -0.00000000000E+00 -0.45894535790E+02  0.45894535790E+02  0.00000000000E+00 0. -1.
      99926    2    1    2    0    0  0.00000000000E+00  0.00000000000E+00  0.97450426275E+03  0.10662933343E+04  0.43280817543E+03 0.  0.
      99925    2    3    3    0    0 -0.73483179341E+02  0.29596572626E+02  0.73572730392E+03  0.78533483397E+03  0.26302167392E+03 0.  0.
         25    1    4    4    0    0 -0.40693082569E+02  0.16991686347E+02  0.48671213478E+03  0.50446095450E+03  0.12509000000E+03 0.  0.
         25    1    4    4    0    0 -0.32790096773E+02  0.12604886279E+02  0.24901516914E+03  0.28087387947E+03  0.12509000000E+03 0.  0.
         25    1    3    3    0    0  0.73483179341E+02 -0.29596572626E+02  0.23877695882E+03  0.28095850036E+03  0.12509000000E+03 0.  0.
<mgrwt>
<rscale>  2 0.43280818E+03</rscale>
<asrwt>0</asrwt>
<pdfrwt beam="1">  1       21 0.15005863E+00 0.43280818E+03</pdfrwt>
<pdfrwt beam="2">  1       21 0.67491971E-02 0.43280818E+03</pdfrwt>
<totfact> 0.43791544E+04</totfact>
</mgrwt>
</event>
<event>
 7    0  0.4770865E-002  0.4538559E+03  0.7546771E-02  0.1026578E+00
         21   -1    0    0  502  501  0.00000000000E+00  0.00000000000E+00  0.24286959407E+03  0.24286959407E+03  0.00000000000E+00 0.  1.
         21   -1    0    0  501  502 -0.00000000000E+00 -0.00000000000E+00 -0.21203269018E+03  0.21203269018E+03  0.00000000000E+00 0.  1.
      99926    2    1    2    0    0  0.00000000000E+00  0.71054273576E-14  0.30836903887E+02  0.45490228425E+03  0.45385589516E+03 0.  0.
      99925    2    3    3    0    0 -0.84195478556E+02 -0.59329774533E+02  0.62940225026E+02  0.28971441519E+03  0.26337059382E+03 0.  0.
         25    1    4    4    0    0 -0.59274020569E+02 -0.17725954498E+02  0.68455530926E+02  0.15543901309E+03  0.12509000000E+03 0.  0.
         25    1    4    4    0    0 -0.24921457987E+02 -0.41603820035E+02 -0.55153059004E+01  0.13427540210E+03  0.12509000000E+03 0.  0.
         25    1    3    3    0    0  0.84195478556E+02  0.59329774533E+02 -0.32103321139E+02  0.16518786906E+03  0.12509000000E+03 0.  0.
<mgrwt>
<rscale>  2 0.45385590E+03</rscale>
<asrwt>0</asrwt>
<pdfrwt beam="1">  1       21 0.35716117E-01 0.45385590E+03</pdfrwt>
<pdfrwt beam="2">  1       21 0.31181278E-01 0.45385590E+03</pdfrwt>
<totfact> 0.69182369E+04</totfact>
</mgrwt>
</event>
<event>
 7    0  0.4770865E-002  0.4409891E+03  0.7546771E-02  0.1030444E+00
         21   -1    0    0  502  501  0.00000000000E+00  0.00000000000E+00  0.19613426701E+03  0.19613426701E+03  0.00000000000E+00 0.  1.
         21   -1    0    0  501  502 -0.00000000000E+00 -0.00000000000E+00 -0.24788043459E+03  0.24788043459E+03  0.00000000000E+00 0.  1.
      99926    2    1    2    0    0  0.00000000000E+00  0.00000000000E+00 -0.51746167577E+02  0.44401470160E+03  0.44098910347E+03 0.  0.
      99925    2    3    3    0    0  0.17179848350E+02  0.90428874879E+02 -0.70919680609E+02  0.28752936586E+03  0.26300381467E+03 0.  0.
         25    1    3    3    0    0 -0.17179848350E+02 -0.90428874879E+02  0.19173513032E+02  0.15648533574E+03  0.12509000000E+03 0.  0.
         25    1    4    4    0    0  0.89780389038E+01  0.53988874883E+02  0.47783380297E+01  0.13662263505E+03  0.12509000000E+03 0.  0.
         25    1    4    4    0    0  0.82018094459E+01  0.36439999996E+02 -0.75698018639E+02  0.15090673081E+03  0.12509000000E+03 0.  0.
<mgrwt>
<rscale>  2 0.44098910E+03</rscale>
<asrwt>0</asrwt>
<pdfrwt beam="1">  1       21 0.28843275E-01 0.44098910E+03</pdfrwt>
<pdfrwt beam="2">  1       21 0.36453005E-01 0.44098910E+03</pdfrwt>
<totfact> 0.77685651E+04</totfact>
</mgrwt>
</event>
<event>
 7    0  0.4770865E-002  0.4593027E+03  0.7546771E-02  0.1024984E+00
         21   -1    0    0  502  501  0.00000000000E+00  0.00000000000E+00  0.42385841687E+02  0.42385841687E+02  0.00000000000E+00 0.  1.
         21   -1    0    0  501  502 -0.00000000000E+00 -0.00000000000E+00 -0.12442773218E+04  0.12442773218E+04  0.00000000000E+00 0.  1.
      99926    2    1    2    0    0  0.00000000000E+00  0.00000000000E+00 -0.12018914801E+04  0.12866631635E+04  0.45930269573E+03 0.  0.
      99925    2    3    3    0    0  0.11546991729E+03  0.44254273196E+01 -0.80688514625E+03  0.85651156451E+03  0.26305044136E+03 0.  0.
         25    1    3    3    0    0 -0.11546991729E+03 -0.44254273196E+01 -0.39500633384E+03  0.43015159895E+03  0.12509000000E+03 0.  0.
         25    1    4    4    0    0  0.89179828433E+02 -0.76390303323E+01 -0.35843627275E+03  0.39004546697E+03  0.12509000000E+03 0.  0.
         25    1    4    4    0    0  0.26290088856E+02  0.12064457652E+02 -0.44844887350E+03  0.46646609754E+03  0.12509000000E+03 0.  0.
<mgrwt>
<rscale>  2 0.45930270E+03</rscale>
<asrwt>0</asrwt>
<pdfrwt beam="1">  1       21 0.62332118E-02 0.45930270E+03</pdfrwt>
<pdfrwt beam="2">  1       21 0.18298197E+00 0.45930270E+03</pdfrwt>
<totfact> 0.28537104E+04</totfact>
</mgrwt>
</event>
<event>
 7    0  0.4770865E-002  0.4629715E+03  0.7546771E-02  0.1023923E+00
         21   -1    0    0  502  501  0.00000000000E+00  0.00000000000E+00  0.15640403530E+04  0.15640403530E+04  0.00000000000E+00 0. -1.
         21   -1    0    0  501  502 -0.00000000000E+00 -0.00000000000E+00 -0.34261048404E+02  0.34261048404E+02  0.00000000000E+00 0. -1.
      99926    2    1    2    0    0  0.17763568394E-14  0.00000000000E+00  0.15297793046E+04  0.15983014014E+04  0.46297154228E+03 0.  0.
      99925    2    3    3    0    0 -0.13982841878E+02 -0.11915501201E+03  0.97574245402E+03  0.10177863054E+04  0.26348091050E+03 0.  0.
         25    1    4    4    0    0 -0.59408332043E+01 -0.28276901851E+02  0.33913898675E+03  0.36262602928E+03  0.12509000000E+03 0.  0.
         25    1    3    3    0    0  0.13982841878E+02  0.11915501201E+03  0.55403685056E+03  0.58051509596E+03  0.12509000000E+03 0.  0.
         25    1    4    4    0    0 -0.80420086741E+01 -0.90878110154E+02  0.63660346727E+03  0.65516027615E+03  0.12509000000E+03 0.  0.
<mgrwt>
<rscale>  2 0.46297154E+03</rscale>
<asrwt>0</asrwt>
<pdfrwt beam="1">  1       21 0.23000589E+00 0.46297154E+03</pdfrwt>
<pdfrwt beam="2">  1       21 0.50383905E-02 0.46297154E+03</pdfrwt>
<totfact> 0.20189321E+04</totfact>
</mgrwt>
</event>
<event>
 7    0  0.4770865E-002  0.4473178E+03  0.7546771E-02  0.1028525E+00
         21   -1    0    0  502  501  0.00000000000E+00  0.00000000000E+00  0.90343018024E+03  0.90343018024E+03  0.00000000000E+00 0.  1.
         21   -1    0    0  501  502 -0.00000000000E+00 -0.00000000000E+00 -0.55370408229E+02  0.55370408229E+02  0.00000000000E+00 0.  1.
      99926    2    1    2    0    0  0.00000000000E+00  0.00000000000E+00  0.84805977201E+03  0.95880058847E+03  0.44731777468E+03 0.  0.
      99925    2    3    3    0    0 -0.65131014798E+02 -0.29295534000E+02  0.36880763393E+03  0.45837037620E+03  0.26264815539E+03 0.  0.
         25    1    4    4    0    0 -0.50221168963E+01 -0.43186588545E+02  0.18998738840E+03  0.23158803713E+03  0.12509000000E+03 0.  0.
         25    1    3    3    0    0  0.65131014798E+02  0.29295534000E+02  0.47925213808E+03  0.50043021227E+03  0.12509000000E+03 0.  0.
         25    1    4    4    0    0 -0.60108897901E+02  0.13891054545E+02  0.17882024553E+03  0.22678233907E+03  0.12509000000E+03 0.  0.
<mgrwt>
<rscale>  2 0.44731777E+03</rscale>
<asrwt>0</asrwt>
<pdfrwt beam="1">  1       21 0.13285737E+00 0.44731777E+03</pdfrwt>
<pdfrwt beam="2">  1       21 0.81427076E-02 0.44731777E+03</pdfrwt>
<totfact> 0.43331311E+04</totfact>
</mgrwt>
</event>
<event>
 7    0  0.4770865E-002  0.4171489E+03  0.7546771E-02  0.1037998E+00
         21   -1    0    0  502  501  0.00000000000E+00  0.00000000000E+00  0.94933855677E+02  0.94933855677E+02  0.00000000000E+00 0.  1.
         21   -1    0    0  501  502 -0.00000000000E+00 -0.00000000000E+00 -0.45824845742E+03  0.45824845742E+03  0.00000000000E+00 0.  1.
      99926    2    1    2    0    0 -0.71054273576E-14 -0.35527136788E-14 -0.36331460174E+03  0.55318231309E+03  0.41714886034E+03 0.  0.
      99925    2    3    3    0    0 -0.53342788970E+02 -0.22569753117E+02 -0.18022318320E+03  0.32399936753E+03  0.26294552194E+03 0.  0.
         25    1    4    4    0    0 -0.10353684469E+01 -0.33529996841E+02 -0.61164215165E+02  0.14322675027E+03  0.12509000000E+03 0.  0.
         25    1    3    3    0    0  0.53342788970E+02  0.22569753117E+02 -0.18309141854E+03  0.22918294556E+03  0.12509000000E+03 0.  0.
         25    1    4    4    0    0 -0.52307420523E+02  0.10960243725E+02 -0.11905896803E+03  0.18077261727E+03  0.12509000000E+03 0.  0.
<mgrwt>
<rscale>  2 0.41714886E+03</rscale>
<asrwt>0</asrwt>
<pdfrwt beam="1">  1       21 0.13960861E-01 0.41714886E+03</pdfrwt>
<pdfrwt beam="2">  1       21 0.67389480E-01 0.41714886E+03</pdfrwt>
<totfact> 0.84167963E+04</totfact>
</mgrwt>
</event>
<event>
 7    0  0.4770865E-002  0.4536474E+03  0.7546771E-02  0.1026640E+00
         21   -1    0    0  502  501  0.00000000000E+00  0.00000000000E+00  0.56354914296E+03  0.56354914296E+03  0.00000000000E+00 0. -1.
         21   -1    0    0  501  502 -0.00000000000E+00 -0.00000000000E+00 -0.91294609793E+02  0.91294609793E+02  0.00000000000E+00 0. -1.
      99926    2    1    2    0    0  0.00000000000E+00 -0.17763568394E-14  0.47225453316E+03  0.65484375275E+03  0.45364743626E+03 0.  0.
      99925    2    3    3    0    0 -0.86188838271E+02  0.11339425525E+02  0.19588395343E+03  0.33927236010E+03  0.26301732396E+03 0.  0.
         25    1    3    3    0    0  0.86188838271E+02 -0.11339425525E+02  0.27637057974E+03  0.31557139265E+03  0.12509000000E+03 0.  0.
         25    1    4    4    0    0 -0.10094985415E+02 -0.59794529037E+01  0.11874700348E+03  0.17287574013E+03  0.12509000000E+03 0.  0.
         25    1    4    4    0    0 -0.76093852856E+02  0.17318878428E+02  0.77136949941E+02  0.16639661997E+03  0.12509000000E+03 0.  0.
<mgrwt>
<rscale>  2 0.45364744E+03</rscale>
<asrwt>0</asrwt>
<pdfrwt beam="1">  1       21 0.82874872E-01 0.45364744E+03</pdfrwt>
<pdfrwt beam="2">  1       21 0.13425678E-01 0.45364744E+03</pdfrwt>
<totfact> 0.56018551E+04</totfact>
</mgrwt>
</event>
<event>
 7    0  0.4770865E-002  0.4533080E+03  0.7546771E-02  0.1026740E+00
         21   -1    0    0  502  501  0.00000000000E+00  0.00000000000E+00  0.52858815555E+02  0.52858815555E+02  0.00000000000E+00 0. -1.
         21   -1    0    0  501  502 -0.00000000000E+00 -0.00000000000E+00 -0.97187263357E+03  0.97187263357E+03  0.00000000000E+00 0. -1.
      99926    2    1    2    0    0  0.00000000000E+00  0.00000000000E+00 -0.91901381802E+03  0.10247314491E+04  0.45330800249E+03 0.  0.
      99925    2    3    3    0    0 -0.80022932438E+02 -0.71052957147E+02 -0.65092058513E+03  0.71013061942E+03  0.26293667688E+03 0.  0.
         25    1    4    4    0    0 -0.76719252621E+01 -0.56888830458E+02 -0.34729359693E+03  0.37357134263E+03  0.12509000000E+03 0.  0.
         25    1    3    3    0    0  0.80022932438E+02  0.71052957147E+02 -0.26809323288E+03  0.31460082971E+03  0.12509000000E+03 0.  0.
         25    1    4    4    0    0 -0.72351007175E+02 -0.14164126689E+02 -0.30362698820E+03  0.33655927678E+03  0.12509000000E+03 0.  0.
<mgrwt>
<rscale>  2 0.45330800E+03</rscale>
<asrwt>0</asrwt>
<pdfrwt beam="1">  1       21 0.77733551E-02 0.45330800E+03</pdfrwt>
<pdfrwt beam="2">  1       21 0.14292245E+00 0.45330800E+03</pdfrwt>
<totfact> 0.38727514E+04</totfact>
</mgrwt>
</event>
<event>
 7    0  0.4770865E-002  0.4539663E+03  0.7546771E-02  0.1026546E+00
         21   -1    0    0  502  501  0.00000000000E+00  0.00000000000E+00  0.59049688111E+02  0.59049688111E+02  0.00000000000E+00 0.  1.
         21   -1    0    0  501  502 -0.00000000000E+00 -0.00000000000E+00 -0.87250827959E+03  0.87250827959E+03  0.00000000000E+00 0.  1.
      99926    2    1    2    0    0  0.00000000000E+00  0.71054273576E-14 -0.81345859148E+03  0.93155796770E+03  0.45396626211E+03 0.  0.
      99925    2    3    3    0    0  0.33861414238E+02 -0.34161253061E+02 -0.30420718579E+03  0.40496696048E+03  0.26294988232E+03 0.  0.
         25    1    4    4    0    0  0.19227265063E+01  0.16837946392E+02 -0.11870944717E+03  0.17328200791E+03  0.12509000000E+03 0.  0.
         25    1    3    3    0    0 -0.33861414238E+02  0.34161253061E+02 -0.50925140569E+03  0.52659100722E+03  0.12509000000E+03 0.  0.
         25    1    4    4    0    0  0.31938687732E+02 -0.50999199453E+02 -0.18549773861E+03  0.23168495258E+03  0.12509000000E+03 0.  0.
<mgrwt>
<rscale>  2 0.45396626E+03</rscale>
<asrwt>0</asrwt>
<pdfrwt beam="1">  1       21 0.86837777E-02 0.45396626E+03</pdfrwt>
<pdfrwt beam="2">  1       21 0.12831004E+00 0.45396626E+03</pdfrwt>
<totfact> 0.42237224E+04</totfact>
</mgrwt>
</event>
<event>
 7    0  0.4770865E-002  0.4665214E+03  0.7546771E-02  0.1022907E+00
         21   -1    0    0  502  501  0.00000000000E+00  0.00000000000E+00  0.14978554606E+03  0.14978554606E+03  0.00000000000E+00 0.  1.
         21   -1    0    0  501  502 -0.00000000000E+00 -0.00000000000E+00 -0.36325640938E+03  0.36325640938E+03  0.00000000000E+00 0.  1.
      99926    2    1    2    0    0 -0.14210854715E-13  0.00000000000E+00 -0.21347086333E+03  0.51304195544E+03  0.46652142346E+03 0.  0.
      99925    2    3    3    0    0  0.91855046243E+02  0.80051782787E+02 -0.10993247133E+03  0.31003125581E+03  0.26303724808E+03 0.  0.
         25    1    4    4    0    0  0.37501114917E+02  0.55046406913E+02 -0.94897975029E+02  0.17055666008E+03  0.12509000000E+03 0.  0.
         25    1    4    4    0    0  0.54353931326E+02  0.25005375875E+02 -0.15034496304E+02  0.13947459572E+03  0.12509000000E+03 0.  0.
         25    1    3    3    0    0 -0.91855046243E+02 -0.80051782787E+02 -0.10353839199E+03  0.20301069963E+03  0.12509000000E+03 0.  0.
<mgrwt>
<rscale>  2 0.46652142E+03</rscale>
<asrwt>0</asrwt>
<pdfrwt beam="1">  1       21 0.22027287E-01 0.46652142E+03</pdfrwt>
<pdfrwt beam="2">  1       21 0.53420059E-01 0.46652142E+03</pdfrwt>
<totfact> 0.58800023E+04</totfact>
</mgrwt>
</event>
<event>
 7    0  0.4770865E-002  0.4448135E+03  0.7546771E-02  0.1029280E+00
         21   -1    0    0  502  501  0.00000000000E+00  0.00000000000E+00  0.11634493373E+03  0.11634493373E+03  0.00000000000E+00 0.  1.
         21   -1    0    0  501  502 -0.00000000000E+00 -0.00000000000E+00 -0.42515611275E+03  0.42515611275E+03  0.00000000000E+00 0.  1.
      99926    2    1    2    0    0  0.00000000000E+00 -0.44408920985E-15 -0.30881117902E+03  0.54150104648E+03  0.44481348794E+03 0.  0.
      99925    2    3    3    0    0 -0.91006796630E+02  0.34203593169E+01 -0.13695250167E+03  0.31025042709E+03  0.26306919984E+03 0.  0.
         25    1    3    3    0    0  0.91006796630E+02 -0.34203593169E+01 -0.17185867735E+03  0.23125061939E+03  0.12509000000E+03 0.  0.
         25    1    4    4    0    0 -0.65001455344E+02  0.24107207805E+01 -0.11201302990E+03  0.18007061876E+03  0.12509000000E+03 0.  0.
         25    1    4    4    0    0 -0.26005341286E+02  0.10096385364E+01 -0.24939471766E+02  0.13017980833E+03  0.12509000000E+03 0.  0.
<mgrwt>
<rscale>  2 0.44481349E+03</rscale>
<asrwt>0</asrwt>
<pdfrwt beam="1">  1       21 0.17109549E-01 0.44481349E+03</pdfrwt>
<pdfrwt beam="2">  1       21 0.62522958E-01 0.44481349E+03</pdfrwt>
<totfact> 0.67728400E+04</totfact>
</mgrwt>
</event>
<event>
 7    0  0.4770865E-002  0.4564521E+03  0.7546771E-02  0.1025815E+00
         21   -1    0    0  502  501  0.00000000000E+00  0.00000000000E+00  0.32482456463E+03  0.32482456463E+03  0.00000000000E+00 0. -1.
         21   -1    0    0  501  502 -0.00000000000E+00 -0.00000000000E+00 -0.16035466798E+03  0.16035466798E+03  0.00000000000E+00 0. -1.
      99926    2    1    2    0    0 -0.35527136788E-14  0.00000000000E+00  0.16446989665E+03  0.48517923261E+03  0.45645212328E+03 0.  0.
      99925    2    3    3    0    0  0.18684941818E+02  0.10654064459E+03  0.64162643898E+02  0.29176493878E+03  0.26326773185E+03 0.  0.
         25    1    3    3    0    0 -0.18684941818E+02 -0.10654064459E+03  0.10030725275E+03  0.19341429382E+03  0.12509000000E+03 0.  0.
         25    1    4    4    0    0  0.55574550505E+01  0.93341095584E+02  0.18328328021E+02  0.15724783350E+03  0.12509000000E+03 0.  0.
         25    1    4    4    0    0  0.13127486768E+02  0.13199549005E+02  0.45834315878E+02  0.13451710529E+03  0.12509000000E+03 0.  0.
<mgrwt>
<rscale>  2 0.45645212E+03</rscale>
<asrwt>0</asrwt>
<pdfrwt beam="1">  1       21 0.47768318E-01 0.45645212E+03</pdfrwt>
<pdfrwt beam="2">  1       21 0.23581569E-01 0.45645212E+03</pdfrwt>
<totfact> 0.65565916E+04</totfact>
</mgrwt>
</event>
<event>
 7    0  0.4770865E-002  0.4487629E+03  0.7546771E-02  0.1028092E+00
         21   -1    0    0  502  501  0.00000000000E+00  0.00000000000E+00  0.14787929996E+04  0.14787929996E+04  0.00000000000E+00 0.  1.
         21   -1    0    0  501  502 -0.00000000000E+00 -0.00000000000E+00 -0.34046036486E+02  0.34046036486E+02  0.00000000000E+00 0.  1.
      99926    2    1    2    0    0  0.00000000000E+00  0.53290705182E-14  0.14447469631E+04  0.15128390361E+04  0.44876292369E+03 0.  0.
      99925    2    3    3    0    0  0.10158918026E+03  0.84249329597E+01  0.10267705232E+04  0.10647953402E+04  0.26294499057E+03 0.  0.
         25    1    3    3    0    0 -0.10158918026E+03 -0.84249329597E+01  0.41797643993E+03  0.44804369594E+03  0.12509000000E+03 0.  0.
         25    1    4    4    0    0  0.62590488957E+02 -0.28132110402E+02  0.60657879883E+03  0.62313267627E+03  0.12509000000E+03 0.  0.
         25    1    4    4    0    0  0.38998691304E+02  0.36557043362E+02  0.42019172437E+03  0.44166266388E+03  0.12509000000E+03 0.  0.
<mgrwt>
<rscale>  2 0.44876292E+03</rscale>
<asrwt>0</asrwt>
<pdfrwt beam="1">  1       21 0.21746952E+00 0.44876292E+03</pdfrwt>
<pdfrwt beam="2">  1       21 0.50067711E-02 0.44876292E+03</pdfrwt>
<totfact> 0.24638354E+04</totfact>
</mgrwt>
</event>
<event>
 7    0  0.4770865E-002  0.4555001E+03  0.7546771E-02  0.1026094E+00
         21   -1    0    0  502  501  0.00000000000E+00  0.00000000000E+00  0.48730169851E+02  0.48730169851E+02  0.00000000000E+00 0. -1.
         21   -1    0    0  501  502 -0.00000000000E+00 -0.00000000000E+00 -0.10644345376E+04  0.10644345376E+04  0.00000000000E+00 0. -1.
      99926    2    1    2    0    0  0.00000000000E+00  0.00000000000E+00 -0.10157043677E+04  0.11131647074E+04  0.45550005844E+03 0.  0.
      99925    2    3    3    0    0 -0.29277614916E+02 -0.10006661636E+03 -0.52814631874E+03  0.59913079252E+03  0.26296133955E+03 0.  0.
         25    1    4    4    0    0 -0.53711017509E+02 -0.48270566756E+02 -0.29381606201E+03  0.32739930882E+03  0.12509000000E+03 0.  0.
         25    1    4    4    0    0  0.24433402593E+02 -0.51796049606E+02 -0.23433025672E+03  0.27173148370E+03  0.12509000000E+03 0.  0.
         25    1    3    3    0    0  0.29277614916E+02  0.10006661636E+03 -0.48755804897E+03  0.51403391490E+03  0.12509000000E+03 0.  0.
<mgrwt>
<rscale>  2 0.45550006E+03</rscale>
<asrwt>0</asrwt>
<pdfrwt beam="1">  1       21 0.71662013E-02 0.45550006E+03</pdfrwt>
<pdfrwt beam="2">  1       21 0.15653449E+00 0.45550006E+03</pdfrwt>
<totfact> 0.34899958E+04</totfact>
</mgrwt>
</event>
<event>
 7    0  0.4770865E-002  0.4616486E+03  0.7546771E-02  0.1024304E+00
         21   -1    0    0  502  501  0.00000000000E+00  0.00000000000E+00  0.36540580917E+02  0.36540580917E+02  0.00000000000E+00 0. -1.
         21   -1    0    0  501  502 -0.00000000000E+00 -0.00000000000E+00 -0.14581009977E+04  0.14581009977E+04  0.00000000000E+00 0. -1.
      99926    2    1    2    0    0 -0.17763568394E-14  0.00000000000E+00 -0.14215604168E+04  0.14946415786E+04  0.46164860009E+03 0.  0.
      99925    2    3    3    0    0  0.96234468555E+01 -0.10360213711E+03 -0.10778882249E+04  0.11143994228E+04  0.26309130439E+03 0.  0.
         25    1    3    3    0    0 -0.96234468555E+01  0.10360213711E+03 -0.34367219184E+03  0.38024215585E+03  0.12509000000E+03 0.  0.
         25    1    4    4    0    0  0.12101319547E+02 -0.89222182901E+01 -0.47234944801E+03  0.48886353622E+03  0.12509000000E+03 0.  0.
         25    1    4    4    0    0 -0.24778726917E+01 -0.94679918819E+02 -0.60553877692E+03  0.62553588653E+03  0.12509000000E+03 0.  0.
<mgrwt>
<rscale>  2 0.46164860E+03</rscale>
<asrwt>0</asrwt>
<pdfrwt beam="1">  1       21 0.53736149E-02 0.46164860E+03</pdfrwt>
<pdfrwt beam="2">  1       21 0.21442662E+00 0.46164860E+03</pdfrwt>
<totfact> 0.22714872E+04</totfact>
</mgrwt>
</event>
<event>
 7    0  0.4770865E-002  0.4565277E+03  0.7546771E-02  0.1025793E+00
         21   -1    0    0  502  501  0.00000000000E+00  0.00000000000E+00  0.22222168017E+03  0.22222168017E+03  0.00000000000E+00 0. -1.
         21   -1    0    0  501  502 -0.00000000000E+00 -0.00000000000E+00 -0.23447035650E+03  0.23447035650E+03  0.00000000000E+00 0. -1.
      99926    2    1    2    0    0  0.00000000000E+00  0.00000000000E+00 -0.12248676331E+02  0.45669203667E+03  0.45652774974E+03 0.  0.
      99925    2    3    3    0    0  0.56294909275E+02  0.57009458302E+02 -0.89854554246E+02  0.28909318365E+03  0.26283423059E+03 0.  0.
         25    1    4    4    0    0  0.10817952047E+02  0.22303230431E+02 -0.53007120960E+01  0.12763255001E+03  0.12509000000E+03 0.  0.
         25    1    3    3    0    0 -0.56294909275E+02 -0.57009458302E+02  0.77605877916E+02  0.16759885302E+03  0.12509000000E+03 0.  0.
         25    1    4    4    0    0  0.45476957228E+02  0.34706227871E+02 -0.84553842150E+02  0.16146063364E+03  0.12509000000E+03 0.  0.
<mgrwt>
<rscale>  2 0.45652775E+03</rscale>
<asrwt>0</asrwt>
<pdfrwt beam="1">  1       21 0.32679659E-01 0.45652775E+03</pdfrwt>
<pdfrwt beam="2">  1       21 0.34480935E-01 0.45652775E+03</pdfrwt>
<totfact> 0.67594293E+04</totfact>
</mgrwt>
</event>
<event>
 7    0  0.4770865E-002  0.4433595E+03  0.7546771E-02  0.1029721E+00
         21   -1    0    0  502  501  0.00000000000E+00  0.00000000000E+00  0.14664746985E+03  0.14664746985E+03  0.00000000000E+00 0.  1.
         21   -1    0    0  501  502 -0.00000000000E+00 -0.00000000000E+00 -0.33510233700E+03  0.33510233700E+03  0.00000000000E+00 0.  1.
      99926    2    1    2    0    0  0.00000000000E+00 -0.35527136788E-14 -0.18845486715E+03  0.48174980685E+03  0.44335949234E+03 0.  0.
      99925    2    3    3    0    0 -0.50491050894E+02 -0.24925699183E+02 -0.27734809034E+02  0.27044651326E+03  0.26306170418E+03 0.  0.
         25    1    4    4    0    0 -0.67682713326E+01 -0.43286028501E+02 -0.32924956645E+02  0.13656884941E+03  0.12509000000E+03 0.  0.
         25    1    4    4    0    0 -0.43722779562E+02  0.18360329318E+02  0.51901476111E+01  0.13387766385E+03  0.12509000000E+03 0.  0.
         25    1    3    3    0    0  0.50491050894E+02  0.24925699183E+02 -0.16072005811E+03  0.21130329359E+03  0.12509000000E+03 0.  0.
<mgrwt>
<rscale>  2 0.44335949E+03</rscale>
<asrwt>0</asrwt>
<pdfrwt beam="1">  1       21 0.21565804E-01 0.44335949E+03</pdfrwt>
<pdfrwt beam="2">  1       21 0.49279755E-01 0.44335949E+03</pdfrwt>
<totfact> 0.73097878E+04</totfact>
</mgrwt>
</event>
<event>
 7    0  0.4770865E-002  0.4522004E+03  0.7546771E-02  0.1027068E+00
         21   -1    0    0  502  501  0.00000000000E+00  0.00000000000E+00  0.29374197635E+03  0.29374197635E+03  0.00000000000E+00 0.  1.
         21   -1    0    0  501  502 -0.00000000000E+00 -0.00000000000E+00 -0.17403467639E+03  0.17403467639E+03  0.00000000000E+00 0.  1.
      99926    2    1    2    0    0  0.00000000000E+00  0.00000000000E+00  0.11970729996E+03  0.46777665274E+03  0.45220035293E+03 0.  0.
      99925    2    3    3    0    0  0.33823110718E+02  0.32384427269E+02  0.17911157387E+03  0.32159481458E+03  0.26296295352E+03 0.  0.
         25    1    4    4    0    0 -0.17500080247E+02  0.67348597320E+01  0.10984164699E+03  0.16752404800E+03  0.12509000000E+03 0.  0.
         25    1    3    3    0    0 -0.33823110718E+02 -0.32384427269E+02 -0.59404273914E+02  0.14618183816E+03  0.12509000000E+03 0.  0.
         25    1    4    4    0    0  0.51323190965E+02  0.25649567537E+02  0.69269926888E+02  0.15407076659E+03  0.12509000000E+03 0.  0.
<mgrwt>
<rscale>  2 0.45220035E+03</rscale>
<asrwt>0</asrwt>
<pdfrwt beam="1">  1       21 0.43197349E-01 0.45220035E+03</pdfrwt>
<pdfrwt beam="2">  1       21 0.25593335E-01 0.45220035E+03</pdfrwt>
<totfact> 0.69123936E+04</totfact>
</mgrwt>
</event>
<event>
 7    0  0.4770865E-002  0.4550275E+03  0.7546771E-02  0.1026233E+00
         21   -1    0    0  502  501  0.00000000000E+00  0.00000000000E+00  0.85821831332E+03  0.85821831332E+03  0.00000000000E+00 0.  1.
         21   -1    0    0  501  502 -0.00000000000E+00 -0.00000000000E+00 -0.60313928063E+02  0.60313928063E+02  0.00000000000E+00 0.  1.
      99926    2    1    2    0    0  0.00000000000E+00  0.00000000000E+00  0.79790438526E+03  0.91853224138E+03  0.45502754911E+03 0.  0.
      99925    2    3    3    0    0  0.44580710495E+02  0.71507987742E+02  0.34958571033E+03  0.44552275475E+03  0.26302000698E+03 0.  0.
         25    1    4    4    0    0  0.18286828946E+02 -0.13837163633E+01  0.13130701875E+03  0.18227825997E+03  0.12509000000E+03 0.  0.
         25    1    3    3    0    0 -0.44580710495E+02 -0.71507987742E+02  0.44831867492E+03  0.47300948663E+03  0.12509000000E+03 0.  0.
         25    1    4    4    0    0  0.26293881549E+02  0.72891704105E+02  0.21827869158E+03  0.26324449478E+03  0.12509000000E+03 0.  0.
<mgrwt>
<rscale>  2 0.45502755E+03</rscale>
<asrwt>0</asrwt>
<pdfrwt beam="1">  1       21 0.12620857E+00 0.45502755E+03</pdfrwt>
<pdfrwt beam="2">  1       21 0.88696958E-02 0.45502755E+03</pdfrwt>
<totfact> 0.42432943E+04</totfact>
</mgrwt>
</event>
<event>
 7    0  0.4770865E-002  0.4545432E+03  0.7546771E-02  0.1026376E+00
         21   -1    0    0  502  501  0.00000000000E+00  0.00000000000E+00  0.60005947350E+03  0.60005947350E+03  0.00000000000E+00 0.  1.
         21   -1    0    0  501  502 -0.00000000000E+00 -0.00000000000E+00 -0.86078754704E+02  0.86078754704E+02  0.00000000000E+00 0.  1.
      99926    2    1    2    0    0  0.00000000000E+00 -0.22204460493E-15  0.51398071880E+03  0.68613822821E+03  0.45454316507E+03 0.  0.
      99925    2    3    3    0    0 -0.10978700141E+03 -0.12067623122E+01  0.28337924025E+03  0.40174555608E+03  0.26275664800E+03 0.  0.
         25    1    4    4    0    0 -0.65561948691E+02 -0.11410672742E+02  0.93052922851E+02  0.16951379625E+03  0.12509000000E+03 0.  0.
         25    1    4    4    0    0 -0.44225052717E+02  0.10203910429E+02  0.19032631740E+03  0.23223175983E+03  0.12509000000E+03 0.  0.
         25    1    3    3    0    0  0.10978700141E+03  0.12067623122E+01  0.23060147855E+03  0.28439267213E+03  0.12509000000E+03 0.  0.
<mgrwt>
<rscale>  2 0.45454317E+03</rscale>
<asrwt>0</asrwt>
<pdfrwt beam="1">  1       21 0.88244038E-01 0.45454317E+03</pdfrwt>
<pdfrwt beam="2">  1       21 0.12658641E-01 0.45454317E+03</pdfrwt>
<totfact> 0.53855675E+04</totfact>
</mgrwt>
</event>
<event>
 7    0  0.4770865E-002  0.4509629E+03  0.7546771E-02  0.1027435E+00
         21   -1    0    0  502  501  0.00000000000E+00  0.00000000000E+00  0.26342014456E+03  0.26342014456E+03  0.00000000000E+00 0. -1.
         21   -1    0    0  501  502 -0.00000000000E+00 -0.00000000000E+00 -0.19300684973E+03  0.19300684973E+03  0.00000000000E+00 0. -1.
      99926    2    1    2    0    0 -0.35527136788E-14  0.00000000000E+00  0.70413294838E+02  0.45642699429E+03  0.45096293531E+03 0.  0.
      99925    2    3    3    0    0 -0.18845867354E+02 -0.10046261330E+03  0.50404629969E+01  0.28215990437E+03  0.26294657628E+03 0.  0.
         25    1    3    3    0    0  0.18845867354E+02  0.10046261330E+03  0.65372831841E+02  0.17426708992E+03  0.12509000000E+03 0.  0.
         25    1    4    4    0    0  0.25211850091E+02 -0.58472982686E+02  0.21785633032E+02  0.14204523574E+03  0.12509000000E+03 0.  0.
         25    1    4    4    0    0 -0.44057717445E+02 -0.41989630615E+02 -0.16745170035E+02  0.14011466863E+03  0.12509000000E+03 0.  0.
<mgrwt>
<rscale>  2 0.45096294E+03</rscale>
<asrwt>0</asrwt>
<pdfrwt beam="1">  1       21 0.38738257E-01 0.45096294E+03</pdfrwt>
<pdfrwt beam="2">  1       21 0.28383360E-01 0.45096294E+03</pdfrwt>
<totfact> 0.70690257E+04</totfact>
</mgrwt>
</event>
<event>
 7    0  0.4770865E-002  0.4506049E+03  0.7546771E-02  0.1027542E+00
         21   -1    0    0  502  501  0.00000000000E+00  0.00000000000E+00  0.18224766464E+03  0.18224766464E+03  0.00000000000E+00 0. -1.
         21   -1    0    0  501  502 -0.00000000000E+00 -0.00000000000E+00 -0.27852861487E+03  0.27852861487E+03  0.00000000000E+00 0. -1.
      99926    2    1    2    0    0  0.00000000000E+00  0.00000000000E+00 -0.96280950235E+02  0.46077627952E+03  0.45060488056E+03 0.  0.
      99925    2    3    3    0    0  0.64669896501E+01  0.50721748983E+02 -0.15935893664E+03  0.31164258700E+03  0.26289030710E+03 0.  0.
         25    1    4    4    0    0  0.13858269049E+02  0.42299843982E+02 -0.12275849028E+03  0.18082721990E+03  0.12509000000E+03 0.  0.
         25    1    4    4    0    0 -0.73912793993E+01  0.84219050017E+01 -0.36600446360E+02  0.13081536710E+03  0.12509000000E+03 0.  0.
         25    1    3    3    0    0 -0.64669896501E+01 -0.50721748983E+02  0.63077986403E+02  0.14913369252E+03  0.12509000000E+03 0.  0.
<mgrwt>
<rscale>  2 0.45060488E+03</rscale>
<asrwt>0</asrwt>
<pdfrwt beam="1">  1       21 0.26801127E-01 0.45060488E+03</pdfrwt>
<pdfrwt beam="2">  1       21 0.40960090E-01 0.45060488E+03</pdfrwt>
<totfact> 0.70556355E+04</totfact>
</mgrwt>
</event>
<event>
 7    0  0.4770865E-002  0.4529471E+03  0.7546771E-02  0.1026847E+00
         21   -1    0    0  502  501  0.00000000000E+00  0.00000000000E+00  0.41293699203E+03  0.41293699203E+03  0.00000000000E+00 0. -1.
         21   -1    0    0  501  502 -0.00000000000E+00 -0.00000000000E+00 -0.12420846896E+03  0.12420846896E+03  0.00000000000E+00 0. -1.
      99926    2    1    2    0    0  0.00000000000E+00 -0.71054273576E-14  0.28872852307E+03  0.53714546100E+03  0.45294711196E+03 0.  0.
      99925    2    3    3    0    0  0.75912951987E+02 -0.52939787946E+02  0.10907941705E+03  0.29947613857E+03  0.26310119902E+03 0.  0.
         25    1    3    3    0    0 -0.75912951987E+02  0.52939787946E+02  0.17964910602E+03  0.23766932242E+03  0.12509000000E+03 0.  0.
         25    1    4    4    0    0  0.88151615519E+01 -0.61705272890E+01  0.25079344876E+02  0.12803227765E+03  0.12509000000E+03 0.  0.
         25    1    4    4    0    0  0.67097790435E+02 -0.46769260657E+02  0.84000072172E+02  0.17144386092E+03  0.12509000000E+03 0.  0.
<mgrwt>
<rscale>  2 0.45294711E+03</rscale>
<asrwt>0</asrwt>
<pdfrwt beam="1">  1       21 0.60726028E-01 0.45294711E+03</pdfrwt>
<pdfrwt beam="2">  1       21 0.18265951E-01 0.45294711E+03</pdfrwt>
<totfact> 0.63753566E+04</totfact>
</mgrwt>
</event>
<event>
 7    0  0.4770865E-002  0.4528731E+03  0.7546771E-02  0.1026869E+00
         21   -1    0    0  502  501  0.00000000000E+00  0.00000000000E+00  0.10178446814E+03  0.10178446814E+03  0.00000000000E+00 0. -1.
         21   -1    0    0  501  502 -0.00000000000E+00 -0.00000000000E+00 -0.50374599425E+03  0.50374599425E+03  0.00000000000E+00 0. -1.
      99926    2    1    2    0    0  0.00000000000E+00  0.00000000000E+00 -0.40196152611E+03  0.60553046239E+03  0.45287313059E+03 0.  0.
      99925    2    3    3    0    0  0.38382109720E+02  0.41207887409E+02 -0.38165392242E+03  0.46685392076E+03  0.26290985241E+03 0.  0.
         25    1    4    4    0    0  0.57942950570E+02  0.28558942965E+02 -0.18191357627E+03  0.23002838102E+03  0.12509000000E+03 0.  0.
         25    1    3    3    0    0 -0.38382109720E+02 -0.41207887409E+02 -0.20307603690E+02  0.13867654163E+03  0.12509000000E+03 0.  0.
         25    1    4    4    0    0 -0.19560840851E+02  0.12648944444E+02 -0.19974034615E+03  0.23682553974E+03  0.12509000000E+03 0.  0.
<mgrwt>
<rscale>  2 0.45287313E+03</rscale>
<asrwt>0</asrwt>
<pdfrwt beam="1">  1       21 0.14968304E-01 0.45287313E+03</pdfrwt>
<pdfrwt beam="2">  1       21 0.74080293E-01 0.45287313E+03</pdfrwt>
<totfact> 0.59329733E+04</totfact>
</mgrwt>
</event>
<event>
 7    0  0.4770865E-002  0.4552866E+03  0.7546771E-02  0.1026157E+00
         21   -1    0    0  502  501  0.00000000000E+00  0.00000000000E+00  0.10907228663E+04  0.10907228663E+04  0.00000000000E+00 0. -1.
         21   -1    0    0  501  502 -0.00000000000E+00 -0.00000000000E+00 -0.47511122478E+02  0.47511122478E+02  0.00000000000E+00 0. -1.
      99926    2    1    2    0    0  0.00000000000E+00  0.71054273576E-14  0.10432117438E+04  0.11382339887E+04  0.45528658091E+03 0.  0.
      99925    2    3    3    0    0 -0.37582872809E+02  0.54667449662E+02  0.42655480506E+03  0.50553003699E+03  0.26307910255E+03 0.  0.
         25    1    4    4    0    0 -0.29380948392E+01 -0.10898484410E+02  0.20951486137E+03  0.24427729039E+03  0.12509000000E+03 0.  0.
         25    1    4    4    0    0 -0.34644777970E+02  0.65565934073E+02  0.21703994369E+03  0.26125274660E+03  0.12509000000E+03 0.  0.
         25    1    3    3    0    0  0.37582872809E+02 -0.54667449662E+02  0.61665693872E+03  0.63270395175E+03  0.12509000000E+03 0.  0.
<mgrwt>
<rscale>  2 0.45528658E+03</rscale>
<asrwt>0</asrwt>
<pdfrwt beam="1">  1       21 0.16040041E+00 0.45528658E+03</pdfrwt>
<pdfrwt beam="2">  1       21 0.69869305E-02 0.45528658E+03</pdfrwt>
<totfact> 0.34101412E+04</totfact>
</mgrwt>
</event>
<event>
 7    0  0.4770865E-002  0.4558359E+03  0.7546771E-02  0.1025996E+00
         21   -1    0    0  502  501  0.00000000000E+00  0.00000000000E+00  0.10970909045E+03  0.10970909045E+03  0.00000000000E+00 0. -1.
         21   -1    0    0  501  502 -0.00000000000E+00 -0.00000000000E+00 -0.47349395440E+03  0.47349395440E+03  0.00000000000E+00 0. -1.
      99926    2    1    2    0    0  0.00000000000E+00  0.00000000000E+00 -0.36378486395E+03  0.58320304485E+03  0.45583589622E+03 0.  0.
      99925    2    3    3    0    0  0.73989341659E+02  0.83785462811E+02 -0.25774129551E+03  0.38474102590E+03  0.26287003470E+03 0.  0.
         25    1    3    3    0    0 -0.73989341659E+02 -0.83785462811E+02 -0.10604356845E+03  0.19846201895E+03  0.12509000000E+03 0.  0.
         25    1    4    4    0    0  0.16548705475E+02  0.64772630184E+02 -0.94815179102E+02  0.17060709118E+03  0.12509000000E+03 0.  0.
         25    1    4    4    0    0  0.57440636184E+02  0.19012832627E+02 -0.16292611641E+03  0.21413393472E+03  0.12509000000E+03 0.  0.
<mgrwt>
<rscale>  2 0.45583590E+03</rscale>
<asrwt>0</asrwt>
<pdfrwt beam="1">  1       21 0.16133690E-01 0.45583590E+03</pdfrwt>
<pdfrwt beam="2">  1       21 0.69631463E-01 0.45583590E+03</pdfrwt>
<totfact> 0.59331239E+04</totfact>
</mgrwt>
</event>
<event>
 7    0  0.4770865E-002  0.4288944E+03  0.7546771E-02  0.1034210E+00
         21   -1    0    0  502  501  0.00000000000E+00  0.00000000000E+00  0.99854055772E+02  0.99854055772E+02  0.00000000000E+00 0.  1.
         21   -1    0    0  501  502 -0.00000000000E+00 -0.00000000000E+00 -0.46054814948E+03  0.46054814948E+03  0.00000000000E+00 0.  1.
      99926    2    1    2    0    0  0.00000000000E+00  0.00000000000E+00 -0.36069409371E+03  0.56040220525E+03  0.42889439541E+03 0.  0.
      99925    2    3    3    0    0 -0.71425245652E+02  0.49949491629E+01 -0.16939165748E+03  0.32088050386E+03  0.26295294046E+03 0.  0.
         25    1    4    4    0    0 -0.53548508291E+02 -0.69436344326E+01 -0.45839366505E+02  0.14375121711E+03  0.12509000000E+03 0.  0.
         25    1    4    4    0    0 -0.17876737361E+02  0.11938583596E+02 -0.12355229098E+03  0.17712928674E+03  0.12509000000E+03 0.  0.
         25    1    3    3    0    0  0.71425245652E+02 -0.49949491629E+01 -0.19130243623E+03  0.23952170140E+03  0.12509000000E+03 0.  0.
<mgrwt>
<rscale>  2 0.42889440E+03</rscale>
<asrwt>0</asrwt>
<pdfrwt beam="1">  1       21 0.14684420E-01 0.42889440E+03</pdfrwt>
<pdfrwt beam="2">  1       21 0.67727668E-01 0.42889440E+03</pdfrwt>
<totfact> 0.75632622E+04</totfact>
</mgrwt>
</event>
<event>
 7    0  0.4770865E-002  0.4571825E+03  0.7546771E-02  0.1025602E+00
         21   -1    0    0  502  501  0.00000000000E+00  0.00000000000E+00  0.56404291948E+03  0.56404291948E+03  0.00000000000E+00 0.  1.
         21   -1    0    0  501  502 -0.00000000000E+00 -0.00000000000E+00 -0.92641827525E+02  0.92641827525E+02  0.00000000000E+00 0.  1.
      99926    2    1    2    0    0  0.00000000000E+00  0.00000000000E+00  0.47140109196E+03  0.65668474701E+03  0.45718253188E+03 0.  0.
      99925    2    3    3    0    0  0.15477215364E+02 -0.65794333288E+02  0.43008560400E+03  0.50862085494E+03  0.26296978691E+03 0.  0.
         25    1    4    4    0    0 -0.52790080659E+01  0.66422651220E+01  0.19155399567E+03  0.22893760934E+03  0.12509000000E+03 0.  0.
         25    1    4    4    0    0  0.20756223430E+02 -0.72436598410E+02  0.23853160833E+03  0.27968324561E+03  0.12509000000E+03 0.  0.
         25    1    3    3    0    0 -0.15477215364E+02  0.65794333288E+02  0.41315487960E+02  0.14806389207E+03  0.12509000000E+03 0.  0.
<mgrwt>
<rscale>  2 0.45718253E+03</rscale>
<asrwt>0</asrwt>
<pdfrwt beam="1">  1       21 0.82947487E-01 0.45718253E+03</pdfrwt>
<pdfrwt beam="2">  1       21 0.13623798E-01 0.45718253E+03</pdfrwt>
<totfact> 0.54375910E+04</totfact>
</mgrwt>
</event>
<event>
 7    0  0.4770865E-002  0.4496917E+03  0.7546771E-02  0.1027814E+00
         21   -1    0    0  502  501  0.00000000000E+00  0.00000000000E+00  0.16361597782E+03  0.16361597782E+03  0.00000000000E+00 0.  1.
         21   -1    0    0  501  502 -0.00000000000E+00 -0.00000000000E+00 -0.30898979191E+03  0.30898979191E+03  0.00000000000E+00 0.  1.
      99926    2    1    2    0    0  0.00000000000E+00  0.00000000000E+00 -0.14537381409E+03  0.47260576973E+03  0.44969174749E+03 0.  0.
      99925    2    3    3    0    0  0.20288694064E+02  0.62436617127E+01 -0.20333568230E+03  0.33311490736E+03  0.26300100264E+03 0.  0.
         25    1    4    4    0    0  0.41543226794E+02 -0.84220298604E+01 -0.13239096616E+03  0.18700707554E+03  0.12509000000E+03 0.  0.
         25    1    4    4    0    0 -0.21254532731E+02  0.14665691573E+02 -0.70944716144E+02  0.14610783182E+03  0.12509000000E+03 0.  0.
         25    1    3    3    0    0 -0.20288694064E+02 -0.62436617127E+01  0.57961868214E+02  0.13949086237E+03  0.12509000000E+03 0.  0.
<mgrwt>
<rscale>  2 0.44969175E+03</rscale>
<asrwt>0</asrwt>
<pdfrwt beam="1">  1       21 0.24061174E-01 0.44969175E+03</pdfrwt>
<pdfrwt beam="2">  1       21 0.45439675E-01 0.44969175E+03</pdfrwt>
<totfact> 0.70151413E+04</totfact>
</mgrwt>
</event>
<event>
 7    0  0.4770865E-002  0.4585897E+03  0.7546771E-02  0.1025191E+00
         21   -1    0    0  502  501  0.00000000000E+00  0.00000000000E+00  0.64937076798E+03  0.64937076798E+03  0.00000000000E+00 0. -1.
         21   -1    0    0  501  502 -0.00000000000E+00 -0.00000000000E+00 -0.80964732280E+02  0.80964732280E+02  0.00000000000E+00 0. -1.
      99926    2    1    2    0    0  0.71054273576E-14  0.00000000000E+00  0.56840603570E+03  0.73033550026E+03  0.45858970935E+03 0.  0.
      99925    2    3    3    0    0 -0.39799344615E+02  0.84094563970E+02  0.46821144383E+03  0.54501861527E+03  0.26299705576E+03 0.  0.
         25    1    3    3    0    0  0.39799344615E+02 -0.84094563970E+02  0.10019459187E+03  0.18531688499E+03  0.12509000000E+03 0.  0.
         25    1    4    4    0    0 -0.22979418828E+02  0.26358865278E+01  0.24338378528E+03  0.27462370004E+03  0.12509000000E+03 0.  0.
         25    1    4    4    0    0 -0.16819925786E+02  0.81458677443E+02  0.22482765855E+03  0.27039491523E+03  0.12509000000E+03 0.  0.
<mgrwt>
<rscale>  2 0.45858971E+03</rscale>
<asrwt>0</asrwt>
<pdfrwt beam="1">  1       21 0.95495699E-01 0.45858971E+03</pdfrwt>
<pdfrwt beam="2">  1       21 0.11906579E-01 0.45858971E+03</pdfrwt>
<totfact> 0.49864197E+04</totfact>
</mgrwt>
</event>
<event>
 7    0  0.4770865E-002  0.4570153E+03  0.7546771E-02  0.1025650E+00
         21   -1    0    0  502  501  0.00000000000E+00  0.00000000000E+00  0.61108931738E+03  0.61108931738E+03  0.00000000000E+00 0. -1.
         21   -1    0    0  501  502 -0.00000000000E+00 -0.00000000000E+00 -0.85446983126E+02  0.85446983126E+02  0.00000000000E+00 0. -1.
      99926    2    1    2    0    0  0.00000000000E+00  0.00000000000E+00  0.52564233425E+03  0.69653630050E+03  0.45701526710E+03 0.  0.
      99925    2    3    3    0    0  0.11436384506E+03  0.13693431289E+02  0.32789467642E+03  0.43573322653E+03  0.26283440939E+03 0.  0.
         25    1    4    4    0    0  0.91960700144E+02  0.28057379705E+02  0.20157772657E+03  0.25597866098E+03  0.12509000000E+03 0.  0.
         25    1    3    3    0    0 -0.11436384506E+03 -0.13693431289E+02  0.19774765783E+03  0.26080307398E+03  0.12509000000E+03 0.  0.
         25    1    4    4    0    0  0.22403144917E+02 -0.14363948416E+02  0.12631694984E+03  0.17975456555E+03  0.12509000000E+03 0.  0.
<mgrwt>
<rscale>  2 0.45701527E+03</rscale>
<asrwt>0</asrwt>
<pdfrwt beam="1">  1       21 0.89866074E-01 0.45701527E+03</pdfrwt>
<pdfrwt beam="2">  1       21 0.12565733E-01 0.45701527E+03</pdfrwt>
<totfact> 0.52257613E+04</totfact>
</mgrwt>
</event>
<event>
 7    0  0.4770865E-002  0.4548847E+03  0.7546771E-02  0.1026275E+00
         21   -1    0    0  502  501  0.00000000000E+00  0.00000000000E+00  0.24266824240E+03  0.24266824240E+03  0.00000000000E+00 0.  1.
         21   -1    0    0  501  502 -0.00000000000E+00 -0.00000000000E+00 -0.21317178755E+03  0.21317178755E+03  0.00000000000E+00 0.  1.
      99926    2    1    2    0    0  0.88817841970E-15  0.14210854715E-13  0.29496454855E+02  0.45584002995E+03  0.45488470194E+03 0.  0.
      99925    2    3    3    0    0  0.61038039179E+01  0.10399049875E+03 -0.25568959256E+02  0.28399420317E+03  0.26295941798E+03 0.  0.
         25    1    4    4    0    0  0.31838764719E+02  0.76979790640E+02 -0.30552562831E+02  0.15336414934E+03  0.12509000000E+03 0.  0.
         25    1    4    4    0    0 -0.25734960801E+02  0.27010708109E+02  0.49836035748E+01  0.13063005383E+03  0.12509000000E+03 0.  0.
         25    1    3    3    0    0 -0.61038039179E+01 -0.10399049875E+03  0.55065414111E+02  0.17184582678E+03  0.12509000000E+03 0.  0.
<mgrwt>
<rscale>  2 0.45488470E+03</rscale>
<asrwt>0</asrwt>
<pdfrwt beam="1">  1       21 0.35686506E-01 0.45488470E+03</pdfrwt>
<pdfrwt beam="2">  1       21 0.31348792E-01 0.45488470E+03</pdfrwt>
<totfact> 0.68547370E+04</totfact>
</mgrwt>
</event>
<event>
 7    0  0.4770865E-002  0.4545066E+03  0.7546771E-02  0.1026387E+00
         21   -1    0    0  502  501  0.00000000000E+00  0.00000000000E+00  0.29927607886E+03  0.29927607886E+03  0.00000000000E+00 0. -1.
         21   -1    0    0  501  502 -0.00000000000E+00 -0.00000000000E+00 -0.17256328594E+03  0.17256328594E+03  0.00000000000E+00 0. -1.
      99926    2    1    2    0    0  0.00000000000E+00  0.00000000000E+00  0.12671279291E+03  0.47183936480E+03  0.45450660533E+03 0.  0.
      99925    2    3    3    0    0  0.74639761459E+02  0.76041760406E+02  0.11781579436E+03  0.30727901721E+03  0.26303305818E+03 0.  0.
         25    1    3    3    0    0 -0.74639761459E+02 -0.76041760406E+02  0.88969985500E+01  0.16456034759E+03  0.12509000000E+03 0.  0.
         25    1    4    4    0    0 -0.22489839842E+01  0.45221177076E+02  0.66399509987E+02  0.14868226462E+03  0.12509000000E+03 0.  0.
         25    1    4    4    0    0  0.76888745443E+02  0.30820583330E+02  0.51416284378E+02  0.15859675259E+03  0.12509000000E+03 0.  0.
<mgrwt>
<rscale>  2 0.45450661E+03</rscale>
<asrwt>0</asrwt>
<pdfrwt beam="1">  1       21 0.44011188E-01 0.45450661E+03</pdfrwt>
<pdfrwt beam="2">  1       21 0.25376954E-01 0.45450661E+03</pdfrwt>
<totfact> 0.67563281E+04</totfact>
</mgrwt>
</event>
<event>
 7    0  0.4770865E-002  0.4441527E+03  0.7546771E-02  0.1029480E+00
         21   -1    0    0  502  501  0.00000000000E+00  0.00000000000E+00  0.12000957576E+03  0.12000957576E+03  0.00000000000E+00 0. -1.
         21   -1    0    0  501  502 -0.00000000000E+00 -0.00000000000E+00 -0.41094979676E+03  0.41094979676E+03  0.00000000000E+00 0. -1.
      99926    2    1    2    0    0  0.00000000000E+00 -0.33306690739E-15 -0.29094022100E+03  0.53095937252E+03  0.44415272494E+03 0.  0.
      99925    2    3    3    0    0  0.10117709780E+03 -0.30614655350E+00 -0.16460141819E+03  0.32639666810E+03  0.26306702421E+03 0.  0.
         25    1    4    4    0    0  0.30984278462E+02 -0.32382412227E+01 -0.12009382716E+03  0.17618327713E+03  0.12509000000E+03 0.  0.
         25    1    4    4    0    0  0.70192819340E+02  0.29320946692E+01 -0.44507591029E+02  0.15021339097E+03  0.12509000000E+03 0.  0.
         25    1    3    3    0    0 -0.10117709780E+03  0.30614655350E+00 -0.12633880281E+03  0.20456270442E+03  0.12509000000E+03 0.  0.
<mgrwt>
<rscale>  2 0.44415272E+03</rscale>
<asrwt>0</asrwt>
<pdfrwt beam="1">  1       21 0.17648467E-01 0.44415272E+03</pdfrwt>
<pdfrwt beam="2">  1       21 0.60433793E-01 0.44415272E+03</pdfrwt>
<totfact> 0.68867982E+04</totfact>
</mgrwt>
</event>
<event>
 6    0  0.4770865E-002  0.4568854E+03  0.7546771E-02  0.1025688E+00
         21   -1    0    0  502  501  0.00000000000E+00  0.00000000000E+00  0.28905770247E+03  0.28905770247E+03  0.00000000000E+00 0.  1.
         21   -1    0    0  501  502 -0.00000000000E+00 -0.00000000000E+00 -0.18053861361E+03  0.18053861361E+03  0.00000000000E+00 0.  1.
      99926    2    1    2    0    0  0.00000000000E+00  0.00000000000E+00  0.10851908886E+03  0.46959631609E+03  0.45688544235E+03 0.  0.
         25    1    3    3    0    0 -0.13998327406E+02 -0.11541493675E+03  0.33367598163E+02  0.17400421117E+03  0.12509000000E+03 0.  0.
         25    1    3    3    0    0 -0.20944997639E+02  0.43914053083E+02  0.58454349238E+02  0.14639520494E+03  0.12509000000E+03 0.  0.
         25    1    3    3    0    0  0.34943325045E+02  0.71500883671E+02  0.16697141460E+02  0.14919689998E+03  0.12509000000E+03 0.  0.
<mgrwt>
<rscale>  2 0.45688544E+03</rscale>
<asrwt>0</asrwt>
<pdfrwt beam="1">  1       21 0.42508486E-01 0.45688544E+03</pdfrwt>
<pdfrwt beam="2">  1       21 0.26549796E-01 0.45688544E+03</pdfrwt>
<totfact> 0.66466214E+04</totfact>
</mgrwt>
</event>
<event>
 7    0  0.4770865E-002  0.4628359E+03  0.7546771E-02  0.1023962E+00
         21   -1    0    0  502  501  0.00000000000E+00  0.00000000000E+00  0.99141073819E+02  0.99141073819E+02  0.00000000000E+00 0. -1.
         21   -1    0    0  501  502 -0.00000000000E+00 -0.00000000000E+00 -0.54018241369E+03  0.54018241369E+03  0.00000000000E+00 0. -1.
      99926    2    1    2    0    0  0.14210854715E-13 -0.35527136788E-14 -0.44104133987E+03  0.63932348751E+03  0.46283588691E+03 0.  0.
      99925    2    3    3    0    0 -0.11784445514E+03  0.24038912673E+02 -0.26713534020E+03  0.39364892686E+03  0.26293155517E+03 0.  0.
         25    1    3    3    0    0  0.11784445514E+03 -0.24038912673E+02 -0.17390599967E+03  0.24567456065E+03  0.12509000000E+03 0.  0.
         25    1    4    4    0    0 -0.35562698818E+02  0.44095452876E+02 -0.14139600473E+03  0.19710264526E+03  0.12509000000E+03 0.  0.
         25    1    4    4    0    0 -0.82281756324E+02 -0.20056540203E+02 -0.12573933546E+03  0.19654628160E+03  0.12509000000E+03 0.  0.
<mgrwt>
<rscale>  2 0.46283589E+03</rscale>
<asrwt>0</asrwt>
<pdfrwt beam="1">  1       21 0.14579570E-01 0.46283589E+03</pdfrwt>
<pdfrwt beam="2">  1       21 0.79438589E-01 0.46283589E+03</pdfrwt>
<totfact> 0.52968312E+04</totfact>
</mgrwt>
</event>
<event>
 7    0  0.4770865E-002  0.4505291E+03  0.7546771E-02  0.1027564E+00
         21   -1    0    0  502  501  0.00000000000E+00  0.00000000000E+00  0.40665992136E+02  0.40665992136E+02  0.00000000000E+00 0.  1.
         21   -1    0    0  501  502 -0.00000000000E+00 -0.00000000000E+00 -0.12478270069E+04  0.12478270069E+04  0.00000000000E+00 0.  1.
      99926    2    1    2    0    0  0.14210854715E-13  0.00000000000E+00 -0.12071610147E+04  0.12884929990E+04  0.45052912558E+03 0.  0.
      99925    2    3    3    0    0 -0.10467692598E+03 -0.11678348252E+02 -0.68332500041E+03  0.73972590756E+03  0.26299756554E+03 0.  0.
         25    1    4    4    0    0 -0.91628574183E+02  0.93534168534E+01 -0.35446697413E+03  0.38701114436E+03  0.12509000000E+03 0.  0.
         25    1    4    4    0    0 -0.13048351794E+02 -0.21031765106E+02 -0.32885802628E+03  0.35271476320E+03  0.12509000000E+03 0.  0.
         25    1    3    3    0    0  0.10467692598E+03  0.11678348252E+02 -0.52383601431E+03  0.54876709143E+03  0.12509000000E+03 0.  0.
<mgrwt>
<rscale>  2 0.45052913E+03</rscale>
<asrwt>0</asrwt>
<pdfrwt beam="1">  1       21 0.59802944E-02 0.45052913E+03</pdfrwt>
<pdfrwt beam="2">  1       21 0.18350393E+00 0.45052913E+03</pdfrwt>
<totfact> 0.30497568E+04</totfact>
</mgrwt>
</event>
<event>
 7    0  0.4770865E-002  0.4540050E+03  0.7546771E-02  0.1026534E+00
         21   -1    0    0  502  501  0.00000000000E+00  0.00000000000E+00  0.17346087870E+03  0.17346087870E+03  0.00000000000E+00 0. -1.
         21   -1    0    0  501  502 -0.00000000000E+00 -0.00000000000E+00 -0.29707061756E+03  0.29707061756E+03  0.00000000000E+00 0. -1.
      99926    2    1    2    0    0  0.00000000000E+00  0.14210854715E-13 -0.12360973886E+03  0.47053149626E+03  0.45400497952E+03 0.  0.
      99925    2    3    3    0    0  0.29868275230E+02  0.93802925068E+02 -0.13386072600E+03  0.31102070210E+03  0.26291458794E+03 0.  0.
         25    1    3    3    0    0 -0.29868275230E+02 -0.93802925068E+02  0.10250987144E+02  0.15951079416E+03  0.12509000000E+03 0.  0.
         25    1    4    4    0    0  0.48261137911E+02  0.54014992410E+02 -0.94706879317E+02  0.17281104689E+03  0.12509000000E+03 0.  0.
         25    1    4    4    0    0 -0.18392862681E+02  0.39787932658E+02 -0.39153846686E+02  0.13820965521E+03  0.12509000000E+03 0.  0.
<mgrwt>
<rscale>  2 0.45400498E+03</rscale>
<asrwt>0</asrwt>
<pdfrwt beam="1">  1       21 0.25508953E-01 0.45400498E+03</pdfrwt>
<pdfrwt beam="2">  1       21 0.43686854E-01 0.45400498E+03</pdfrwt>
<totfact> 0.67930868E+04</totfact>
</mgrwt>
</event>
<event>
 7    0  0.4770865E-002  0.4371395E+03  0.7546771E-02  0.1031628E+00
         21   -1    0    0  502  501  0.00000000000E+00  0.00000000000E+00  0.70021973820E+03  0.70021973820E+03  0.00000000000E+00 0.  1.
         21   -1    0    0  501  502 -0.00000000000E+00 -0.00000000000E+00 -0.68225353960E+02  0.68225353960E+02  0.00000000000E+00 0.  1.
      99926    2    1    2    0    0  0.17763568394E-14  0.17763568394E-14  0.63199438424E+03  0.76844509216E+03  0.43713951772E+03 0.  0.
      99925    2    3    3    0    0 -0.10423474587E+02 -0.15384908235E+02  0.56921751539E+03  0.62725802623E+03  0.26286632995E+03 0.  0.
         25    1    4    4    0    0 -0.30188514799E+02  0.18536852263E+02  0.32572433419E+03  0.35071186364E+03  0.12509000000E+03 0.  0.
         25    1    4    4    0    0  0.19765040213E+02 -0.33921760499E+02  0.24349318120E+03  0.27654616259E+03  0.12509000000E+03 0.  0.
         25    1    3    3    0    0  0.10423474587E+02  0.15384908235E+02  0.62776868852E+02  0.14118706593E+03  0.12509000000E+03 0.  0.
<mgrwt>
<rscale>  2 0.43713952E+03</rscale>
<asrwt>0</asrwt>
<pdfrwt beam="1">  1       21 0.10297349E+00 0.43713952E+03</pdfrwt>
<pdfrwt beam="2">  1       21 0.10033141E-01 0.43713952E+03</pdfrwt>
<totfact> 0.56896999E+04</totfact>
</mgrwt>
</event>
<event>
 7    0  0.4770865E-002  0.4409870E+03  0.7546771E-02  0.1030444E+00
         21   -1    0    0  502  501  0.00000000000E+00  0.00000000000E+00  0.20911240763E+03  0.20911240763E+03  0.00000000000E+00 0.  1.
         21   -1    0    0  501  502 -0.00000000000E+00 -0.00000000000E+00 -0.23249397313E+03  0.23249397313E+03  0.00000000000E+00 0.  1.
      99926    2    1    2    0    0  0.00000000000E+00  0.00000000000E+00 -0.23381565504E+02  0.44160638075E+03  0.44098695890E+03 0.  0.
      99925    2    3    3    0    0  0.99820874509E+01 -0.93870840311E+02  0.16510961057E+02  0.27989584150E+03  0.26297850392E+03 0.  0.
         25    1    4    4    0    0 -0.57756768231E+00 -0.47648838553E+02 -0.31941887509E+02  0.13761735965E+03  0.12509000000E+03 0.  0.
         25    1    3    3    0    0 -0.99820874509E+01  0.93870840311E+02 -0.39892526561E+02  0.16171053925E+03  0.12509000000E+03 0.  0.
         25    1    4    4    0    0  0.10559655133E+02 -0.46222001757E+02  0.48452848566E+02  0.14227848185E+03  0.12509000000E+03 0.  0.
<mgrwt>
<rscale>  2 0.44098696E+03</rscale>
<asrwt>0</asrwt>
<pdfrwt beam="1">  1       21 0.30751825E-01 0.44098696E+03</pdfrwt>
<pdfrwt beam="2">  1       21 0.34190290E-01 0.44098696E+03</pdfrwt>
<totfact> 0.77889492E+04</totfact>
</mgrwt>
</event>
<event>
 7    0  0.4770865E-002  0.4596065E+03  0.7546771E-02  0.1024895E+00
         21   -1    0    0  502  501  0.00000000000E+00  0.00000000000E+00  0.42630363715E+03  0.42630363715E+03  0.00000000000E+00 0.  1.
         21   -1    0    0  501  502 -0.00000000000E+00 -0.00000000000E+00 -0.12387775784E+03  0.12387775784E+03  0.00000000000E+00 0.  1.
      99926    2    1    2    0    0  0.00000000000E+00  0.00000000000E+00  0.30242587931E+03  0.55018139499E+03  0.45960652184E+03 0.  0.
      99925    2    3    3    0    0  0.60192453159E+02 -0.83405217077E+02  0.25737894682E+03  0.38208530378E+03  0.26299371750E+03 0.  0.
         25    1    4    4    0    0  0.57600500448E+02 -0.40638398377E+02  0.17472063816E+03  0.22615062806E+03  0.12509000000E+03 0.  0.
         25    1    4    4    0    0  0.25919527111E+01 -0.42766818701E+02  0.82658308664E+02  0.15593467572E+03  0.12509000000E+03 0.  0.
         25    1    3    3    0    0 -0.60192453159E+02  0.83405217077E+02  0.45046932488E+02  0.16809609121E+03  0.12509000000E+03 0.  0.
<mgrwt>
<rscale>  2 0.45960652E+03</rscale>
<asrwt>0</asrwt>
<pdfrwt beam="1">  1       21 0.62691711E-01 0.45960652E+03</pdfrwt>
<pdfrwt beam="2">  1       21 0.18217318E-01 0.45960652E+03</pdfrwt>
<totfact> 0.59650556E+04</totfact>
</mgrwt>
</event>
<event>
 7    0  0.4770865E-002  0.4567114E+03  0.7546771E-02  0.1025739E+00
         21   -1    0    0  502  501  0.00000000000E+00  0.00000000000E+00  0.64274276942E+02  0.64274276942E+02  0.00000000000E+00 0.  1.
         21   -1    0    0  501  502 -0.00000000000E+00 -0.00000000000E+00 -0.81130923903E+03  0.81130923903E+03  0.00000000000E+00 0.  1.
      99926    2    1    2    0    0 -0.14210854715E-13  0.00000000000E+00 -0.74703496209E+03  0.87558351597E+03  0.45671135180E+03 0.  0.
      99925    2    3    3    0    0  0.79956241681E+02  0.53359216831E+02 -0.34905495097E+03  0.44747628180E+03  0.26297425229E+03 0.  0.
         25    1    3    3    0    0 -0.79956241681E+02 -0.53359216831E+02 -0.39798001111E+03  0.42810723417E+03  0.12509000000E+03 0.  0.
         25    1    4    4    0    0  0.78071591601E+02  0.45610459284E+02 -0.20290783807E+03  0.25494035825E+03  0.12509000000E+03 0.  0.
         25    1    4    4    0    0  0.18846500802E+01  0.77487575469E+01 -0.14614711290E+03  0.19253592355E+03  0.12509000000E+03 0.  0.
<mgrwt>
<rscale>  2 0.45671135E+03</rscale>
<asrwt>0</asrwt>
<pdfrwt beam="1">  1       21 0.94520997E-02 0.45671135E+03</pdfrwt>
<pdfrwt beam="2">  1       21 0.11931018E+00 0.45671135E+03</pdfrwt>
<totfact> 0.43717296E+04</totfact>
</mgrwt>
</event>
<event>
 7    0  0.4770865E-002  0.4709204E+03  0.7546771E-02  0.1021661E+00
         21   -1    0    0  502  501  0.00000000000E+00  0.00000000000E+00  0.57019860429E+03  0.57019860429E+03  0.00000000000E+00 0.  1.
         21   -1    0    0  501  502 -0.00000000000E+00 -0.00000000000E+00 -0.97231926764E+02  0.97231926764E+02  0.00000000000E+00 0.  1.
      99926    2    1    2    0    0  0.71054273576E-14  0.00000000000E+00  0.47296667753E+03  0.66743053106E+03  0.47092041338E+03 0.  0.
      99925    2    3    3    0    0 -0.44003192228E+02 -0.82440015981E+02  0.41651232961E+03  0.50139668312E+03  0.26302751941E+03 0.  0.
         25    1    4    4    0    0 -0.11604991562E+02 -0.56941830886E+02  0.14792144687E+03  0.20225061304E+03  0.12509000000E+03 0.  0.
         25    1    4    4    0    0 -0.32398200667E+02 -0.25498185095E+02  0.26859088274E+03  0.29914607008E+03  0.12509000000E+03 0.  0.
         25    1    3    3    0    0  0.44003192228E+02  0.82440015981E+02  0.56454347920E+02  0.16603384794E+03  0.12509000000E+03 0.  0.
<mgrwt>
<rscale>  2 0.47092041E+03</rscale>
<asrwt>0</asrwt>
<pdfrwt beam="1">  1       21 0.83852734E-01 0.47092041E+03</pdfrwt>
<pdfrwt beam="2">  1       21 0.14298813E-01 0.47092041E+03</pdfrwt>
<totfact> 0.48346374E+04</totfact>
</mgrwt>
</event>
<event>
 7    0  0.4770865E-002  0.4542285E+03  0.7546771E-02  0.1026469E+00
         21   -1    0    0  502  501  0.00000000000E+00  0.00000000000E+00  0.12920182044E+04  0.12920182044E+04  0.00000000000E+00 0.  1.
         21   -1    0    0  501  502 -0.00000000000E+00 -0.00000000000E+00 -0.39922716692E+02  0.39922716692E+02  0.00000000000E+00 0.  1.
      99926    2    1    2    0    0 -0.17763568394E-14  0.00000000000E+00  0.12520954877E+04  0.13319409211E+04  0.45422847438E+03 0.  0.
      99925    2    3    3    0    0 -0.28781772554E+01  0.45495758671E+02  0.48696435212E+03  0.55531275349E+03  0.26298255835E+03 0.  0.
         25    1    3    3    0    0  0.28781772554E+01 -0.45495758671E+02  0.76513113557E+03  0.77662816758E+03  0.12509000000E+03 0.  0.
         25    1    4    4    0    0 -0.16737908084E+02  0.60827986023E+02  0.25226965489E+03  0.28856141171E+03  0.12509000000E+03 0.  0.
         25    1    4    4    0    0  0.13859730828E+02 -0.15332227352E+02  0.23469469723E+03  0.26675134178E+03  0.12509000000E+03 0.  0.
<mgrwt>
<rscale>  2 0.45422847E+03</rscale>
<asrwt>0</asrwt>
<pdfrwt beam="1">  1       21 0.19000265E+00 0.45422847E+03</pdfrwt>
<pdfrwt beam="2">  1       21 0.58709886E-02 0.45422847E+03</pdfrwt>
<totfact> 0.28370857E+04</totfact>
</mgrwt>
</event>
<event>
 7    0  0.4770865E-002  0.4557044E+03  0.7546771E-02  0.1026034E+00
         21   -1    0    0  502  501  0.00000000000E+00  0.00000000000E+00  0.63131626972E+03  0.63131626972E+03  0.00000000000E+00 0.  1.
         21   -1    0    0  501  502 -0.00000000000E+00 -0.00000000000E+00 -0.82235527120E+02  0.82235527120E+02  0.00000000000E+00 0.  1.
      99926    2    1    2    0    0  0.00000000000E+00  0.00000000000E+00  0.54908074260E+03  0.71355179684E+03  0.45570440515E+03 0.  0.
      99925    2    3    3    0    0  0.22219982817E+02 -0.27242359451E+02  0.51466531303E+03  0.57913526632E+03  0.26321359856E+03 0.  0.
         25    1    4    4    0    0  0.16321310701E+02 -0.53713288164E+02  0.24939744938E+03  0.28460164856E+03  0.12509000000E+03 0.  0.
         25    1    4    4    0    0  0.58986721152E+01  0.26470928712E+02  0.26526786365E+03  0.29453361775E+03  0.12509000000E+03 0.  0.
         25    1    3    3    0    0 -0.22219982817E+02  0.27242359451E+02  0.34415429565E+02  0.13441653052E+03  0.12509000000E+03 0.  0.
<mgrwt>
<rscale>  2 0.45570441E+03</rscale>
<asrwt>0</asrwt>
<pdfrwt beam="1">  1       21 0.92840625E-01 0.45570441E+03</pdfrwt>
<pdfrwt beam="2">  1       21 0.12093460E-01 0.45570441E+03</pdfrwt>
<totfact> 0.51885254E+04</totfact>
</mgrwt>
</event>
<event>
 7    0  0.4770865E-002  0.4535973E+03  0.7546771E-02  0.1026655E+00
         21   -1    0    0  502  501  0.00000000000E+00  0.00000000000E+00  0.69042409096E+03  0.69042409096E+03  0.00000000000E+00 0.  1.
         21   -1    0    0  501  502 -0.00000000000E+00 -0.00000000000E+00 -0.74501509246E+02  0.74501509246E+02  0.00000000000E+00 0.  1.
      99926    2    1    2    0    0  0.00000000000E+00  0.00000000000E+00  0.61592258171E+03  0.76492560021E+03  0.45359734036E+03 0.  0.
      99925    2    3    3    0    0  0.51407645345E+02 -0.95947838179E+02  0.43159675434E+03  0.51698961575E+03  0.26297104553E+03 0.  0.
         25    1    3    3    0    0 -0.51407645345E+02  0.95947838179E+02  0.18432582737E+03  0.24793598446E+03  0.12509000000E+03 0.  0.
         25    1    4    4    0    0  0.53932632012E+01 -0.44076647978E+02  0.14432783616E+03  0.19608638549E+03  0.12509000000E+03 0.  0.
         25    1    4    4    0    0  0.46014382144E+02 -0.51871190201E+02  0.28726891818E+03  0.32090323026E+03  0.12509000000E+03 0.  0.
<mgrwt>
<rscale>  2 0.45359734E+03</rscale>
<asrwt>0</asrwt>
<pdfrwt beam="1">  1       21 0.10153295E+00 0.45359734E+03</pdfrwt>
<pdfrwt beam="2">  1       21 0.10956105E-01 0.45359734E+03</pdfrwt>
<totfact> 0.50056852E+04</totfact>
</mgrwt>
</event>
<event>
 7    0  0.4770865E-002  0.4576218E+03  0.7546771E-02  0.1025473E+00
         21   -1    0    0  502  501  0.00000000000E+00  0.00000000000E+00  0.21512160425E+03  0.21512160425E+03  0.00000000000E+00 0.  1.
         21   -1    0    0  501  502 -0.00000000000E+00 -0.00000000000E+00 -0.24337134478E+03  0.24337134478E+03  0.00000000000E+00 0.  1.
      99926    2    1    2    0    0  0.00000000000E+00  0.00000000000E+00 -0.28249740528E+02  0.45849294903E+03  0.45762182692E+03 0.  0.
      99925    2    3    3    0    0  0.83044529064E+02  0.73261436720E+02  0.15567851460E+02  0.28577606686E+03  0.26298663554E+03 0.  0.
         25    1    4    4    0    0  0.82925617957E+02  0.32681455014E+02  0.24668667888E+01  0.15361747670E+03  0.12509000000E+03 0.  0.
         25    1    3    3    0    0 -0.83044529064E+02 -0.73261436720E+02 -0.43817591988E+02  0.17271688217E+03  0.12509000000E+03 0.  0.
         25    1    4    4    0    0  0.11891110731E+00  0.40579981705E+02  0.13100984671E+02  0.13215859017E+03  0.12509000000E+03 0.  0.
<mgrwt>
<rscale>  2 0.45762183E+03</rscale>
<asrwt>0</asrwt>
<pdfrwt beam="1">  1       21 0.31635530E-01 0.45762183E+03</pdfrwt>
<pdfrwt beam="2">  1       21 0.35789904E-01 0.45762183E+03</pdfrwt>
<totfact> 0.66880623E+04</totfact>
</mgrwt>
</event>
<event>
 7    0  0.4770865E-002  0.4564631E+03  0.7546771E-02  0.1025812E+00
         21   -1    0    0  502  501  0.00000000000E+00  0.00000000000E+00  0.89562636683E+03  0.89562636683E+03  0.00000000000E+00 0. -1.
         21   -1    0    0  501  502 -0.00000000000E+00 -0.00000000000E+00 -0.58160018360E+02  0.58160018360E+02  0.00000000000E+00 0. -1.
      99926    2    1    2    0    0  0.00000000000E+00  0.00000000000E+00  0.83746634847E+03  0.95378638519E+03  0.45646312420E+03 0.  0.
      99925    2    3    3    0    0 -0.79915421611E+02 -0.73146448015E+02  0.60399437030E+03  0.66761589377E+03  0.26299221432E+03 0.  0.
         25    1    4    4    0    0 -0.69452087819E+02 -0.42505905301E+02  0.39065491023E+03  0.41819745513E+03  0.12509000000E+03 0.  0.
         25    1    3    3    0    0  0.79915421611E+02  0.73146448015E+02  0.23347197817E+03  0.28617049142E+03  0.12509000000E+03 0.  0.
         25    1    4    4    0    0 -0.10463333792E+02 -0.30640542714E+02  0.21333946007E+03  0.24941843864E+03  0.12509000000E+03 0.  0.
<mgrwt>
<rscale>  2 0.45646312E+03</rscale>
<asrwt>0</asrwt>
<pdfrwt beam="1">  1       21 0.13170975E+00 0.45646312E+03</pdfrwt>
<pdfrwt beam="2">  1       21 0.85529444E-02 0.45646312E+03</pdfrwt>
<totfact> 0.40522276E+04</totfact>
</mgrwt>
</event>
<event>
 7    0  0.4770865E-002  0.4501470E+03  0.7546771E-02  0.1027678E+00
         21   -1    0    0  502  501  0.00000000000E+00  0.00000000000E+00  0.54117112868E+02  0.54117112868E+02  0.00000000000E+00 0. -1.
         21   -1    0    0  501  502 -0.00000000000E+00 -0.00000000000E+00 -0.93608240282E+03  0.93608240282E+03  0.00000000000E+00 0. -1.
      99926    2    1    2    0    0 -0.17763568394E-14  0.00000000000E+00 -0.88196528996E+03  0.99019951569E+03  0.45014698509E+03 0.  0.
      99925    2    3    3    0    0  0.11385056809E+02 -0.91716406119E+02 -0.68243362288E+03  0.73721352214E+03  0.26310949985E+03 0.  0.
         25    1    4    4    0    0  0.38911191354E+02 -0.61796760507E+02 -0.30824956051E+03  0.34058511429E+03  0.12509000000E+03 0.  0.
         25    1    3    3    0    0 -0.11385056809E+02  0.91716406119E+02 -0.19953166707E+03  0.25298599355E+03  0.12509000000E+03 0.  0.
         25    1    4    4    0    0 -0.27526134545E+02 -0.29919645612E+02 -0.37418406238E+03  0.39662840785E+03  0.12509000000E+03 0.  0.
<mgrwt>
<rscale>  2 0.45014699E+03</rscale>
<asrwt>0</asrwt>
<pdfrwt beam="1">  1       21 0.79583987E-02 0.45014699E+03</pdfrwt>
<pdfrwt beam="2">  1       21 0.13765918E+00 0.45014699E+03</pdfrwt>
<totfact> 0.41085537E+04</totfact>
</mgrwt>
</event>
<event>
 7    0  0.4770865E-002  0.4433974E+03  0.7546771E-02  0.1029709E+00
         21   -1    0    0  502  501  0.00000000000E+00  0.00000000000E+00  0.12033411745E+03  0.12033411745E+03  0.00000000000E+00 0. -1.
         21   -1    0    0  501  502 -0.00000000000E+00 -0.00000000000E+00 -0.40844877432E+03  0.40844877432E+03  0.00000000000E+00 0. -1.
      99926    2    1    2    0    0 -0.71054273576E-14  0.00000000000E+00 -0.28811465687E+03  0.52878289177E+03  0.44339744150E+03 0.  0.
      99925    2    3    3    0    0  0.41045771794E+02  0.12450716484E+02 -0.29349592560E+03  0.39643395193E+03  0.26302137590E+03 0.  0.
         25    1    4    4    0    0  0.57899007109E+02  0.11294610529E+02 -0.17737226253E+03  0.22491840936E+03  0.12509000000E+03 0.  0.
         25    1    4    4    0    0 -0.16853235315E+02  0.11561059552E+01 -0.11612366306E+03  0.17151554258E+03  0.12509000000E+03 0.  0.
         25    1    3    3    0    0 -0.41045771794E+02 -0.12450716484E+02  0.53812687293E+01  0.13234893984E+03  0.12509000000E+03 0.  0.
<mgrwt>
<rscale>  2 0.44339744E+03</rscale>
<asrwt>0</asrwt>
<pdfrwt beam="1">  1       21 0.17696194E-01 0.44339744E+03</pdfrwt>
<pdfrwt beam="2">  1       21 0.60065995E-01 0.44339744E+03</pdfrwt>
<totfact> 0.69453295E+04</totfact>
</mgrwt>
</event>
<event>
 7    0  0.4770865E-002  0.4514255E+03  0.7546771E-02  0.1027298E+00
         21   -1    0    0  502  501  0.00000000000E+00  0.00000000000E+00  0.34587424229E+03  0.34587424229E+03  0.00000000000E+00 0.  1.
         21   -1    0    0  501  502 -0.00000000000E+00 -0.00000000000E+00 -0.14729698993E+03  0.14729698993E+03  0.00000000000E+00 0.  1.
      99926    2    1    2    0    0  0.00000000000E+00  0.71054273576E-14  0.19857725237E+03  0.49317123222E+03  0.45142545246E+03 0.  0.
      99925    2    3    3    0    0 -0.10036630552E+02  0.62679642686E+02  0.27681235154E+02  0.27207752277E+03  0.26311681067E+03 0.  0.
         25    1    3    3    0    0  0.10036630552E+02 -0.62679642686E+02  0.17089601721E+03  0.22109370945E+03  0.12509000000E+03 0.  0.
         25    1    4    4    0    0 -0.47067834908E+01  0.38264821460E+02  0.54394972848E+02  0.14174862096E+03  0.12509000000E+03 0.  0.
         25    1    4    4    0    0 -0.53298470616E+01  0.24414821226E+02 -0.26713737694E+02  0.13032890181E+03  0.12509000000E+03 0.  0.
<mgrwt>
<rscale>  2 0.45142545E+03</rscale>
<asrwt>0</asrwt>
<pdfrwt beam="1">  1       21 0.50863859E-01 0.45142545E+03</pdfrwt>
<pdfrwt beam="2">  1       21 0.21661322E-01 0.45142545E+03</pdfrwt>
<totfact> 0.67652577E+04</totfact>
</mgrwt>
</event>
<event>
 7    0  0.4770865E-002  0.4501918E+03  0.7546771E-02  0.1027665E+00
         21   -1    0    0  502  501  0.00000000000E+00  0.00000000000E+00  0.58662294462E+03  0.58662294462E+03  0.00000000000E+00 0.  1.
         21   -1    0    0  501  502 -0.00000000000E+00 -0.00000000000E+00 -0.86372618472E+02  0.86372618472E+02  0.00000000000E+00 0.  1.
      99926    2    1    2    0    0  0.00000000000E+00  0.00000000000E+00  0.50025032615E+03  0.67299556309E+03  0.45019178039E+03 0.  0.
      99925    2    3    3    0    0 -0.72773430834E+02  0.71135786957E+02  0.37509551325E+03  0.46886935774E+03  0.26227000999E+03 0.  0.
         25    1    3    3    0    0  0.72773430834E+02 -0.71135786957E+02  0.12515481290E+03  0.20412620535E+03  0.12509000000E+03 0.  0.
         25    1    4    4    0    0 -0.59064291411E+02  0.64083365556E+02  0.23800207386E+03  0.28264423490E+03  0.12509000000E+03 0.  0.
         25    1    4    4    0    0 -0.13709139423E+02  0.70524214011E+01  0.13709343939E+03  0.18622512284E+03  0.12509000000E+03 0.  0.
<mgrwt>
<rscale>  2 0.45019178E+03</rscale>
<asrwt>0</asrwt>
<pdfrwt beam="1">  1       21 0.86268078E-01 0.45019178E+03</pdfrwt>
<pdfrwt beam="2">  1       21 0.12701856E-01 0.45019178E+03</pdfrwt>
<totfact> 0.56504088E+04</totfact>
</mgrwt>
</event>
<event>
 7    0  0.4770865E-002  0.4456264E+03  0.7546771E-02  0.1029034E+00
         21   -1    0    0  502  501  0.00000000000E+00  0.00000000000E+00  0.63914252628E+02  0.63914252628E+02  0.00000000000E+00 0. -1.
         21   -1    0    0  501  502 -0.00000000000E+00 -0.00000000000E+00 -0.77675496693E+03  0.77675496693E+03  0.00000000000E+00 0. -1.
      99926    2    1    2    0    0  0.71054273576E-14  0.00000000000E+00 -0.71284071431E+03  0.84066921956E+03  0.44562636002E+03 0.  0.
      99925    2    3    3    0    0  0.58509551481E+02 -0.83741312083E+02 -0.49021656464E+03  0.56563286728E+03  0.26304426497E+03 0.  0.
         25    1    4    4    0    0  0.25796002834E+02 -0.25390579403E+01 -0.19220289126E+03  0.23078418509E+03  0.12509000000E+03 0.  0.
         25    1    4    4    0    0  0.32713548647E+02 -0.81202254143E+02 -0.29801367338E+03  0.33484868219E+03  0.12509000000E+03 0.  0.
         25    1    3    3    0    0 -0.58509551481E+02  0.83741312083E+02 -0.22262414967E+03  0.27503635229E+03  0.12509000000E+03 0.  0.
<mgrwt>
<rscale>  2 0.44562636E+03</rscale>
<asrwt>0</asrwt>
<pdfrwt beam="1">  1       21 0.93991542E-02 0.44562636E+03</pdfrwt>
<pdfrwt beam="2">  1       21 0.11422868E+00 0.44562636E+03</pdfrwt>
<totfact> 0.49393013E+04</totfact>
</mgrwt>
</event>
<event>
 7    0  0.4783537E-002  0.4158368E+03  0.7546771E-02  0.1038430E+00
         21   -1    0    0  502  501  0.00000000000E+00  0.00000000000E+00  0.39451863067E+02  0.39451863067E+02  0.00000000000E+00 0. -1.
         21   -1    0    0  501  502 -0.00000000000E+00 -0.00000000000E+00 -0.10957674131E+04  0.10957674131E+04  0.00000000000E+00 0. -1.
      99926    2    1    2    0    0  0.00000000000E+00  0.00000000000E+00 -0.10563155500E+04  0.11352192762E+04  0.41583682345E+03 0.  0.
      99925    2    3    3    0    0 -0.34232349287E+02  0.31260461912E+02 -0.54921291490E+03  0.61086285075E+03  0.26338095284E+03 0.  0.
         25    1    4    4    0    0 -0.58115581424E+02  0.17894272753E+02 -0.27162892158E+03  0.30516783078E+03  0.12509000000E+03 0.  0.
         25    1    4    4    0    0  0.23883232136E+02  0.13366189158E+02 -0.27758399332E+03  0.30569501997E+03  0.12509000000E+03 0.  0.
         25    1    3    3    0    0  0.34232349287E+02 -0.31260461912E+02 -0.50710263514E+03  0.52435642543E+03  0.12509000000E+03 0.  0.
<mgrwt>
<rscale>  2 0.41583682E+03</rscale>
<asrwt>0</asrwt>
<pdfrwt beam="1">  1       21 0.58017454E-02 0.41583682E+03</pdfrwt>
<pdfrwt beam="2">  1       21 0.16114224E+00 0.41583682E+03</pdfrwt>
<totfact> 0.47094583E+04</totfact>
</mgrwt>
</event>
<event>
 6    0  0.4770865E-002  0.4546157E+03  0.7546771E-02  0.1026354E+00
         21   -1    0    0  502  501  0.00000000000E+00  0.00000000000E+00  0.14579110426E+03  0.14579110426E+03  0.00000000000E+00 0.  1.
         21   -1    0    0  501  502 -0.00000000000E+00 -0.00000000000E+00 -0.35440340357E+03  0.35440340357E+03  0.00000000000E+00 0.  1.
      99926    2    1    2    0    0  0.00000000000E+00  0.00000000000E+00 -0.20861229931E+03  0.50019450783E+03  0.45461572151E+03 0.  0.
         25    1    3    3    0    0 -0.78545421755E+02  0.29186958758E+02 -0.11038940780E+03  0.18669384375E+03  0.12509000000E+03 0.  0.
         25    1    3    3    0    0  0.11137497350E+02  0.48067287435E+02 -0.60324666363E+02  0.14738073633E+03  0.12509000000E+03 0.  0.
         25    1    3    3    0    0  0.67407924405E+02 -0.77254246193E+02 -0.37898225147E+02  0.16611992775E+03  0.12509000000E+03 0.  0.
<mgrwt>
<rscale>  2 0.45461572E+03</rscale>
<asrwt>0</asrwt>
<pdfrwt beam="1">  1       21 0.21439869E-01 0.45461572E+03</pdfrwt>
<pdfrwt beam="2">  1       21 0.52118147E-01 0.45461572E+03</pdfrwt>
<totfact> 0.65456440E+04</totfact>
</mgrwt>
</event>
<event>
 7    0  0.4770865E-002  0.4550866E+03  0.7546771E-02  0.1026216E+00
         21   -1    0    0  502  501  0.00000000000E+00  0.00000000000E+00  0.49318810756E+03  0.49318810756E+03  0.00000000000E+00 0.  1.
         21   -1    0    0  501  502 -0.00000000000E+00 -0.00000000000E+00 -0.10498214149E+03  0.10498214149E+03  0.00000000000E+00 0.  1.
      99926    2    1    2    0    0 -0.14210854715E-13  0.00000000000E+00  0.38820596607E+03  0.59817024905E+03  0.45508655743E+03 0.  0.
      99925    2    3    3    0    0 -0.79891002790E+02  0.51970535878E+02  0.32473789444E+03  0.42858483357E+03  0.26295769727E+03 0.  0.
         25    1    4    4    0    0 -0.47291261015E+02  0.22569639959E+02  0.10324270388E+03  0.17044769292E+03  0.12509000000E+03 0.  0.
         25    1    4    4    0    0 -0.32599741775E+02  0.29400895919E+02  0.22149519056E+03  0.25813714065E+03  0.12509000000E+03 0.  0.
         25    1    3    3    0    0  0.79891002790E+02 -0.51970535878E+02  0.63468071635E+02  0.16958541548E+03  0.12509000000E+03 0.  0.
<mgrwt>
<rscale>  2 0.45508656E+03</rscale>
<asrwt>0</asrwt>
<pdfrwt beam="1">  1       21 0.72527662E-01 0.45508656E+03</pdfrwt>
<pdfrwt beam="2">  1       21 0.15438550E-01 0.45508656E+03</pdfrwt>
<totfact> 0.58750842E+04</totfact>
</mgrwt>
</event>
<event>
 7    0  0.4770865E-002  0.4530621E+03  0.7546771E-02  0.1026813E+00
         21   -1    0    0  502  501  0.00000000000E+00  0.00000000000E+00  0.47342870659E+03  0.47342870659E+03  0.00000000000E+00 0.  1.
         21   -1    0    0  501  502 -0.00000000000E+00 -0.00000000000E+00 -0.10839292115E+03  0.10839292115E+03  0.00000000000E+00 0.  1.
      99926    2    1    2    0    0  0.00000000000E+00  0.00000000000E+00  0.36503578544E+03  0.58182162774E+03  0.45306211699E+03 0.  0.
      99925    2    3    3    0    0 -0.70709211593E+02  0.74969267519E+02  0.28421566436E+03  0.40071507416E+03  0.26300920729E+03 0.  0.
         25    1    3    3    0    0  0.70709211593E+02 -0.74969267519E+02  0.80820121077E+02  0.18110655357E+03  0.12509000000E+03 0.  0.
         25    1    4    4    0    0 -0.45107117342E+02  0.58521146262E+01  0.10178682362E+03  0.16756182394E+03  0.12509000000E+03 0.  0.
         25    1    4    4    0    0 -0.25602094251E+02  0.69117152893E+02  0.18242884074E+03  0.23315325022E+03  0.12509000000E+03 0.  0.
<mgrwt>
<rscale>  2 0.45306212E+03</rscale>
<asrwt>0</asrwt>
<pdfrwt beam="1">  1       21 0.69621868E-01 0.45306212E+03</pdfrwt>
<pdfrwt beam="2">  1       21 0.15940136E-01 0.45306212E+03</pdfrwt>
<totfact> 0.60736497E+04</totfact>
</mgrwt>
</event>
<event>
 7    0  0.4770865E-002  0.4631208E+03  0.7546771E-02  0.1023880E+00
         21   -1    0    0  502  501  0.00000000000E+00  0.00000000000E+00  0.48395611275E+02  0.48395611275E+02  0.00000000000E+00 0.  1.
         21   -1    0    0  501  502 -0.00000000000E+00 -0.00000000000E+00 -0.11079563720E+04  0.11079563720E+04  0.00000000000E+00 0.  1.
      99926    2    1    2    0    0 -0.14210854715E-13 -0.17763568394E-14 -0.10595607608E+04  0.11563519833E+04  0.46312083041E+03 0.  0.
      99925    2    3    3    0    0  0.11751322953E+03  0.13981764613E+02 -0.60149700593E+03  0.66699039874E+03  0.26281684692E+03 0.  0.
         25    1    4    4    0    0  0.19879628152E+02  0.23934075461E+01 -0.22413292057E+03  0.25745679676E+03  0.12509000000E+03 0.  0.
         25    1    3    3    0    0 -0.11751322953E+03 -0.13981764613E+02 -0.45806375483E+03  0.48936158456E+03  0.12509000000E+03 0.  0.
         25    1    4    4    0    0  0.97633601376E+02  0.11588357067E+02 -0.37736408536E+03  0.40953360199E+03  0.12509000000E+03 0.  0.
<mgrwt>
<rscale>  2 0.46312083E+03</rscale>
<asrwt>0</asrwt>
<pdfrwt beam="1">  1       21 0.71170023E-02 0.46312083E+03</pdfrwt>
<pdfrwt beam="2">  1       21 0.16293475E+00 0.46312083E+03</pdfrwt>
<totfact> 0.31527913E+04</totfact>
</mgrwt>
</event>
<event>
 7    0  0.4770865E-002  0.4524682E+03  0.7546771E-02  0.1026989E+00
         21   -1    0    0  502  501  0.00000000000E+00  0.00000000000E+00  0.87765658334E+02  0.87765658334E+02  0.00000000000E+00 0.  1.
         21   -1    0    0  501  502 -0.00000000000E+00 -0.00000000000E+00 -0.58316519904E+03  0.58316519904E+03  0.00000000000E+00 0.  1.
      99926    2    1    2    0    0  0.00000000000E+00  0.71054273576E-14 -0.49539954070E+03  0.67093085737E+03  0.45246824247E+03 0.  0.
      99925    2    3    3    0    0 -0.83841685549E+02 -0.60766404006E+02 -0.25409643617E+03  0.38007577241E+03  0.26300306045E+03 0.  0.
         25    1    3    3    0    0  0.83841685549E+02  0.60766404006E+02 -0.24130310453E+03  0.29085508496E+03  0.12509000000E+03 0.  0.
         25    1    4    4    0    0 -0.33099154626E+02 -0.17209955281E+01 -0.80583605429E+02  0.15244586392E+03  0.12509000000E+03 0.  0.
         25    1    4    4    0    0 -0.50742530922E+02 -0.59045408478E+02 -0.17351283074E+03  0.22762990849E+03  0.12509000000E+03 0.  0.
<mgrwt>
<rscale>  2 0.45246824E+03</rscale>
<asrwt>0</asrwt>
<pdfrwt beam="1">  1       21 0.12906715E-01 0.45246824E+03</pdfrwt>
<pdfrwt beam="2">  1       21 0.85759585E-01 0.45246824E+03</pdfrwt>
<totfact> 0.55611448E+04</totfact>
</mgrwt>
</event>
<event>
 7    0  0.4770865E-002  0.4512476E+03  0.7546771E-02  0.1027351E+00
         21   -1    0    0  502  501  0.00000000000E+00  0.00000000000E+00  0.12414841089E+03  0.12414841089E+03  0.00000000000E+00 0. -1.
         21   -1    0    0  501  502 -0.00000000000E+00 -0.00000000000E+00 -0.41004231213E+03  0.41004231213E+03  0.00000000000E+00 0. -1.
      99926    2    1    2    0    0  0.00000000000E+00  0.00000000000E+00 -0.28589390124E+03  0.53419072302E+03  0.45124761030E+03 0.  0.
      99925    2    3    3    0    0  0.92980879089E+02  0.56462505317E+02 -0.16437617905E+03  0.32864869985E+03  0.26297714976E+03 0.  0.
         25    1    4    4    0    0  0.75690280042E+02  0.60485558602E+02 -0.89450851358E+02  0.18175941296E+03  0.12509000000E+03 0.  0.
         25    1    4    4    0    0  0.17290599047E+02 -0.40230532851E+01 -0.74925327693E+02  0.14688928689E+03  0.12509000000E+03 0.  0.
         25    1    3    3    0    0 -0.92980879089E+02 -0.56462505317E+02 -0.12151772219E+03  0.20554202317E+03  0.12509000000E+03 0.  0.
<mgrwt>
<rscale>  2 0.45124761E+03</rscale>
<asrwt>0</asrwt>
<pdfrwt beam="1">  1       21 0.18257119E-01 0.45124761E+03</pdfrwt>
<pdfrwt beam="2">  1       21 0.60300339E-01 0.45124761E+03</pdfrwt>
<totfact> 0.64827494E+04</totfact>
</mgrwt>
</event>
<event>
 7    0  0.4770865E-002  0.4574997E+03  0.7546771E-02  0.1025509E+00
         21   -1    0    0  502  501  0.00000000000E+00  0.00000000000E+00  0.11674603767E+03  0.11674603767E+03  0.00000000000E+00 0.  1.
         21   -1    0    0  501  502 -0.00000000000E+00 -0.00000000000E+00 -0.44820790466E+03  0.44820790466E+03  0.00000000000E+00 0.  1.
      99926    2    1    2    0    0  0.00000000000E+00  0.00000000000E+00 -0.33146186699E+03  0.56495394233E+03  0.45749971331E+03 0.  0.
      99925    2    3    3    0    0 -0.52667951404E+02  0.82897330651E+02 -0.13295075057E+03  0.31059189332E+03  0.26295539847E+03 0.  0.
         25    1    4    4    0    0 -0.87191214168E+01  0.23420508372E+02 -0.98718470169E+02  0.16129906306E+03  0.12509000000E+03 0.  0.
         25    1    3    3    0    0  0.52667951404E+02 -0.82897330651E+02 -0.19851111642E+03  0.25436204901E+03  0.12509000000E+03 0.  0.
         25    1    4    4    0    0 -0.43948829987E+02  0.59476822279E+02 -0.34232280403E+02  0.14929283026E+03  0.12509000000E+03 0.  0.
<mgrwt>
<rscale>  2 0.45749971E+03</rscale>
<asrwt>0</asrwt>
<pdfrwt beam="1">  1       21 0.17168535E-01 0.45749971E+03</pdfrwt>
<pdfrwt beam="2">  1       21 0.65912927E-01 0.45749971E+03</pdfrwt>
<totfact> 0.59699972E+04</totfact>
</mgrwt>
</event>
<event>
 6    0  0.4770865E-002  0.6150857E+03  0.7546771E-02  0.9874593E-01
         21   -1    0    0  502  501  0.00000000000E+00  0.00000000000E+00  0.59069426616E+03  0.59069426616E+03  0.00000000000E+00 0.  1.
         21   -1    0    0  501  502 -0.00000000000E+00 -0.00000000000E+00 -0.16012106637E+03  0.16012106637E+03  0.00000000000E+00 0.  1.
      99925    2    1    2    0    0  0.11280537394E+01 -0.68781733578E+02  0.51686701991E+03  0.58400307018E+03  0.26301306114E+03 0.  0.
         25    1    3    3    0    0 -0.87341461614E+01 -0.29804335189E+02  0.17184249614E+03  0.21480673939E+03  0.12509000000E+03 0.  0.
         25    1    3    3    0    0  0.98621999009E+01 -0.38977398388E+02  0.34502452377E+03  0.36919633079E+03  0.12509000000E+03 0.  0.
         25    1    1    2    0    0 -0.11280537394E+01  0.68781733578E+02 -0.86293820120E+02  0.16681226235E+03  0.12509000000E+03 0.  0.
<mgrwt>
<rscale>  2 0.61508567E+03</rscale>
<asrwt>0</asrwt>
<pdfrwt beam="1">  1       21 0.86866803E-01 0.61508567E+03</pdfrwt>
<pdfrwt beam="2">  1       21 0.23547216E-01 0.61508567E+03</pdfrwt>
<totfact> 0.16777005E+04</totfact>
</mgrwt>
</event>
<event>
 7    0  0.4770865E-002  0.4616198E+03  0.7546771E-02  0.1024312E+00
         21   -1    0    0  502  501  0.00000000000E+00  0.00000000000E+00  0.11372590228E+03  0.11372590228E+03  0.00000000000E+00 0.  1.
         21   -1    0    0  501  502 -0.00000000000E+00 -0.00000000000E+00 -0.46843513398E+03  0.46843513398E+03  0.00000000000E+00 0.  1.
      99926    2    1    2    0    0  0.00000000000E+00  0.00000000000E+00 -0.35470923170E+03  0.58216103626E+03  0.46161979278E+03 0.  0.
      99925    2    3    3    0    0 -0.41975378391E+02 -0.10907559961E+03 -0.25132358576E+03  0.38217223980E+03  0.26312099364E+03 0.  0.
         25    1    3    3    0    0  0.41975378391E+02  0.10907559961E+03 -0.10338564594E+03  0.19998879645E+03  0.12509000000E+03 0.  0.
         25    1    4    4    0    0 -0.13457773280E+02 -0.94479285054E+02 -0.15694547199E+03  0.22223149246E+03  0.12509000000E+03 0.  0.
         25    1    4    4    0    0 -0.28517605111E+02 -0.14596314554E+02 -0.94378113775E+02  0.15994074734E+03  0.12509000000E+03 0.  0.
<mgrwt>
<rscale>  2 0.46161979E+03</rscale>
<asrwt>0</asrwt>
<pdfrwt beam="1">  1       21 0.16724397E-01 0.46161979E+03</pdfrwt>
<pdfrwt beam="2">  1       21 0.68887521E-01 0.46161979E+03</pdfrwt>
<totfact> 0.56760707E+04</totfact>
</mgrwt>
</event>
<event>
 7    0  0.4770865E-002  0.4551596E+03  0.7546771E-02  0.1026194E+00
         21   -1    0    0  502  501  0.00000000000E+00  0.00000000000E+00  0.23789687376E+02  0.23789687376E+02  0.00000000000E+00 0.  1.
         21   -1    0    0  501  502 -0.00000000000E+00 -0.00000000000E+00 -0.21771017423E+04  0.21771017423E+04  0.00000000000E+00 0.  1.
      99926    2    1    2    0    0  0.00000000000E+00  0.00000000000E+00 -0.21533120549E+04  0.22008914296E+04  0.45515961962E+03 0.  0.
      99925    2    3    3    0    0 -0.43889778622E+02  0.96746898254E+02 -0.11595099991E+04  0.11936296418E+04  0.26268233449E+03 0.  0.
         25    1    4    4    0    0 -0.33462960585E+02  0.88831682766E+02 -0.60667726443E+03  0.62667028721E+03  0.12509000000E+03 0.  0.
         25    1    4    4    0    0 -0.10426818037E+02  0.79152154877E+01 -0.55283273464E+03  0.56695935460E+03  0.12509000000E+03 0.  0.
         25    1    3    3    0    0  0.43889778622E+02 -0.96746898254E+02 -0.99380205581E+03  0.10072617878E+04  0.12509000000E+03 0.  0.
<mgrwt>
<rscale>  2 0.45515962E+03</rscale>
<asrwt>0</asrwt>
<pdfrwt beam="1">  1       21 0.34984836E-02 0.45515962E+03</pdfrwt>
<pdfrwt beam="2">  1       21 0.32016201E+00 0.45515962E+03</pdfrwt>
<totfact> 0.10685448E+04</totfact>
</mgrwt>
</event>
<event>
 7    0  0.4770865E-002  0.4577690E+03  0.7546771E-02  0.1025430E+00
         21   -1    0    0  502  501  0.00000000000E+00  0.00000000000E+00  0.18113199263E+03  0.18113199263E+03  0.00000000000E+00 0.  1.
         21   -1    0    0  501  502 -0.00000000000E+00 -0.00000000000E+00 -0.28922612834E+03  0.28922612834E+03  0.00000000000E+00 0.  1.
      99926    2    1    2    0    0  0.00000000000E+00  0.00000000000E+00 -0.10809413571E+03  0.47035812098E+03  0.45776895897E+03 0.  0.
      99925    2    3    3    0    0  0.78619215216E+01  0.84841030323E+02 -0.14821229445E+03  0.31377975402E+03  0.26311791952E+03 0.  0.
         25    1    4    4    0    0 -0.32493322181E+02  0.42425509730E+02 -0.52799225205E+02  0.14591437950E+03  0.12509000000E+03 0.  0.
         25    1    4    4    0    0  0.40355243702E+02  0.42415520594E+02 -0.95413069248E+02  0.16786537453E+03  0.12509000000E+03 0.  0.
         25    1    3    3    0    0 -0.78619215216E+01 -0.84841030323E+02  0.40118158745E+02  0.15657836695E+03  0.12509000000E+03 0.  0.
<mgrwt>
<rscale>  2 0.45776896E+03</rscale>
<asrwt>0</asrwt>
<pdfrwt beam="1">  1       21 0.26637058E-01 0.45776896E+03</pdfrwt>
<pdfrwt beam="2">  1       21 0.42533254E-01 0.45776896E+03</pdfrwt>
<totfact> 0.65948715E+04</totfact>
</mgrwt>
</event>
<event>
 7    0  0.4770865E-002  0.4624854E+03  0.7546771E-02  0.1024063E+00
         21   -1    0    0  502  501  0.00000000000E+00  0.00000000000E+00  0.25490322566E+03  0.25490322566E+03  0.00000000000E+00 0. -1.
         21   -1    0    0  501  502 -0.00000000000E+00 -0.00000000000E+00 -0.20977838041E+03  0.20977838041E+03  0.00000000000E+00 0. -1.
      99926    2    1    2    0    0 -0.14210854715E-13  0.71054273576E-14  0.45124845257E+02  0.46468160607E+03  0.46248539800E+03 0.  0.
      99925    2    3    3    0    0  0.92477330591E+02 -0.47400051547E+02  0.88493222548E+02  0.29637490446E+03  0.26307453696E+03 0.  0.
         25    1    4    4    0    0  0.39127330830E+01 -0.25654362171E+02  0.33247156857E+02  0.13200885318E+03  0.12509000000E+03 0.  0.
         25    1    3    3    0    0 -0.92477330591E+02  0.47400051547E+02 -0.43368377291E+02  0.16830670162E+03  0.12509000000E+03 0.  0.
         25    1    4    4    0    0  0.88564597508E+02 -0.21745689377E+02  0.55246065691E+02  0.16436605128E+03  0.12509000000E+03 0.  0.
<mgrwt>
<rscale>  2 0.46248540E+03</rscale>
<asrwt>0</asrwt>
<pdfrwt beam="1">  1       21 0.37485769E-01 0.46248540E+03</pdfrwt>
<pdfrwt beam="2">  1       21 0.30849762E-01 0.46248540E+03</pdfrwt>
<totfact> 0.63937551E+04</totfact>
</mgrwt>
</event>
<event>
 7    0  0.4770865E-002  0.4541774E+03  0.7546771E-02  0.1026484E+00
         21   -1    0    0  502  501  0.00000000000E+00  0.00000000000E+00  0.64789780074E+02  0.64789780074E+02  0.00000000000E+00 0. -1.
         21   -1    0    0  501  502 -0.00000000000E+00 -0.00000000000E+00 -0.79594776666E+03  0.79594776666E+03  0.00000000000E+00 0. -1.
      99926    2    1    2    0    0  0.00000000000E+00  0.00000000000E+00 -0.73115798658E+03  0.86073754673E+03  0.45417741358E+03 0.  0.
      99925    2    3    3    0    0  0.71265176453E+02 -0.80501783779E+02 -0.39808866379E+03  0.48906303261E+03  0.26296159996E+03 0.  0.
         25    1    4    4    0    0  0.58171532496E+02 -0.10459043426E+02 -0.16781464960E+03  0.21749157111E+03  0.12509000000E+03 0.  0.
         25    1    4    4    0    0  0.13093643957E+02 -0.70042740353E+02 -0.23027401419E+03  0.27157146150E+03  0.12509000000E+03 0.  0.
         25    1    3    3    0    0 -0.71265176453E+02  0.80501783779E+02 -0.33306932279E+03  0.37167451413E+03  0.12509000000E+03 0.  0.
<mgrwt>
<rscale>  2 0.45417741E+03</rscale>
<asrwt>0</asrwt>
<pdfrwt beam="1">  1       21 0.95279089E-02 0.45417741E+03</pdfrwt>
<pdfrwt beam="2">  1       21 0.11705114E+00 0.45417741E+03</pdfrwt>
<totfact> 0.45254037E+04</totfact>
</mgrwt>
</event>
<event>
 7    0  0.4770865E-002  0.4709077E+03  0.7546771E-02  0.1021664E+00
         21   -1    0    0  502  501  0.00000000000E+00  0.00000000000E+00  0.66573526933E+02  0.66573526933E+02  0.00000000000E+00 0.  1.
         21   -1    0    0  501  502 -0.00000000000E+00 -0.00000000000E+00 -0.83274127487E+03  0.83274127487E+03  0.00000000000E+00 0.  1.
      99926    2    1    2    0    0  0.00000000000E+00  0.00000000000E+00 -0.76616774794E+03  0.89931480181E+03  0.47090773488E+03 0.  0.
      99925    2    3    3    0    0 -0.12224361928E+02  0.67777049922E+02 -0.68046586639E+03  0.73277506444E+03  0.26302535281E+03 0.  0.
         25    1    4    4    0    0 -0.20816921757E+02  0.60550740850E+02 -0.43351908425E+03  0.45572583968E+03  0.12509000000E+03 0.  0.
         25    1    4    4    0    0  0.85925598297E+01  0.72263090726E+01 -0.24694678215E+03  0.27704922476E+03  0.12509000000E+03 0.  0.
         25    1    3    3    0    0  0.12224361928E+02 -0.67777049922E+02 -0.85701881547E+02  0.16653973736E+03  0.12509000000E+03 0.  0.
<mgrwt>
<rscale>  2 0.47090773E+03</rscale>
<asrwt>0</asrwt>
<pdfrwt beam="1">  1       21 0.97902253E-02 0.47090773E+03</pdfrwt>
<pdfrwt beam="2">  1       21 0.12246194E+00 0.47090773E+03</pdfrwt>
<totfact> 0.38269389E+04</totfact>
</mgrwt>
</event>
<event>
 7    0  0.4770865E-002  0.4523959E+03  0.7546771E-02  0.1027010E+00
         21   -1    0    0  502  501  0.00000000000E+00  0.00000000000E+00  0.12669830544E+03  0.12669830544E+03  0.00000000000E+00 0. -1.
         21   -1    0    0  501  502 -0.00000000000E+00 -0.00000000000E+00 -0.40383730915E+03  0.40383730915E+03  0.00000000000E+00 0. -1.
      99926    2    1    2    0    0  0.00000000000E+00 -0.17763568394E-14 -0.27713900371E+03  0.53053561459E+03  0.45239585649E+03 0.  0.
      99925    2    3    3    0    0 -0.23872524157E+02 -0.15122139987E+02 -0.49328155895E+02  0.26910901492E+03  0.26303577403E+03 0.  0.
         25    1    3    3    0    0  0.23872524157E+02  0.15122139987E+02 -0.22781084782E+03  0.26142659966E+03  0.12509000000E+03 0.  0.
         25    1    4    4    0    0 -0.10374874962E+02  0.32755729189E+02 -0.29546847559E+02  0.13304548142E+03  0.12509000000E+03 0.  0.
         25    1    4    4    0    0 -0.13497649195E+02 -0.47877869176E+02 -0.19781308336E+02  0.13606353351E+03  0.12509000000E+03 0.  0.
<mgrwt>
<rscale>  2 0.45239586E+03</rscale>
<asrwt>0</asrwt>
<pdfrwt beam="1">  1       21 0.18632103E-01 0.45239586E+03</pdfrwt>
<pdfrwt beam="2">  1       21 0.59387841E-01 0.45239586E+03</pdfrwt>
<totfact> 0.64490498E+04</totfact>
</mgrwt>
</event>
<event>
 7    0  0.4770865E-002  0.4562566E+03  0.7546771E-02  0.1025873E+00
         21   -1    0    0  502  501  0.00000000000E+00  0.00000000000E+00  0.12792703358E+03  0.12792703358E+03  0.00000000000E+00 0. -1.
         21   -1    0    0  501  502 -0.00000000000E+00 -0.00000000000E+00 -0.40681404974E+03  0.40681404974E+03  0.00000000000E+00 0. -1.
      99926    2    1    2    0    0 -0.35527136788E-14  0.00000000000E+00 -0.27888701616E+03  0.53474108333E+03  0.45625657082E+03 0.  0.
      99925    2    3    3    0    0 -0.17113185243E+02  0.76689799050E+02 -0.75683650165E+02  0.28351747289E+03  0.26168675195E+03 0.  0.
         25    1    4    4    0    0 -0.42534029264E+02  0.47148189378E+02 -0.55900995050E+02  0.15101167092E+03  0.12509000000E+03 0.  0.
         25    1    4    4    0    0  0.25420844021E+02  0.29541609672E+02 -0.19782655115E+02  0.13250580197E+03  0.12509000000E+03 0.  0.
         25    1    3    3    0    0  0.17113185243E+02 -0.76689799050E+02 -0.20320336599E+03  0.25122361043E+03  0.12509000000E+03 0.  0.
<mgrwt>
<rscale>  2 0.45625657E+03</rscale>
<asrwt>0</asrwt>
<pdfrwt beam="1">  1       21 0.18812799E-01 0.45625657E+03</pdfrwt>
<pdfrwt beam="2">  1       21 0.59825596E-01 0.45625657E+03</pdfrwt>
<totfact> 0.62264275E+04</totfact>
</mgrwt>
</event>
<event>
 7    0  0.4770865E-002  0.4532866E+03  0.7546771E-02  0.1026746E+00
         21   -1    0    0  502  501  0.00000000000E+00  0.00000000000E+00  0.17034284124E+03  0.17034284124E+03  0.00000000000E+00 0. -1.
         21   -1    0    0  501  502 -0.00000000000E+00 -0.00000000000E+00 -0.30155176534E+03  0.30155176534E+03  0.00000000000E+00 0. -1.
      99926    2    1    2    0    0  0.00000000000E+00  0.14210854715E-13 -0.13120892410E+03  0.47189460658E+03  0.45328659583E+03 0.  0.
      99925    2    3    3    0    0 -0.17449578222E+02  0.70530250770E+02  0.53027632123E+01  0.27299273900E+03  0.26309297254E+03 0.  0.
         25    1    4    4    0    0  0.21986503564E+01  0.11174453823E+02  0.34228118389E+02  0.13018745973E+03  0.12509000000E+03 0.  0.
         25    1    4    4    0    0 -0.19648228579E+02  0.59355796947E+02 -0.28925355177E+02  0.14280527928E+03  0.12509000000E+03 0.  0.
         25    1    3    3    0    0  0.17449578222E+02 -0.70530250770E+02 -0.13651168731E+03  0.19890186758E+03  0.12509000000E+03 0.  0.
<mgrwt>
<rscale>  2 0.45328660E+03</rscale>
<asrwt>0</asrwt>
<pdfrwt beam="1">  1       21 0.25050418E-01 0.45328660E+03</pdfrwt>
<pdfrwt beam="2">  1       21 0.44345848E-01 0.45328660E+03</pdfrwt>
<totfact> 0.68217819E+04</totfact>
</mgrwt>
</event>
<event>
 7    0  0.4770865E-002  0.4537194E+03  0.7546771E-02  0.1026619E+00
         21   -1    0    0  502  501  0.00000000000E+00  0.00000000000E+00  0.25583665478E+03  0.25583665478E+03  0.00000000000E+00 0. -1.
         21   -1    0    0  501  502 -0.00000000000E+00 -0.00000000000E+00 -0.20116478694E+03  0.20116478694E+03  0.00000000000E+00 0. -1.
      99926    2    1    2    0    0  0.00000000000E+00  0.00000000000E+00  0.54671867833E+02  0.45700144172E+03  0.45371941175E+03 0.  0.
      99925    2    3    3    0    0  0.23399597340E+02 -0.10876501980E+03  0.21346385162E+02  0.28631029789E+03  0.26294590285E+03 0.  0.
         25    1    4    4    0    0  0.22174952505E+02 -0.37302192782E+02 -0.25458372846E+02  0.13482885060E+03  0.12509000000E+03 0.  0.
         25    1    4    4    0    0  0.12246448353E+01 -0.71462827022E+02  0.46804758008E+02  0.15148144729E+03  0.12509000000E+03 0.  0.
         25    1    3    3    0    0 -0.23399597340E+02  0.10876501980E+03  0.33325482670E+02  0.17069114384E+03  0.12509000000E+03 0.  0.
<mgrwt>
<rscale>  2 0.45371941E+03</rscale>
<asrwt>0</asrwt>
<pdfrwt beam="1">  1       21 0.37623038E-01 0.45371941E+03</pdfrwt>
<pdfrwt beam="2">  1       21 0.29583057E-01 0.45371941E+03</pdfrwt>
<totfact> 0.69102623E+04</totfact>
</mgrwt>
</event>
<event>
 7    0  0.4770865E-002  0.4576444E+03  0.7546771E-02  0.1025467E+00
         21   -1    0    0  502  501  0.00000000000E+00  0.00000000000E+00  0.89897017840E+02  0.89897017840E+02  0.00000000000E+00 0. -1.
         21   -1    0    0  501  502 -0.00000000000E+00 -0.00000000000E+00 -0.58243971708E+03  0.58243971708E+03  0.00000000000E+00 0. -1.
      99926    2    1    2    0    0  0.00000000000E+00  0.00000000000E+00 -0.49254269924E+03  0.67233673492E+03  0.45764437563E+03 0.  0.
      99925    2    3    3    0    0 -0.11104648927E+03  0.28001668315E+02 -0.33258822263E+03  0.43920939012E+03  0.26301054413E+03 0.  0.
         25    1    4    4    0    0 -0.26382651782E+02  0.81726786212E+01 -0.19857487711E+03  0.23630981129E+03  0.12509000000E+03 0.  0.
         25    1    3    3    0    0  0.11104648927E+03 -0.28001668315E+02 -0.15995447661E+03  0.23312734481E+03  0.12509000000E+03 0.  0.
         25    1    4    4    0    0 -0.84663837493E+02  0.19828989694E+02 -0.13401334552E+03  0.20289957883E+03  0.12509000000E+03 0.  0.
<mgrwt>
<rscale>  2 0.45764438E+03</rscale>
<asrwt>0</asrwt>
<pdfrwt beam="1">  1       21 0.13220150E-01 0.45764438E+03</pdfrwt>
<pdfrwt beam="2">  1       21 0.85652900E-01 0.45764438E+03</pdfrwt>
<totfact> 0.53311035E+04</totfact>
</mgrwt>
</event>
<event>
 7    0  0.4770865E-002  0.4560857E+03  0.7546771E-02  0.1025923E+00
         21   -1    0    0  502  501  0.00000000000E+00  0.00000000000E+00  0.27983257232E+03  0.27983257232E+03  0.00000000000E+00 0.  1.
         21   -1    0    0  501  502 -0.00000000000E+00 -0.00000000000E+00 -0.18583801857E+03  0.18583801857E+03  0.00000000000E+00 0.  1.
      99926    2    1    2    0    0  0.00000000000E+00  0.00000000000E+00  0.93994553745E+02  0.46567059089E+03  0.45608565324E+03 0.  0.
      99925    2    3    3    0    0  0.77158349183E+02 -0.74933544447E+02  0.98434435842E+02  0.30063826804E+03  0.26291744545E+03 0.  0.
         25    1    4    4    0    0  0.60721446747E+02 -0.35982001422E+02  0.87412862854E+02  0.16813778639E+03  0.12509000000E+03 0.  0.
         25    1    4    4    0    0  0.16436902436E+02 -0.38951543024E+02  0.11021572988E+02  0.13250048165E+03  0.12509000000E+03 0.  0.
         25    1    3    3    0    0 -0.77158349183E+02  0.74933544447E+02 -0.44398820965E+01  0.16503232285E+03  0.12509000000E+03 0.  0.
<mgrwt>
<rscale>  2 0.45608565E+03</rscale>
<asrwt>0</asrwt>
<pdfrwt beam="1">  1       21 0.41151849E-01 0.45608565E+03</pdfrwt>
<pdfrwt beam="2">  1       21 0.27329120E-01 0.45608565E+03</pdfrwt>
<totfact> 0.67178899E+04</totfact>
</mgrwt>
</event>
<event>
 7    0  0.4770865E-002  0.4525137E+03  0.7546771E-02  0.1026975E+00
         21   -1    0    0  502  501  0.00000000000E+00  0.00000000000E+00  0.60375924043E+02  0.60375924043E+02  0.00000000000E+00 0.  1.
         21   -1    0    0  501  502 -0.00000000000E+00 -0.00000000000E+00 -0.84789048252E+03  0.84789048252E+03  0.00000000000E+00 0.  1.
      99926    2    1    2    0    0  0.00000000000E+00  0.88817841970E-15 -0.78751455848E+03  0.90826640656E+03  0.45251374065E+03 0.  0.
      99925    2    3    3    0    0 -0.10203862836E+03  0.46389826393E+00 -0.41069506285E+03  0.49832429204E+03  0.26314362714E+03 0.  0.
         25    1    4    4    0    0 -0.35448428496E+02  0.37439327982E+02 -0.18270658293E+03  0.22734884629E+03  0.12509000000E+03 0.  0.
         25    1    4    4    0    0 -0.66590199867E+02 -0.36975429718E+02 -0.22798847992E+03  0.27097544575E+03  0.12509000000E+03 0.  0.
         25    1    3    3    0    0  0.10203862836E+03 -0.46389826393E+00 -0.37681949562E+03  0.40994211452E+03  0.12509000000E+03 0.  0.
<mgrwt>
<rscale>  2 0.45251374E+03</rscale>
<asrwt>0</asrwt>
<pdfrwt beam="1">  1       21 0.88788115E-02 0.45251374E+03</pdfrwt>
<pdfrwt beam="2">  1       21 0.12468979E+00 0.45251374E+03</pdfrwt>
<totfact> 0.43722946E+04</totfact>
</mgrwt>
</event>
<event>
 7    0  0.4770865E-002  0.4403911E+03  0.7546771E-02  0.1030627E+00
         21   -1    0    0  502  501  0.00000000000E+00  0.00000000000E+00  0.45913424166E+02  0.45913424166E+02  0.00000000000E+00 0.  1.
         21   -1    0    0  501  502 -0.00000000000E+00 -0.00000000000E+00 -0.10560327574E+04  0.10560327574E+04  0.00000000000E+00 0.  1.
      99926    2    1    2    0    0  0.00000000000E+00  0.00000000000E+00 -0.10101193332E+04  0.11019461815E+04  0.44039109855E+03 0.  0.
      99925    2    3    3    0    0 -0.42664896135E+02 -0.79057486814E+02 -0.54161131550E+03  0.60877516623E+03  0.26304753631E+03 0.  0.
         25    1    4    4    0    0 -0.34857449943E+02 -0.14025822009E+02 -0.19707294519E+03  0.23642550482E+03  0.12509000000E+03 0.  0.
         25    1    3    3    0    0  0.42664896135E+02  0.79057486814E+02 -0.46850801768E+03  0.49317101528E+03  0.12509000000E+03 0.  0.
         25    1    4    4    0    0 -0.78074461927E+01 -0.65031664805E+02 -0.34453837031E+03  0.37234966142E+03  0.12509000000E+03 0.  0.
<mgrwt>
<rscale>  2 0.44039110E+03</rscale>
<asrwt>0</asrwt>
<pdfrwt beam="1">  1       21 0.67519736E-02 0.44039110E+03</pdfrwt>
<pdfrwt beam="2">  1       21 0.15529895E+00 0.44039110E+03</pdfrwt>
<totfact> 0.39768537E+04</totfact>
</mgrwt>
</event>
<event>
 7    0  0.4770865E-002  0.4464326E+03  0.7546771E-02  0.1028791E+00
         21   -1    0    0  502  501  0.00000000000E+00  0.00000000000E+00  0.75607305130E+03  0.75607305130E+03  0.00000000000E+00 0. -1.
         21   -1    0    0  501  502 -0.00000000000E+00 -0.00000000000E+00 -0.65900413430E+02  0.65900413430E+02  0.00000000000E+00 0. -1.
      99926    2    1    2    0    0 -0.17763568394E-14  0.00000000000E+00  0.69017263787E+03  0.82197346473E+03  0.44643264515E+03 0.  0.
      99925    2    3    3    0    0  0.59329398323E+01  0.91143974584E+02  0.53282652085E+03  0.60118457796E+03  0.26301401404E+03 0.  0.
         25    1    3    3    0    0 -0.59329398323E+01 -0.91143974584E+02  0.15734611702E+03  0.22078888677E+03  0.12509000000E+03 0.  0.
         25    1    4    4    0    0 -0.30938231213E+02  0.27888430758E+02  0.28646648976E+03  0.31534980034E+03  0.12509000000E+03 0.  0.
         25    1    4    4    0    0  0.36871171045E+02  0.63255543825E+02  0.24636003109E+03  0.28583477762E+03  0.12509000000E+03 0.  0.
<mgrwt>
<rscale>  2 0.44643265E+03</rscale>
<asrwt>0</asrwt>
<pdfrwt beam="1">  1       21 0.11118721E+00 0.44643265E+03</pdfrwt>
<pdfrwt beam="2">  1       21 0.96912377E-02 0.44643265E+03</pdfrwt>
<totfact> 0.49997533E+04</totfact>
</mgrwt>
</event>
<event>
 7    0  0.4770865E-002  0.4600990E+03  0.7546771E-02  0.1024753E+00
         21   -1    0    0  502  501  0.00000000000E+00  0.00000000000E+00  0.91920240176E+03  0.91920240176E+03  0.00000000000E+00 0. -1.
         21   -1    0    0  501  502 -0.00000000000E+00 -0.00000000000E+00 -0.57574665691E+02  0.57574665691E+02  0.00000000000E+00 0. -1.
      99926    2    1    2    0    0  0.00000000000E+00  0.00000000000E+00  0.86162773607E+03  0.97677706745E+03  0.46009899363E+03 0.  0.
      99925    2    3    3    0    0  0.29234542664E+02  0.42310397887E+02  0.31461768611E+03  0.41329474198E+03  0.26302742649E+03 0.  0.
         25    1    4    4    0    0  0.52891682424E+01  0.31362634745E+02  0.99133095766E+02  0.16274664032E+03  0.12509000000E+03 0.  0.
         25    1    3    3    0    0 -0.29234542664E+02 -0.42310397887E+02  0.54701004996E+03  0.56348232547E+03  0.12509000000E+03 0.  0.
         25    1    4    4    0    0  0.23945374421E+02  0.10947763142E+02  0.21548459034E+03  0.25054810167E+03  0.12509000000E+03 0.  0.
<mgrwt>
<rscale>  2 0.46009899E+03</rscale>
<asrwt>0</asrwt>
<pdfrwt beam="1">  1       21 0.13517681E+00 0.46009899E+03</pdfrwt>
<pdfrwt beam="2">  1       21 0.84668632E-02 0.46009899E+03</pdfrwt>
<totfact> 0.38516690E+04</totfact>
</mgrwt>
</event>
<event>
 7    0  0.4770865E-002  0.4516339E+03  0.7546771E-02  0.1027236E+00
         21   -1    0    0  502  501  0.00000000000E+00  0.00000000000E+00  0.25702812494E+03  0.25702812494E+03  0.00000000000E+00 0.  1.
         21   -1    0    0  501  502 -0.00000000000E+00 -0.00000000000E+00 -0.19839574665E+03  0.19839574665E+03  0.00000000000E+00 0.  1.
      99926    2    1    2    0    0  0.17763568394E-14  0.14210854715E-13  0.58632378296E+02  0.45542387159E+03  0.45163386390E+03 0.  0.
      99925    2    3    3    0    0 -0.75674034811E+01 -0.10301915755E+03  0.75022097637E+02  0.29237067960E+03  0.26302487856E+03 0.  0.
         25    1    4    4    0    0  0.28589559743E+01 -0.92224337318E+02  0.28265484733E+02  0.15798717590E+03  0.12509000000E+03 0.  0.
         25    1    3    3    0    0  0.75674034811E+01  0.10301915755E+03 -0.16389719342E+02  0.16305319199E+03  0.12509000000E+03 0.  0.
         25    1    4    4    0    0 -0.10426359455E+02 -0.10794820228E+02  0.46756612904E+02  0.13438350370E+03  0.12509000000E+03 0.  0.
<mgrwt>
<rscale>  2 0.45163386E+03</rscale>
<asrwt>0</asrwt>
<pdfrwt beam="1">  1       21 0.37798254E-01 0.45163386E+03</pdfrwt>
<pdfrwt beam="2">  1       21 0.29175845E-01 0.45163386E+03</pdfrwt>
<totfact> 0.70385920E+04</totfact>
</mgrwt>
</event>
<event>
 7    0  0.4770865E-002  0.4494517E+03  0.7546771E-02  0.1027886E+00
         21   -1    0    0  502  501  0.00000000000E+00  0.00000000000E+00  0.29496874368E+03  0.29496874368E+03  0.00000000000E+00 0.  1.
         21   -1    0    0  501  502 -0.00000000000E+00 -0.00000000000E+00 -0.17121033313E+03  0.17121033313E+03  0.00000000000E+00 0.  1.
      99926    2    1    2    0    0  0.00000000000E+00  0.00000000000E+00  0.12375841054E+03  0.46617907681E+03  0.44945165199E+03 0.  0.
      99925    2    3    3    0    0 -0.57119355107E+02  0.62294588449E+02  0.14839222017E+03  0.31321643708E+03  0.26256627538E+03 0.  0.
         25    1    3    3    0    0  0.57119355107E+02 -0.62294588449E+02 -0.24633809631E+02  0.15296263974E+03  0.12509000000E+03 0.  0.
         25    1    4    4    0    0 -0.42248233030E+02 -0.46823562277E+01  0.85006082047E+02  0.15709990369E+03  0.12509000000E+03 0.  0.
         25    1    4    4    0    0 -0.14871122076E+02  0.66976944677E+02  0.63386138128E+02  0.15611653339E+03  0.12509000000E+03 0.  0.
<mgrwt>
<rscale>  2 0.44945165E+03</rscale>
<asrwt>0</asrwt>
<pdfrwt beam="1">  1       21 0.43377757E-01 0.44945165E+03</pdfrwt>
<pdfrwt beam="2">  1       21 0.25177990E-01 0.44945165E+03</pdfrwt>
<totfact> 0.70785707E+04</totfact>
</mgrwt>
</event>
<event>
 7    0  0.4770865E-002  0.4848268E+03  0.7546771E-02  0.1017817E+00
         21   -1    0    0  502  501  0.00000000000E+00  0.00000000000E+00  0.41345757735E+02  0.41345757735E+02  0.00000000000E+00 0. -1.
         21   -1    0    0  501  502 -0.00000000000E+00 -0.00000000000E+00 -0.14212884302E+04  0.14212884302E+04  0.00000000000E+00 0. -1.
      99926    2    1    2    0    0  0.14210854715E-13  0.14210854715E-13 -0.13799426724E+04  0.14626341879E+04  0.48482676125E+03 0.  0.
      99925    2    3    3    0    0 -0.10454611196E+03 -0.76772417977E+02 -0.69403683185E+03  0.75345281200E+03  0.26302114412E+03 0.  0.
         25    1    3    3    0    0  0.10454611196E+03  0.76772417977E+02 -0.68590584059E+03  0.70918137592E+03  0.12509000000E+03 0.  0.
         25    1    4    4    0    0 -0.61471662571E+02 -0.22733451938E+01 -0.37667447913E+03  0.40164051679E+03  0.12509000000E+03 0.  0.
         25    1    4    4    0    0 -0.43074449388E+02 -0.74499072784E+02 -0.31736235272E+03  0.35181229521E+03  0.12509000000E+03 0.  0.
<mgrwt>
<rscale>  2 0.48482676E+03</rscale>
<asrwt>0</asrwt>
<pdfrwt beam="1">  1       21 0.60802599E-02 0.48482676E+03</pdfrwt>
<pdfrwt beam="2">  1       21 0.20901296E+00 0.48482676E+03</pdfrwt>
<totfact> 0.19726784E+04</totfact>
</mgrwt>
</event>
<event>
 7    0  0.4770865E-002  0.4639944E+03  0.7546771E-02  0.1023629E+00
         21   -1    0    0  502  501  0.00000000000E+00  0.00000000000E+00  0.69226507874E+02  0.69226507874E+02  0.00000000000E+00 0.  1.
         21   -1    0    0  501  502 -0.00000000000E+00 -0.00000000000E+00 -0.77748686801E+03  0.77748686801E+03  0.00000000000E+00 0.  1.
      99926    2    1    2    0    0  0.00000000000E+00  0.71054273576E-14 -0.70826036013E+03  0.84671337588E+03  0.46399439992E+03 0.  0.
      99925    2    3    3    0    0  0.82677615276E+02 -0.58151626368E+02 -0.56501398272E+03  0.63134338619E+03  0.26293815034E+03 0.  0.
         25    1    4    4    0    0  0.73499871916E+02 -0.11942661844E+02 -0.33588773108E+03  0.36607777088E+03  0.12509000000E+03 0.  0.
         25    1    4    4    0    0  0.91777433592E+01 -0.46208964524E+02 -0.22912625164E+03  0.26526561531E+03  0.12509000000E+03 0.  0.
         25    1    3    3    0    0 -0.82677615276E+02  0.58151626368E+02 -0.14324637741E+03  0.21536998969E+03  0.12509000000E+03 0.  0.
<mgrwt>
<rscale>  2 0.46399440E+03</rscale>
<asrwt>0</asrwt>
<pdfrwt beam="1">  1       21 0.10180369E-01 0.46399440E+03</pdfrwt>
<pdfrwt beam="2">  1       21 0.11433630E+00 0.46399440E+03</pdfrwt>
<totfact> 0.42507091E+04</totfact>
</mgrwt>
</event>
<event>
 7    0  0.4770865E-002  0.4510202E+03  0.7546771E-02  0.1027418E+00
         21   -1    0    0  502  501  0.00000000000E+00  0.00000000000E+00  0.11935293905E+03  0.11935293905E+03  0.00000000000E+00 0.  1.
         21   -1    0    0  501  502 -0.00000000000E+00 -0.00000000000E+00 -0.42608755569E+03  0.42608755569E+03  0.00000000000E+00 0.  1.
      99926    2    1    2    0    0  0.00000000000E+00  0.35527136788E-14 -0.30673461664E+03  0.54544049474E+03  0.45102018609E+03 0.  0.
      99925    2    3    3    0    0  0.66307981513E+02  0.29071614779E+02 -0.94911444674E+02  0.28900634827E+03  0.26320064554E+03 0.  0.
         25    1    3    3    0    0 -0.66307981513E+02 -0.29071614779E+02 -0.21182317196E+03  0.25643414647E+03  0.12509000000E+03 0.  0.
         25    1    4    4    0    0  0.44104223555E+02 -0.19150037014E+02 -0.68762046448E+02  0.15062414675E+03  0.12509000000E+03 0.  0.
         25    1    4    4    0    0  0.22203757958E+02  0.48221651793E+02 -0.26149398227E+02  0.13838220152E+03  0.12509000000E+03 0.  0.
<mgrwt>
<rscale>  2 0.45102019E+03</rscale>
<asrwt>0</asrwt>
<pdfrwt beam="1">  1       21 0.17551903E-01 0.45102019E+03</pdfrwt>
<pdfrwt beam="2">  1       21 0.62659935E-01 0.45102019E+03</pdfrwt>
<totfact> 0.64165733E+04</totfact>
</mgrwt>
</event>
<event>
 7    0  0.4770865E-002  0.4532353E+03  0.7546771E-02  0.1026762E+00
         21   -1    0    0  502  501  0.00000000000E+00  0.00000000000E+00  0.11681181663E+04  0.11681181663E+04  0.00000000000E+00 0.  1.
         21   -1    0    0  501  502 -0.00000000000E+00 -0.00000000000E+00 -0.43964362376E+02  0.43964362376E+02  0.00000000000E+00 0.  1.
      99926    2    1    2    0    0  0.17763568394E-14 -0.14210854715E-13  0.11241538039E+04  0.12120825287E+04  0.45323534885E+03 0.  0.
      99925    2    3    3    0    0  0.89220069653E+01  0.10889580708E+03  0.76720414826E+03  0.81838408597E+03  0.26308251189E+03 0.  0.
         25    1    3    3    0    0 -0.89220069653E+01 -0.10889580708E+03  0.35694965567E+03  0.39369844271E+03  0.12509000000E+03 0.  0.
         25    1    4    4    0    0  0.37827535101E+02  0.70716579075E+02  0.35094873735E+03  0.38110927739E+03  0.12509000000E+03 0.  0.
         25    1    4    4    0    0 -0.28905528136E+02  0.38179228002E+02  0.41625541091E+03  0.43727480858E+03  0.12509000000E+03 0.  0.
<mgrwt>
<rscale>  2 0.45323535E+03</rscale>
<asrwt>0</asrwt>
<pdfrwt beam="1">  1       21 0.17178206E+00 0.45323535E+03</pdfrwt>
<pdfrwt beam="2">  1       21 0.64653481E-02 0.45323535E+03</pdfrwt>
<totfact> 0.32215865E+04</totfact>
</mgrwt>
</event>
<event>
 7    0  0.4770865E-002  0.4547047E+03  0.7546771E-02  0.1026328E+00
         21   -1    0    0  502  501  0.00000000000E+00  0.00000000000E+00  0.15553897625E+03  0.15553897625E+03  0.00000000000E+00 0. -1.
         21   -1    0    0  501  502 -0.00000000000E+00 -0.00000000000E+00 -0.33232242250E+03  0.33232242250E+03  0.00000000000E+00 0. -1.
      99926    2    1    2    0    0  0.00000000000E+00  0.00000000000E+00 -0.17678344625E+03  0.48786139874E+03  0.45470469265E+03 0.  0.
      99925    2    3    3    0    0  0.78338044342E+02  0.81114844396E+02 -0.10611081620E+03  0.30521804159E+03  0.26302486655E+03 0.  0.
         25    1    4    4    0    0  0.22044180209E+02  0.70394745499E+02 -0.77787688579E+02  0.16474161183E+03  0.12509000000E+03 0.  0.
         25    1    3    3    0    0 -0.78338044342E+02 -0.81114844396E+02 -0.70672630052E+02  0.18264335715E+03  0.12509000000E+03 0.  0.
         25    1    4    4    0    0  0.56293864133E+02  0.10720098897E+02 -0.28323127620E+02  0.14047642976E+03  0.12509000000E+03 0.  0.
<mgrwt>
<rscale>  2 0.45470469E+03</rscale>
<asrwt>0</asrwt>
<pdfrwt beam="1">  1       21 0.22873379E-01 0.45470469E+03</pdfrwt>
<pdfrwt beam="2">  1       21 0.48870945E-01 0.45470469E+03</pdfrwt>
<totfact> 0.66287412E+04</totfact>
</mgrwt>
</event>
<event>
 7    0  0.4770865E-002  0.4134649E+03  0.7546771E-02  0.1039214E+00
         21   -1    0    0  502  501  0.00000000000E+00  0.00000000000E+00  0.25082461108E+03  0.25082461108E+03  0.00000000000E+00 0. -1.
         21   -1    0    0  501  502 -0.00000000000E+00 -0.00000000000E+00 -0.17039117114E+03  0.17039117114E+03  0.00000000000E+00 0. -1.
      99926    2    1    2    0    0  0.00000000000E+00  0.00000000000E+00  0.80433439934E+02  0.42121578222E+03  0.41346486783E+03 0.  0.
      99925    2    3    3    0    0 -0.31282668587E+02  0.54047895672E+02  0.27764563551E+02  0.27181263962E+03  0.26308070945E+03 0.  0.
         25    1    4    4    0    0  0.20776611139E+02  0.10797469221E+02  0.24192497198E+02  0.12954164555E+03  0.12509000000E+03 0.  0.
         25    1    4    4    0    0 -0.52059279726E+02  0.43250426451E+02  0.35720663529E+01  0.14227099406E+03  0.12509000000E+03 0.  0.
         25    1    3    3    0    0  0.31282668587E+02 -0.54047895672E+02  0.52668876383E+02  0.14940314260E+03  0.12509000000E+03 0.  0.
<mgrwt>
<rscale>  2 0.41346487E+03</rscale>
<asrwt>0</asrwt>
<pdfrwt beam="1">  1       21 0.36885972E-01 0.41346487E+03</pdfrwt>
<pdfrwt beam="2">  1       21 0.25057525E-01 0.41346487E+03</pdfrwt>
<totfact> 0.10047101E+05</totfact>
</mgrwt>
</event>
<event>
 7    0  0.4770865E-002  0.4569818E+03  0.7546771E-02  0.1025660E+00
         21   -1    0    0  502  501  0.00000000000E+00  0.00000000000E+00  0.10119819994E+04  0.10119819994E+04  0.00000000000E+00 0. -1.
         21   -1    0    0  501  502 -0.00000000000E+00 -0.00000000000E+00 -0.51589939209E+02  0.51589939209E+02  0.00000000000E+00 0. -1.
      99926    2    1    2    0    0  0.00000000000E+00  0.35527136788E-14  0.96039206018E+03  0.10635719386E+04  0.45698179320E+03 0.  0.
      99925    2    3    3    0    0 -0.10218208923E+03 -0.27858501687E+02  0.70519774280E+03  0.76027518095E+03  0.26362325171E+03 0.  0.
         25    1    4    4    0    0 -0.43252351033E+02  0.27066908891E+02  0.35062800988E+03  0.37575376623E+03  0.12509000000E+03 0.  0.
         25    1    4    4    0    0 -0.58929738202E+02 -0.54925410577E+02  0.35456973292E+03  0.38452141471E+03  0.12509000000E+03 0.  0.
         25    1    3    3    0    0  0.10218208923E+03  0.27858501687E+02  0.25519431738E+03  0.30329675765E+03  0.12509000000E+03 0.  0.
<mgrwt>
<rscale>  2 0.45698179E+03</rscale>
<asrwt>0</asrwt>
<pdfrwt beam="1">  1       21 0.14882087E+00 0.45698179E+03</pdfrwt>
<pdfrwt beam="2">  1       21 0.75867564E-02 0.45698179E+03</pdfrwt>
<totfact> 0.36219872E+04</totfact>
</mgrwt>
</event>
<event>
 7    0  0.4770865E-002  0.4487903E+03  0.7546771E-02  0.1028083E+00
         21   -1    0    0  502  501  0.00000000000E+00  0.00000000000E+00  0.47275086344E+03  0.47275086344E+03  0.00000000000E+00 0. -1.
         21   -1    0    0  501  502 -0.00000000000E+00 -0.00000000000E+00 -0.10651102028E+03  0.10651102028E+03  0.00000000000E+00 0. -1.
      99926    2    1    2    0    0  0.71054273576E-14  0.00000000000E+00  0.36623984315E+03  0.57926188372E+03  0.44879027086E+03 0.  0.
      99925    2    3    3    0    0 -0.53831654533E+02 -0.91996448935E+02  0.20990928856E+03  0.35244049133E+03  0.26228075961E+03 0.  0.
         25    1    4    4    0    0 -0.32156474137E+02 -0.71118465397E+02  0.15063077331E+03  0.21078190842E+03  0.12509000000E+03 0.  0.
         25    1    4    4    0    0 -0.21675180396E+02 -0.20877983538E+02  0.59278515247E+02  0.14165858291E+03  0.12509000000E+03 0.  0.
         25    1    3    3    0    0  0.53831654533E+02  0.91996448935E+02  0.15633055460E+03  0.22682139239E+03  0.12509000000E+03 0.  0.
<mgrwt>
<rscale>  2 0.44879027E+03</rscale>
<asrwt>0</asrwt>
<pdfrwt beam="1">  1       21 0.69522185E-01 0.44879027E+03</pdfrwt>
<pdfrwt beam="2">  1       21 0.15663386E-01 0.44879027E+03</pdfrwt>
<totfact> 0.63010065E+04</totfact>
</mgrwt>
</event>
<event>
 7    0  0.4770865E-002  0.4478403E+03  0.7546771E-02  0.1028368E+00
         21   -1    0    0  502  501  0.00000000000E+00  0.00000000000E+00  0.29717018865E+04  0.29717018865E+04  0.00000000000E+00 0.  1.
         21   -1    0    0  501  502 -0.00000000000E+00 -0.00000000000E+00 -0.16872561466E+02  0.16872561466E+02  0.00000000000E+00 0.  1.
      99926    2    1    2    0    0  0.35527136788E-14  0.00000000000E+00  0.29548293250E+04  0.29885744479E+04  0.44784025161E+03 0.  0.
      99925    2    3    3    0    0 -0.26225888756E+02  0.99345524381E+02  0.16898150153E+04  0.17132446700E+04  0.26301175475E+03 0.  0.
         25    1    3    3    0    0  0.26225888756E+02 -0.99345524381E+02  0.12650143097E+04  0.12753297779E+04  0.12509000000E+03 0.  0.
         25    1    4    4    0    0  0.20482843358E+02  0.70127295415E+02  0.80399890318E+03  0.81694499744E+03  0.12509000000E+03 0.  0.
         25    1    4    4    0    0 -0.46708732115E+02  0.29218228966E+02  0.88581611210E+03  0.89629967261E+03  0.12509000000E+03 0.  0.
<mgrwt>
<rscale>  2 0.44784025E+03</rscale>
<asrwt>0</asrwt>
<pdfrwt beam="1">  1       21 0.43701462E+00 0.44784025E+03</pdfrwt>
<pdfrwt beam="2">  1       21 0.24812611E-02 0.44784025E+03</pdfrwt>
<totfact> 0.35024450E+03</totfact>
</mgrwt>
</event>
<event>
 7    0  0.4770865E-002  0.4515718E+03  0.7546771E-02  0.1027254E+00
         21   -1    0    0  502  501  0.00000000000E+00  0.00000000000E+00  0.91941893871E+02  0.91941893871E+02  0.00000000000E+00 0. -1.
         21   -1    0    0  501  502 -0.00000000000E+00 -0.00000000000E+00 -0.55447269787E+03  0.55447269787E+03  0.00000000000E+00 0. -1.
      99926    2    1    2    0    0  0.00000000000E+00 -0.35527136788E-14 -0.46253080400E+03  0.64641459174E+03  0.45157178805E+03 0.  0.
      99925    2    3    3    0    0  0.10385412101E+03 -0.23090239868E+02 -0.25340682279E+03  0.38052140784E+03  0.26317805068E+03 0.  0.
         25    1    3    3    0    0 -0.10385412101E+03  0.23090239868E+02 -0.20912398120E+03  0.26589318390E+03  0.12509000000E+03 0.  0.
         25    1    4    4    0    0  0.68446771377E+02  0.16860520845E+02 -0.97137630427E+02  0.17335646807E+03  0.12509000000E+03 0.  0.
         25    1    4    4    0    0  0.35407349634E+02 -0.39950760712E+02 -0.15626919236E+03  0.20716493977E+03  0.12509000000E+03 0.  0.
<mgrwt>
<rscale>  2 0.45157179E+03</rscale>
<asrwt>0</asrwt>
<pdfrwt beam="1">  1       21 0.13520867E-01 0.45157179E+03</pdfrwt>
<pdfrwt beam="2">  1       21 0.81540101E-01 0.45157179E+03</pdfrwt>
<totfact> 0.57446605E+04</totfact>
</mgrwt>
</event>
<event>
 7    0  0.4770865E-002  0.4536180E+03  0.7546771E-02  0.1026649E+00
         21   -1    0    0  502  501  0.00000000000E+00  0.00000000000E+00  0.77862832841E+03  0.77862832841E+03  0.00000000000E+00 0.  1.
         21   -1    0    0  501  502 -0.00000000000E+00 -0.00000000000E+00 -0.66067887443E+02  0.66067887443E+02  0.00000000000E+00 0.  1.
      99926    2    1    2    0    0  0.00000000000E+00  0.71054273576E-14  0.71256044097E+03  0.84469621585E+03  0.45361802769E+03 0.  0.
      99925    2    3    3    0    0  0.79228357464E+02 -0.38585207888E+02  0.57901962248E+03  0.64160360349E+03  0.26196471117E+03 0.  0.
         25    1    3    3    0    0 -0.79228357464E+02  0.38585207888E+02  0.13354081848E+03  0.20309261236E+03  0.12509000000E+03 0.  0.
         25    1    4    4    0    0  0.43891407339E+02  0.16206205331E+01  0.21052361691E+03  0.24879064176E+03  0.12509000000E+03 0.  0.
         25    1    4    4    0    0  0.35336950125E+02 -0.40205828421E+02  0.36849600558E+03  0.39281296174E+03  0.12509000000E+03 0.  0.
<mgrwt>
<rscale>  2 0.45361803E+03</rscale>
<asrwt>0</asrwt>
<pdfrwt beam="1">  1       21 0.11450416E+00 0.45361803E+03</pdfrwt>
<pdfrwt beam="2">  1       21 0.97158663E-02 0.45361803E+03</pdfrwt>
<totfact> 0.46176164E+04</totfact>
</mgrwt>
</event>
<event>
 7    0  0.4770865E-002  0.4541765E+03  0.7546771E-02  0.1026484E+00
         21   -1    0    0  502  501  0.00000000000E+00  0.00000000000E+00  0.68087729393E+03  0.68087729393E+03  0.00000000000E+00 0. -1.
         21   -1    0    0  501  502 -0.00000000000E+00 -0.00000000000E+00 -0.75739152144E+02  0.75739152144E+02  0.00000000000E+00 0. -1.
      99926    2    1    2    0    0  0.00000000000E+00  0.00000000000E+00  0.60513814179E+03  0.75661644608E+03  0.45417648093E+03 0.  0.
      99925    2    3    3    0    0 -0.77936168803E+02  0.47409009866E+02  0.27207893672E+03  0.38933235603E+03  0.26311798688E+03 0.  0.
         25    1    4    4    0    0 -0.64773076229E+02  0.31286645772E+02  0.99940197606E+02  0.17552765254E+03  0.12509000000E+03 0.  0.
         25    1    4    4    0    0 -0.13163092574E+02  0.16122364095E+02  0.17213873912E+03  0.21380470349E+03  0.12509000000E+03 0.  0.
         25    1    3    3    0    0  0.77936168803E+02 -0.47409009866E+02  0.33305920506E+03  0.36728409005E+03  0.12509000000E+03 0.  0.
<mgrwt>
<rscale>  2 0.45417648E+03</rscale>
<asrwt>0</asrwt>
<pdfrwt beam="1">  1       21 0.10012901E+00 0.45417648E+03</pdfrwt>
<pdfrwt beam="2">  1       21 0.11138111E-01 0.45417648E+03</pdfrwt>
<totfact> 0.50258282E+04</totfact>
</mgrwt>
</event>
<event>
 7    0  0.4770865E-002  0.4422404E+03  0.7546771E-02  0.1030062E+00
         21   -1    0    0  502  501  0.00000000000E+00  0.00000000000E+00  0.48796860742E+02  0.48796860742E+02  0.00000000000E+00 0.  1.
         21   -1    0    0  501  502 -0.00000000000E+00 -0.00000000000E+00 -0.10019937325E+04  0.10019937325E+04  0.00000000000E+00 0.  1.
      99926    2    1    2    0    0  0.00000000000E+00 -0.17763568394E-14 -0.95319687176E+03  0.10507905932E+04  0.44224042614E+03 0.  0.
      99925    2    3    3    0    0 -0.65645425378E+02  0.11719249807E+02 -0.42759536172E+03  0.50640918454E+03  0.26299392793E+03 0.  0.
         25    1    4    4    0    0 -0.52226355783E+02  0.31003527031E+02 -0.17464425779E+03  0.22324187736E+03  0.12509000000E+03 0.  0.
         25    1    4    4    0    0 -0.13419069595E+02 -0.19284277224E+02 -0.25295110393E+03  0.28316730718E+03  0.12509000000E+03 0.  0.
         25    1    3    3    0    0  0.65645425378E+02 -0.11719249807E+02 -0.52560151003E+03  0.54438140870E+03  0.12509000000E+03 0.  0.
<mgrwt>
<rscale>  2 0.44224043E+03</rscale>
<asrwt>0</asrwt>
<pdfrwt beam="1">  1       21 0.71760099E-02 0.44224043E+03</pdfrwt>
<pdfrwt beam="2">  1       21 0.14735200E+00 0.44224043E+03</pdfrwt>
<totfact> 0.41201205E+04</totfact>
</mgrwt>
</event>
<event>
 7    0  0.4770865E-002  0.4472800E+03  0.7546771E-02  0.1028536E+00
         21   -1    0    0  502  501  0.00000000000E+00  0.00000000000E+00  0.49085821194E+03  0.49085821194E+03  0.00000000000E+00 0.  1.
         21   -1    0    0  501  502 -0.00000000000E+00 -0.00000000000E+00 -0.10189266927E+03  0.10189266927E+03  0.00000000000E+00 0.  1.
      99926    2    1    2    0    0  0.00000000000E+00 -0.17763568394E-14  0.38896554267E+03  0.59275088121E+03  0.44728001721E+03 0.  0.
      99925    2    3    3    0    0  0.91537854690E+02  0.14376698683E+02  0.17896908509E+03  0.33134719225E+03  0.26301171093E+03 0.  0.
         25    1    4    4    0    0  0.41484549358E+01 -0.12851483480E+01  0.88044755352E+02  0.15303022031E+03  0.12509000000E+03 0.  0.
         25    1    4    4    0    0  0.87389399754E+02  0.15661847031E+02  0.90924329734E+02  0.17831697193E+03  0.12509000000E+03 0.  0.
         25    1    3    3    0    0 -0.91537854690E+02 -0.14376698683E+02  0.20999645758E+03  0.26140368896E+03  0.12509000000E+03 0.  0.
<mgrwt>
<rscale>  2 0.44728002E+03</rscale>
<asrwt>0</asrwt>
<pdfrwt beam="1">  1       21 0.72185030E-01 0.44728002E+03</pdfrwt>
<pdfrwt beam="2">  1       21 0.14984216E-01 0.44728002E+03</pdfrwt>
<totfact> 0.62875736E+04</totfact>
</mgrwt>
</event>
<event>
 7    0  0.4770865E-002  0.4298342E+03  0.7546771E-02  0.1033912E+00
         21   -1    0    0  502  501  0.00000000000E+00  0.00000000000E+00  0.45633147548E+03  0.45633147548E+03  0.00000000000E+00 0.  1.
         21   -1    0    0  501  502 -0.00000000000E+00 -0.00000000000E+00 -0.10121890031E+03  0.10121890031E+03  0.00000000000E+00 0.  1.
      99926    2    1    2    0    0  0.00000000000E+00 -0.80491169285E-15  0.35511257517E+03  0.55755037578E+03  0.42983424769E+03 0.  0.
      99925    2    3    3    0    0 -0.82561714996E+01  0.23613045338E+00  0.11575919173E+03  0.28735457569E+03  0.26287685629E+03 0.  0.
         25    1    4    4    0    0 -0.84320914966E+01  0.39585681148E+02  0.50048441029E+02  0.14067864397E+03  0.12509000000E+03 0.  0.
         25    1    3    3    0    0  0.82561714996E+01 -0.23613045338E+00  0.23935338344E+03  0.27019580010E+03  0.12509000000E+03 0.  0.
         25    1    4    4    0    0  0.17591999699E+00 -0.39349550695E+02  0.65710750703E+02  0.14667593172E+03  0.12509000000E+03 0.  0.
<mgrwt>
<rscale>  2 0.42983425E+03</rscale>
<asrwt>0</asrwt>
<pdfrwt beam="1">  1       21 0.67107569E-01 0.42983425E+03</pdfrwt>
<pdfrwt beam="2">  1       21 0.14885133E-01 0.42983425E+03</pdfrwt>
<totfact> 0.75272085E+04</totfact>
</mgrwt>
</event>
<event>
 7    0  0.4770865E-002  0.5118879E+03  0.7546771E-02  0.1010722E+00
         21   -1    0    0  502  501  0.00000000000E+00  0.00000000000E+00  0.38395773400E+02  0.38395773400E+02  0.00000000000E+00 0. -1.
         21   -1    0    0  501  502 -0.00000000000E+00 -0.00000000000E+00 -0.17061071951E+04  0.17061071951E+04  0.00000000000E+00 0. -1.
      99926    2    1    2    0    0 -0.71054273576E-14  0.35527136788E-14 -0.16677114217E+04  0.17445029685E+04  0.51188789889E+03 0.  0.
      99925    2    3    3    0    0  0.35448157398E+02 -0.25127976726E+02 -0.47690693038E+03  0.54635822277E+03  0.26301920132E+03 0.  0.
         25    1    4    4    0    0  0.38789258467E+02 -0.47447282381E+02 -0.25933639484E+03  0.29437854026E+03  0.12509000000E+03 0.  0.
         25    1    4    4    0    0 -0.33411010688E+01  0.22319305655E+02 -0.21757053554E+03  0.25197968251E+03  0.12509000000E+03 0.  0.
         25    1    3    3    0    0 -0.35448157398E+02  0.25127976726E+02 -0.11908044913E+04  0.11981447457E+04  0.12509000000E+03 0.  0.
<mgrwt>
<rscale>  2 0.51188790E+03</rscale>
<asrwt>0</asrwt>
<pdfrwt beam="1">  1       21 0.56464375E-02 0.51188790E+03</pdfrwt>
<pdfrwt beam="2">  1       21 0.25089811E+00 0.51188790E+03</pdfrwt>
<totfact> 0.12076279E+04</totfact>
</mgrwt>
</event>
<event>
 7    0  0.4770865E-002  0.4537973E+03  0.7546771E-02  0.1026596E+00
         21   -1    0    0  502  501  0.00000000000E+00  0.00000000000E+00  0.46948621655E+02  0.46948621655E+02  0.00000000000E+00 0. -1.
         21   -1    0    0  501  502 -0.00000000000E+00 -0.00000000000E+00 -0.10965817680E+04  0.10965817680E+04  0.00000000000E+00 0. -1.
      99926    2    1    2    0    0  0.00000000000E+00  0.00000000000E+00 -0.10496331463E+04  0.11435303896E+04  0.45379732277E+03 0.  0.
      99925    2    3    3    0    0 -0.83319224500E+02  0.46798243353E+02 -0.80890888047E+03  0.85590589655E+03  0.26288620750E+03 0.  0.
         25    1    4    4    0    0 -0.36696472292E+02  0.34185839708E+01 -0.49779081098E+03  0.51458868759E+03  0.12509000000E+03 0.  0.
         25    1    3    3    0    0  0.83319224500E+02 -0.46798243353E+02 -0.24072426587E+03  0.28762449310E+03  0.12509000000E+03 0.  0.
         25    1    4    4    0    0 -0.46622752209E+02  0.43379659382E+02 -0.31111806948E+03  0.34131720896E+03  0.12509000000E+03 0.  0.
<mgrwt>
<rscale>  2 0.45379732E+03</rscale>
<asrwt>0</asrwt>
<pdfrwt beam="1">  1       21 0.69042097E-02 0.45379732E+03</pdfrwt>
<pdfrwt beam="2">  1       21 0.16126201E+00 0.45379732E+03</pdfrwt>
<totfact> 0.34319694E+04</totfact>
</mgrwt>
</event>
<event>
 7    0  0.4770865E-002  0.4036992E+03  0.7546771E-02  0.1042506E+00
         21   -1    0    0  502  501  0.00000000000E+00  0.00000000000E+00  0.16422196931E+02  0.16422196931E+02  0.00000000000E+00 0.  1.
         21   -1    0    0  501  502 -0.00000000000E+00 -0.00000000000E+00 -0.24809872301E+04  0.24809872301E+04  0.00000000000E+00 0.  1.
      99926    2    1    2    0    0  0.00000000000E+00 -0.22204460493E-14 -0.24645650332E+04  0.24974094271E+04  0.40369919929E+03 0.  0.
      99925    2    3    3    0    0  0.45055947236E+02  0.28610431948E+01 -0.14740496414E+04  0.14980063686E+04  0.26298766290E+03 0.  0.
         25    1    4    4    0    0  0.32781720413E+02  0.40164634536E+02 -0.78537757044E+03  0.79696504021E+03  0.12509000000E+03 0.  0.
         25    1    3    3    0    0 -0.45055947236E+02 -0.28610431948E+01 -0.99051539176E+03  0.99940305851E+03  0.12509000000E+03 0.  0.
         25    1    4    4    0    0  0.12274226823E+02 -0.37303591341E+02 -0.68867207101E+03  0.70104132835E+03  0.12509000000E+03 0.  0.
<mgrwt>
<rscale>  2 0.40369920E+03</rscale>
<asrwt>0</asrwt>
<pdfrwt beam="1">  1       21 0.24150312E-02 0.40369920E+03</pdfrwt>
<pdfrwt beam="2">  1       21 0.36485073E+00 0.40369920E+03</pdfrwt>
<totfact> 0.10901698E+04</totfact>
</mgrwt>
</event>
<event>
 7    0  0.4770865E-002  0.4503802E+03  0.7546771E-02  0.1027609E+00
         21   -1    0    0  502  501  0.00000000000E+00  0.00000000000E+00  0.55902776790E+02  0.55902776790E+02  0.00000000000E+00 0.  1.
         21   -1    0    0  501  502 -0.00000000000E+00 -0.00000000000E+00 -0.90712101448E+03  0.90712101448E+03  0.00000000000E+00 0.  1.
      99926    2    1    2    0    0  0.35527136788E-14  0.00000000000E+00 -0.85121823769E+03  0.96302379127E+03  0.45038021091E+03 0.  0.
      99925    2    3    3    0    0 -0.22330863722E+02 -0.94707917526E+02 -0.64190932998E+03  0.70048620527E+03  0.26299254503E+03 0.  0.
         25    1    4    4    0    0 -0.42541662865E+02 -0.53172597206E+02 -0.26771320543E+03  0.30324080635E+03  0.12509000000E+03 0.  0.
         25    1    4    4    0    0  0.20210799144E+02 -0.41535320320E+02 -0.37419612455E+03  0.39724539892E+03  0.12509000000E+03 0.  0.
         25    1    3    3    0    0  0.22330863722E+02  0.94707917526E+02 -0.20930890771E+03  0.26253758600E+03  0.12509000000E+03 0.  0.
<mgrwt>
<rscale>  2 0.45038021E+03</rscale>
<asrwt>0</asrwt>
<pdfrwt beam="1">  1       21 0.82209971E-02 0.45038021E+03</pdfrwt>
<pdfrwt beam="2">  1       21 0.13340014E+00 0.45038021E+03</pdfrwt>
<totfact> 0.42118796E+04</totfact>
</mgrwt>
</event>
<event>
 7    0  0.4770865E-002  0.4541140E+03  0.7546771E-02  0.1026502E+00
         21   -1    0    0  502  501  0.00000000000E+00  0.00000000000E+00  0.10636266351E+03  0.10636266351E+03  0.00000000000E+00 0.  1.
         21   -1    0    0  501  502 -0.00000000000E+00 -0.00000000000E+00 -0.48470834927E+03  0.48470834927E+03  0.00000000000E+00 0.  1.
      99926    2    1    2    0    0  0.00000000000E+00  0.00000000000E+00 -0.37834568576E+03  0.59107101279E+03  0.45411395511E+03 0.  0.
      99925    2    3    3    0    0 -0.78916509800E+02  0.75529286762E+02 -0.27225662988E+03  0.39400532690E+03  0.26302858482E+03 0.  0.
         25    1    4    4    0    0 -0.28568169400E+02  0.71426502016E+02 -0.11303358270E+03  0.18531590436E+03  0.12509000000E+03 0.  0.
         25    1    4    4    0    0 -0.50348340400E+02  0.41027847461E+01 -0.15922304718E+03  0.20868942253E+03  0.12509000000E+03 0.  0.
         25    1    3    3    0    0  0.78916509800E+02 -0.75529286762E+02 -0.10608905588E+03  0.19706568589E+03  0.12509000000E+03 0.  0.
<mgrwt>
<rscale>  2 0.45411396E+03</rscale>
<asrwt>0</asrwt>
<pdfrwt beam="1">  1       21 0.15641568E-01 0.45411396E+03</pdfrwt>
<pdfrwt beam="2">  1       21 0.71280640E-01 0.45411396E+03</pdfrwt>
<totfact> 0.59647857E+04</totfact>
</mgrwt>
</event>
<event>
 7    0  0.4770865E-002  0.4467956E+03  0.7546771E-02  0.1028682E+00
         21   -1    0    0  502  501  0.00000000000E+00  0.00000000000E+00  0.27250834366E+02  0.27250834366E+02  0.00000000000E+00 0. -1.
         21   -1    0    0  501  502 -0.00000000000E+00 -0.00000000000E+00 -0.18313782642E+04  0.18313782642E+04  0.00000000000E+00 0. -1.
      99926    2    1    2    0    0  0.00000000000E+00  0.00000000000E+00 -0.18041274298E+04  0.18586290985E+04  0.44679563892E+03 0.  0.
      99925    2    3    3    0    0  0.95225731512E+02  0.15481667726E+02 -0.13193420117E+04  0.13487545731E+04  0.26299797083E+03 0.  0.
         25    1    3    3    0    0 -0.95225731512E+02 -0.15481667726E+02 -0.48478541815E+03  0.50987452548E+03  0.12509000000E+03 0.  0.
         25    1    4    4    0    0  0.99847708625E+01  0.13583427992E+02 -0.69101428144E+03  0.70244747165E+03  0.12509000000E+03 0.  0.
         25    1    4    4    0    0  0.85240960650E+02  0.18982397335E+01 -0.62832773022E+03  0.64630710142E+03  0.12509000000E+03 0.  0.
<mgrwt>
<rscale>  2 0.44679564E+03</rscale>
<asrwt>0</asrwt>
<pdfrwt beam="1">  1       21 0.40074738E-02 0.44679564E+03</pdfrwt>
<pdfrwt beam="2">  1       21 0.26932046E+00 0.44679564E+03</pdfrwt>
<totfact> 0.17229533E+04</totfact>
</mgrwt>
</event>
<event>
 7    0  0.4770865E-002  0.4414189E+03  0.7546771E-02  0.1030312E+00
         21   -1    0    0  502  501  0.00000000000E+00  0.00000000000E+00  0.28043849969E+03  0.28043849969E+03  0.00000000000E+00 0.  1.
         21   -1    0    0  501  502 -0.00000000000E+00 -0.00000000000E+00 -0.17370173091E+03  0.17370173091E+03  0.00000000000E+00 0.  1.
      99926    2    1    2    0    0  0.00000000000E+00  0.00000000000E+00  0.10673676878E+03  0.45414023060E+03  0.44141886145E+03 0.  0.
      99925    2    3    3    0    0 -0.26316166483E+01  0.47740141814E+02  0.15832505602E+03  0.31063097645E+03  0.26294245305E+03 0.  0.
         25    1    4    4    0    0 -0.20622527951E+02  0.56241152714E+02  0.64242034833E+02  0.15284928216E+03  0.12509000000E+03 0.  0.
         25    1    4    4    0    0  0.17990911303E+02 -0.85010108993E+01  0.94083021192E+02  0.15778169429E+03  0.12509000000E+03 0.  0.
         25    1    3    3    0    0  0.26316166483E+01 -0.47740141814E+02 -0.51588287246E+02  0.14350925415E+03  0.12509000000E+03 0.  0.
<mgrwt>
<rscale>  2 0.44141886E+03</rscale>
<asrwt>0</asrwt>
<pdfrwt beam="1">  1       21 0.41240956E-01 0.44141886E+03</pdfrwt>
<pdfrwt beam="2">  1       21 0.25544372E-01 0.44141886E+03</pdfrwt>
<totfact> 0.76554108E+04</totfact>
</mgrwt>
</event>
<event>
 7    0  0.4770865E-002  0.4514190E+03  0.7546771E-02  0.1027300E+00
         21   -1    0    0  502  501  0.00000000000E+00  0.00000000000E+00  0.22629098267E+03  0.22629098267E+03  0.00000000000E+00 0.  1.
         21   -1    0    0  501  502 -0.00000000000E+00 -0.00000000000E+00 -0.22512948272E+03  0.22512948272E+03  0.00000000000E+00 0.  1.
      99926    2    1    2    0    0  0.71054273576E-14  0.71054273576E-14  0.11614999570E+01  0.45142046539E+03  0.45141897112E+03 0.  0.
      99925    2    3    3    0    0 -0.61548569115E+02 -0.41824041506E+02  0.81298222707E+02  0.28526728534E+03  0.26311698208E+03 0.  0.
         25    1    4    4    0    0 -0.14884410648E+02 -0.40384391981E+02  0.73934231216E+02  0.15154610995E+03  0.12509000000E+03 0.  0.
         25    1    4    4    0    0 -0.46664158467E+02 -0.14396495247E+01  0.73639914910E+01  0.13372117539E+03  0.12509000000E+03 0.  0.
         25    1    3    3    0    0  0.61548569115E+02  0.41824041506E+02 -0.80136722750E+02  0.16615318005E+03  0.12509000000E+03 0.  0.
<mgrwt>
<rscale>  2 0.45141897E+03</rscale>
<asrwt>0</asrwt>
<pdfrwt beam="1">  1       21 0.33278086E-01 0.45141897E+03</pdfrwt>
<pdfrwt beam="2">  1       21 0.33107277E-01 0.45141897E+03</pdfrwt>
<totfact> 0.70810559E+04</totfact>
</mgrwt>
</event>
<event>
 7    0  0.4770865E-002  0.4666851E+03  0.7546771E-02  0.1022860E+00
         21   -1    0    0  502  501  0.00000000000E+00  0.00000000000E+00  0.59075893801E+03  0.59075893801E+03  0.00000000000E+00 0. -1.
         21   -1    0    0  501  502 -0.00000000000E+00 -0.00000000000E+00 -0.92167453353E+02  0.92167453353E+02  0.00000000000E+00 0. -1.
      99926    2    1    2    0    0  0.00000000000E+00  0.88817841970E-15  0.49859148466E+03  0.68292639137E+03  0.46668510524E+03 0.  0.
      99925    2    3    3    0    0 -0.46779594506E+02  0.29983389751E+01  0.14294510353E+03  0.30301959094E+03  0.26304039494E+03 0.  0.
         25    1    4    4    0    0 -0.56913557278E+02  0.25244428031E+02  0.74931111683E+02  0.15855161225E+03  0.12509000000E+03 0.  0.
         25    1    4    4    0    0  0.10133962773E+02 -0.22246089056E+02  0.68013991844E+02  0.14446797869E+03  0.12509000000E+03 0.  0.
         25    1    3    3    0    0  0.46779594506E+02 -0.29983389751E+01  0.35564638113E+03  0.37990680043E+03  0.12509000000E+03 0.  0.
<mgrwt>
<rscale>  2 0.46668511E+03</rscale>
<asrwt>0</asrwt>
<pdfrwt beam="1">  1       21 0.86876312E-01 0.46668511E+03</pdfrwt>
<pdfrwt beam="2">  1       21 0.13554038E-01 0.46668511E+03</pdfrwt>
<totfact> 0.49155490E+04</totfact>
</mgrwt>
</event>
<event>
 7    0  0.4770865E-002  0.4514736E+03  0.7546771E-02  0.1027284E+00
         21   -1    0    0  502  501  0.00000000000E+00  0.00000000000E+00  0.16005064732E+02  0.16005064732E+02  0.00000000000E+00 0. -1.
         21   -1    0    0  501  502 -0.00000000000E+00 -0.00000000000E+00 -0.31838113402E+04  0.31838113402E+04  0.00000000000E+00 0. -1.
      99926    2    1    2    0    0  0.00000000000E+00  0.00000000000E+00 -0.31678062754E+04  0.31998164049E+04  0.45147361647E+03 0.  0.
      99925    2    3    3    0    0 -0.38967269916E+02  0.26394266978E+02 -0.27031864024E+04  0.27163557136E+04  0.26297629468E+03 0.  0.
         25    1    4    4    0    0 -0.32208558231E+02 -0.12692784204E+02 -0.16338537740E+04  0.16390009643E+04  0.12509000000E+03 0.  0.
         25    1    4    4    0    0 -0.67587116845E+01  0.39087051182E+02 -0.10693326284E+04  0.10773547494E+04  0.12509000000E+03 0.  0.
         25    1    3    3    0    0  0.38967269916E+02 -0.26394266978E+02 -0.46461987307E+03  0.48346069127E+03  0.12509000000E+03 0.  0.
<mgrwt>
<rscale>  2 0.45147362E+03</rscale>
<asrwt>0</asrwt>
<pdfrwt beam="1">  1       21 0.23536855E-02 0.45147362E+03</pdfrwt>
<pdfrwt beam="2">  1       21 0.46820765E+00 0.45147362E+03</pdfrwt>
<totfact> 0.23440097E+03</totfact>
</mgrwt>
</event>
<event>
 7    0  0.4770865E-002  0.4583247E+03  0.7546771E-02  0.1025268E+00
         21   -1    0    0  502  501  0.00000000000E+00  0.00000000000E+00  0.68234008107E+03  0.68234008107E+03  0.00000000000E+00 0. -1.
         21   -1    0    0  501  502 -0.00000000000E+00 -0.00000000000E+00 -0.76963651349E+02  0.76963651349E+02  0.00000000000E+00 0. -1.
      99926    2    1    2    0    0  0.71054273576E-14  0.00000000000E+00  0.60537642973E+03  0.75930373242E+03  0.45832470630E+03 0.  0.
      99925    2    3    3    0    0  0.45033398307E+02  0.74041922657E+02  0.25213825136E+03  0.37468062856E+03  0.26325208896E+03 0.  0.
         25    1    4    4    0    0  0.30256101129E+02  0.76641616822E+02  0.15540170400E+03  0.21583921514E+03  0.12509000000E+03 0.  0.
         25    1    4    4    0    0  0.14777297179E+02 -0.25996941652E+01  0.96736547355E+02  0.15884141342E+03  0.12509000000E+03 0.  0.
         25    1    3    3    0    0 -0.45033398307E+02 -0.74041922657E+02  0.35323817837E+03  0.38462310387E+03  0.12509000000E+03 0.  0.
<mgrwt>
<rscale>  2 0.45832471E+03</rscale>
<asrwt>0</asrwt>
<pdfrwt beam="1">  1       21 0.10034413E+00 0.45832471E+03</pdfrwt>
<pdfrwt beam="2">  1       21 0.11318184E-01 0.45832471E+03</pdfrwt>
<totfact> 0.48516814E+04</totfact>
</mgrwt>
</event>
<event>
 7    0  0.4770865E-002  0.4545249E+03  0.7546771E-02  0.1026381E+00
         21   -1    0    0  502  501  0.00000000000E+00  0.00000000000E+00  0.64003053329E+02  0.64003053329E+02  0.00000000000E+00 0.  1.
         21   -1    0    0  501  502 -0.00000000000E+00 -0.00000000000E+00 -0.80696481102E+03  0.80696481102E+03  0.00000000000E+00 0.  1.
      99926    2    1    2    0    0  0.00000000000E+00  0.17763568394E-14 -0.74296175769E+03  0.87096786435E+03  0.45452485888E+03 0.  0.
      99925    2    3    3    0    0 -0.48434115332E+02 -0.14296499735E+02 -0.66086789834E+03  0.71305281353E+03  0.26295946910E+03 0.  0.
         25    1    3    3    0    0  0.48434115332E+02  0.14296499735E+02 -0.82093859348E+02  0.15791505082E+03  0.12509000000E+03 0.  0.
         25    1    4    4    0    0 -0.58325191459E+02 -0.28197513169E+02 -0.37315482181E+03  0.39885957033E+03  0.12509000000E+03 0.  0.
         25    1    4    4    0    0  0.98910761268E+01  0.13901013433E+02 -0.28771307653E+03  0.31419324320E+03  0.12509000000E+03 0.  0.
<mgrwt>
<rscale>  2 0.45452486E+03</rscale>
<asrwt>0</asrwt>
<pdfrwt beam="1">  1       21 0.94122139E-02 0.45452486E+03</pdfrwt>
<pdfrwt beam="2">  1       21 0.11867129E+00 0.45452486E+03</pdfrwt>
<totfact> 0.44678814E+04</totfact>
</mgrwt>
</event>
<event>
 7    0  0.4770865E-002  0.4436109E+03  0.7546771E-02  0.1029645E+00
         21   -1    0    0  502  501  0.00000000000E+00  0.00000000000E+00  0.13941755756E+04  0.13941755756E+04  0.00000000000E+00 0. -1.
         21   -1    0    0  501  502 -0.00000000000E+00 -0.00000000000E+00 -0.35287993805E+02  0.35287993805E+02  0.00000000000E+00 0. -1.
      99926    2    1    2    0    0  0.00000000000E+00  0.71054273576E-14  0.13588875818E+04  0.14294635694E+04  0.44361090642E+03 0.  0.
      99925    2    3    3    0    0  0.51195255511E+02  0.38999725226E+02  0.60954847922E+03  0.66703420776E+03  0.26314131763E+03 0.  0.
         25    1    4    4    0    0  0.35774881484E+02 -0.20165778757E+02  0.29414482114E+03  0.32226570509E+03  0.12509000000E+03 0.  0.
         25    1    3    3    0    0 -0.51195255511E+02 -0.38999725226E+02  0.74933910254E+03  0.76242936162E+03  0.12509000000E+03 0.  0.
         25    1    4    4    0    0  0.15420374028E+02  0.59165503983E+02  0.31540365808E+03  0.34476850266E+03  0.12509000000E+03 0.  0.
<mgrwt>
<rscale>  2 0.44361091E+03</rscale>
<asrwt>0</asrwt>
<pdfrwt beam="1">  1       21 0.20502578E+00 0.44361091E+03</pdfrwt>
<pdfrwt beam="2">  1       21 0.51894118E-02 0.44361091E+03</pdfrwt>
<totfact> 0.27950244E+04</totfact>
</mgrwt>
</event>
<event>
 7    0  0.4770865E-002  0.4545225E+03  0.7546771E-02  0.1026382E+00
         21   -1    0    0  502  501  0.00000000000E+00  0.00000000000E+00  0.47257283540E+02  0.47257283540E+02  0.00000000000E+00 0. -1.
         21   -1    0    0  501  502 -0.00000000000E+00 -0.00000000000E+00 -0.10929039602E+04  0.10929039602E+04  0.00000000000E+00 0. -1.
      99926    2    1    2    0    0  0.00000000000E+00  0.00000000000E+00 -0.10456466766E+04  0.11401612437E+04  0.45452248494E+03 0.  0.
      99925    2    3    3    0    0  0.63337880310E+02 -0.53696383888E+02 -0.84948543446E+03  0.89313547632E+03  0.26300282694E+03 0.  0.
         25    1    4    4    0    0  0.24231063082E+02  0.91698957827E+01 -0.33571486603E+03  0.35919801055E+03  0.12509000000E+03 0.  0.
         25    1    3    3    0    0 -0.63337880310E+02  0.53696383888E+02 -0.19616124217E+03  0.24702576739E+03  0.12509000000E+03 0.  0.
         25    1    4    4    0    0  0.39106817229E+02 -0.62866279670E+02 -0.51377056843E+03  0.53393746577E+03  0.12509000000E+03 0.  0.
<mgrwt>
<rscale>  2 0.45452248E+03</rscale>
<asrwt>0</asrwt>
<pdfrwt beam="1">  1       21 0.69496012E-02 0.45452248E+03</pdfrwt>
<pdfrwt beam="2">  1       21 0.16072116E+00 0.45452248E+03</pdfrwt>
<totfact> 0.34239832E+04</totfact>
</mgrwt>
</event>
<event>
 7    0  0.4770865E-002  0.4535128E+03  0.7546771E-02  0.1026680E+00
         21   -1    0    0  502  501  0.00000000000E+00  0.00000000000E+00  0.53197331339E+03  0.53197331339E+03  0.00000000000E+00 0. -1.
         21   -1    0    0  501  502 -0.00000000000E+00 -0.00000000000E+00 -0.96656115347E+02  0.96656115347E+02  0.00000000000E+00 0. -1.
      99926    2    1    2    0    0 -0.35527136788E-14  0.00000000000E+00  0.43531719804E+03  0.62862942873E+03  0.45351283969E+03 0.  0.
      99925    2    3    3    0    0  0.28127767534E+02 -0.38389863512E+02  0.13371132596E+03  0.29866191048E+03  0.26278368510E+03 0.  0.
         25    1    4    4    0    0 -0.15138739007E+02 -0.35828018136E+00  0.40444369214E+02  0.13233504783E+03  0.12509000000E+03 0.  0.
         25    1    3    3    0    0 -0.28127767534E+02  0.38389863512E+02  0.30160587208E+03  0.32996751825E+03  0.12509000000E+03 0.  0.
         25    1    4    4    0    0  0.43266506540E+02 -0.38031583331E+02  0.93266956744E+02  0.16632686265E+03  0.12509000000E+03 0.  0.
<mgrwt>
<rscale>  2 0.45351284E+03</rscale>
<asrwt>0</asrwt>
<pdfrwt beam="1">  1       21 0.78231368E-01 0.45351284E+03</pdfrwt>
<pdfrwt beam="2">  1       21 0.14214135E-01 0.45351284E+03</pdfrwt>
<totfact> 0.57623296E+04</totfact>
</mgrwt>
</event>
<event>
 7    0  0.4770865E-002  0.4540704E+03  0.7546771E-02  0.1026515E+00
         21   -1    0    0  502  501  0.00000000000E+00  0.00000000000E+00  0.52286346531E+03  0.52286346531E+03  0.00000000000E+00 0.  1.
         21   -1    0    0  501  502 -0.00000000000E+00 -0.00000000000E+00 -0.98582098420E+02  0.98582098420E+02  0.00000000000E+00 0.  1.
      99926    2    1    2    0    0  0.71054273576E-14  0.00000000000E+00  0.42428136689E+03  0.62144556373E+03  0.45407038043E+03 0.  0.
      99925    2    3    3    0    0 -0.42971172068E+02 -0.93655999435E+02  0.20400385055E+03  0.34797223749E+03  0.26239119491E+03 0.  0.
         25    1    4    4    0    0 -0.50827483530E+02 -0.70980336853E+02  0.90513725214E+02  0.17737498091E+03  0.12509000000E+03 0.  0.
         25    1    4    4    0    0  0.78563114618E+01 -0.22675662583E+02  0.11349012534E+03  0.17059725658E+03  0.12509000000E+03 0.  0.
         25    1    3    3    0    0  0.42971172068E+02  0.93655999435E+02  0.22027751633E+03  0.27347332623E+03  0.12509000000E+03 0.  0.
<mgrwt>
<rscale>  2 0.45407038E+03</rscale>
<asrwt>0</asrwt>
<pdfrwt beam="1">  1       21 0.76891685E-01 0.45407038E+03</pdfrwt>
<pdfrwt beam="2">  1       21 0.14497368E-01 0.45407038E+03</pdfrwt>
<totfact> 0.57800392E+04</totfact>
</mgrwt>
</event>
<event>
 7    0  0.4770865E-002  0.4553212E+03  0.7546771E-02  0.1026147E+00
         21   -1    0    0  502  501  0.00000000000E+00  0.00000000000E+00  0.24983311819E+03  0.24983311819E+03  0.00000000000E+00 0. -1.
         21   -1    0    0  501  502 -0.00000000000E+00 -0.00000000000E+00 -0.20745587705E+03  0.20745587705E+03  0.00000000000E+00 0. -1.
      99926    2    1    2    0    0  0.00000000000E+00  0.14210854715E-13  0.42377241138E+02  0.45728899523E+03  0.45532119937E+03 0.  0.
      99925    2    3    3    0    0  0.59880104577E+02 -0.94463744567E+02  0.45836339236E+02  0.28945425681E+03  0.26300906986E+03 0.  0.
         25    1    4    4    0    0  0.47798546961E+02 -0.84662221071E+02  0.39300429028E+02  0.16323119981E+03  0.12509000000E+03 0.  0.
         25    1    3    3    0    0 -0.59880104577E+02  0.94463744567E+02 -0.34590980979E+01  0.16783473842E+03  0.12509000000E+03 0.  0.
         25    1    4    4    0    0  0.12081557616E+02 -0.98015234962E+01  0.65359102078E+01  0.12622305700E+03  0.12509000000E+03 0.  0.
<mgrwt>
<rscale>  2 0.45532120E+03</rscale>
<asrwt>0</asrwt>
<pdfrwt beam="1">  1       21 0.36740164E-01 0.45532120E+03</pdfrwt>
<pdfrwt beam="2">  1       21 0.30508217E-01 0.45532120E+03</pdfrwt>
<totfact> 0.68203484E+04</totfact>
</mgrwt>
</event>
<event>
 7    0  0.4770865E-002  0.4504710E+03  0.7546771E-02  0.1027582E+00
         21   -1    0    0  502  501  0.00000000000E+00  0.00000000000E+00  0.26330897981E+04  0.26330897981E+04  0.00000000000E+00 0. -1.
         21   -1    0    0  501  502 -0.00000000000E+00 -0.00000000000E+00 -0.19266733238E+02  0.19266733238E+02  0.00000000000E+00 0. -1.
      99926    2    1    2    0    0  0.00000000000E+00  0.00000000000E+00  0.26138230648E+04  0.26523565313E+04  0.45047103671E+03 0.  0.
      99925    2    3    3    0    0  0.54785188699E+02 -0.27097465096E+02  0.11202506133E+04  0.11523092435E+04  0.26290581316E+03 0.  0.
         25    1    4    4    0    0  0.50648007317E+02 -0.47490342608E+02  0.60393306186E+03  0.62064740763E+03  0.12509000000E+03 0.  0.
         25    1    4    4    0    0  0.41371813822E+01  0.20392877512E+02  0.51631755145E+03  0.53166183591E+03  0.12509000000E+03 0.  0.
         25    1    3    3    0    0 -0.54785188699E+02  0.27097465096E+02  0.14935724515E+04  0.15000472878E+04  0.12509000000E+03 0.  0.
<mgrwt>
<rscale>  2 0.45047104E+03</rscale>
<asrwt>0</asrwt>
<pdfrwt beam="1">  1       21 0.38721884E+00 0.45047104E+03</pdfrwt>
<pdfrwt beam="2">  1       21 0.28333449E-02 0.45047104E+03</pdfrwt>
<totfact> 0.59002937E+03</totfact>
</mgrwt>
</event>
<event>
 7    0  0.4770865E-002  0.4512757E+03  0.7546771E-02  0.1027342E+00
         21   -1    0    0  502  501  0.00000000000E+00  0.00000000000E+00  0.34132214176E+02  0.34132214176E+02  0.00000000000E+00 0.  1.
         21   -1    0    0  501  502 -0.00000000000E+00 -0.00000000000E+00 -0.14916244192E+04  0.14916244192E+04  0.00000000000E+00 0.  1.
      99926    2    1    2    0    0  0.00000000000E+00  0.71054273576E-14 -0.14574922050E+04  0.15257566334E+04  0.45127572125E+03 0.  0.
      99925    2    3    3    0    0  0.17298130105E+02  0.41629555945E+02 -0.12581738192E+04  0.12861578599E+04  0.26299892770E+03 0.  0.
         25    1    3    3    0    0 -0.17298130105E+02 -0.41629555945E+02 -0.19931838580E+03  0.23959877348E+03  0.12509000000E+03 0.  0.
         25    1    4    4    0    0  0.38690987348E+01 -0.19968911872E+02 -0.60592756724E+03  0.61903913625E+03  0.12509000000E+03 0.  0.
         25    1    4    4    0    0  0.13429031370E+02  0.61598467817E+02 -0.65224625200E+03  0.66711872367E+03  0.12509000000E+03 0.  0.
<mgrwt>
<rscale>  2 0.45127572E+03</rscale>
<asrwt>0</asrwt>
<pdfrwt beam="1">  1       21 0.50194438E-02 0.45127572E+03</pdfrwt>
<pdfrwt beam="2">  1       21 0.21935651E+00 0.45127572E+03</pdfrwt>
<totfact> 0.23836958E+04</totfact>
</mgrwt>
</event>
<event>
 7    0  0.4770865E-002  0.4532255E+03  0.7546771E-02  0.1026765E+00
         21   -1    0    0  502  501  0.00000000000E+00  0.00000000000E+00  0.10464295502E+03  0.10464295502E+03  0.00000000000E+00 0. -1.
         21   -1    0    0  501  502 -0.00000000000E+00 -0.00000000000E+00 -0.49074807233E+03  0.49074807233E+03  0.00000000000E+00 0. -1.
      99926    2    1    2    0    0  0.00000000000E+00  0.00000000000E+00 -0.38610511730E+03  0.59539102735E+03  0.45322545586E+03 0.  0.
      99925    2    3    3    0    0  0.52809520766E+02 -0.69610704100E+02 -0.15228828274E+03  0.31619160788E+03  0.26296561795E+03 0.  0.
         25    1    3    3    0    0 -0.52809520766E+02  0.69610704100E+02 -0.23381683456E+03  0.27919941947E+03  0.12509000000E+03 0.  0.
         25    1    4    4    0    0  0.29331245818E+02 -0.15319005079E+02 -0.11443669174E+03  0.17273754200E+03  0.12509000000E+03 0.  0.
         25    1    4    4    0    0  0.23478274948E+02 -0.54291699021E+02 -0.37851591002E+02  0.14345406588E+03  0.12509000000E+03 0.  0.
<mgrwt>
<rscale>  2 0.45322546E+03</rscale>
<asrwt>0</asrwt>
<pdfrwt beam="1">  1       21 0.15388670E-01 0.45322546E+03</pdfrwt>
<pdfrwt beam="2">  1       21 0.72168834E-01 0.45322546E+03</pdfrwt>
<totfact> 0.59796986E+04</totfact>
</mgrwt>
</event>
<event>
 7    0  0.4770865E-002  0.4587573E+03  0.7546771E-02  0.1025142E+00
         21   -1    0    0  502  501  0.00000000000E+00  0.00000000000E+00  0.97359123828E+02  0.97359123828E+02  0.00000000000E+00 0. -1.
         21   -1    0    0  501  502 -0.00000000000E+00 -0.00000000000E+00 -0.54041736662E+03  0.54041736662E+03  0.00000000000E+00 0. -1.
      99926    2    1    2    0    0  0.00000000000E+00  0.17763568394E-14 -0.44305824280E+03  0.63777649045E+03  0.45875728361E+03 0.  0.
      99925    2    3    3    0    0 -0.11227383306E+03 -0.12834966195E+02 -0.24481612698E+03  0.37755044539E+03  0.26427117291E+03 0.  0.
         25    1    4    4    0    0 -0.44030452881E+02 -0.26528072044E+02 -0.16606746229E+03  0.21416892753E+03  0.12509000000E+03 0.  0.
         25    1    3    3    0    0  0.11227383306E+03  0.12834966195E+02 -0.19824211582E+03  0.26022604507E+03  0.12509000000E+03 0.  0.
         25    1    4    4    0    0 -0.68243380182E+02  0.13693105849E+02 -0.78748664688E+02  0.16338151785E+03  0.12509000000E+03 0.  0.
<mgrwt>
<rscale>  2 0.45875728E+03</rscale>
<asrwt>0</asrwt>
<pdfrwt beam="1">  1       21 0.14317518E-01 0.45875728E+03</pdfrwt>
<pdfrwt beam="2">  1       21 0.79473141E-01 0.45875728E+03</pdfrwt>
<totfact> 0.54768972E+04</totfact>
</mgrwt>
</event>
<event>
 7    0  0.4770865E-002  0.4543036E+03  0.7546771E-02  0.1026446E+00
         21   -1    0    0  502  501  0.00000000000E+00  0.00000000000E+00  0.86450640266E+02  0.86450640266E+02  0.00000000000E+00 0. -1.
         21   -1    0    0  501  502 -0.00000000000E+00 -0.00000000000E+00 -0.59684846358E+03  0.59684846358E+03  0.00000000000E+00 0. -1.
      99926    2    1    2    0    0  0.00000000000E+00  0.00000000000E+00 -0.51039782331E+03  0.68329910385E+03  0.45430356291E+03 0.  0.
      99925    2    3    3    0    0 -0.66451163348E+02 -0.86084179422E+02 -0.36354736507E+03  0.46185202610E+03  0.26327621295E+03 0.  0.
         25    1    4    4    0    0 -0.58743781670E+02 -0.77492621690E+02 -0.18558795751E+03  0.24402118018E+03  0.12509000000E+03 0.  0.
         25    1    3    3    0    0  0.66451163348E+02  0.86084179422E+02 -0.14685045825E+03  0.22144707775E+03  0.12509000000E+03 0.  0.
         25    1    4    4    0    0 -0.77073816785E+01 -0.85915577325E+01 -0.17795940756E+03  0.21783084592E+03  0.12509000000E+03 0.  0.
<mgrwt>
<rscale>  2 0.45430356E+03</rscale>
<asrwt>0</asrwt>
<pdfrwt beam="1">  1       21 0.12713330E-01 0.45430356E+03</pdfrwt>
<pdfrwt beam="2">  1       21 0.87771831E-01 0.45430356E+03</pdfrwt>
<totfact> 0.54115535E+04</totfact>
</mgrwt>
</event>
<event>
 7    0  0.4770865E-002  0.4230575E+03  0.7546771E-02  0.1036076E+00
         21   -1    0    0  502  501  0.00000000000E+00  0.00000000000E+00  0.52310915070E+03  0.52310915070E+03  0.00000000000E+00 0. -1.
         21   -1    0    0  501  502 -0.00000000000E+00 -0.00000000000E+00 -0.85535527918E+02  0.85535527918E+02  0.00000000000E+00 0. -1.
      99926    2    1    2    0    0  0.88817841970E-15 -0.71054273576E-14  0.43757362278E+03  0.60864467861E+03  0.42305752499E+03 0.  0.
      99925    2    3    3    0    0  0.76353916170E+01  0.44737034367E+02  0.37831487873E+03  0.46297790720E+03  0.26299561524E+03 0.  0.
         25    1    4    4    0    0  0.19722058571E+02 -0.14304015082E+02  0.16569443215E+03  0.20903520610E+03  0.12509000000E+03 0.  0.
         25    1    3    3    0    0 -0.76353916170E+01 -0.44737034367E+02  0.59258744046E+02  0.14566677142E+03  0.12509000000E+03 0.  0.
         25    1    4    4    0    0 -0.12086666954E+02  0.59041049450E+02  0.21262044658E+03  0.25394270110E+03  0.12509000000E+03 0.  0.
<mgrwt>
<rscale>  2 0.42305752E+03</rscale>
<asrwt>0</asrwt>
<pdfrwt beam="1">  1       21 0.76927815E-01 0.42305752E+03</pdfrwt>
<pdfrwt beam="2">  1       21 0.12578754E-01 0.42305752E+03</pdfrwt>
<totfact> 0.75456522E+04</totfact>
</mgrwt>
</event>
<event>
 7    0  0.4770865E-002  0.4553564E+03  0.7546771E-02  0.1026137E+00
         21   -1    0    0  502  501  0.00000000000E+00  0.00000000000E+00  0.15925082159E+04  0.15925082159E+04  0.00000000000E+00 0.  1.
         21   -1    0    0  501  502 -0.00000000000E+00 -0.00000000000E+00 -0.32550764199E+02  0.32550764199E+02  0.00000000000E+00 0.  1.
      99926    2    1    2    0    0  0.00000000000E+00  0.88817841970E-15  0.15599574517E+04  0.16250589801E+04  0.45535638536E+03 0.  0.
      99925    2    3    3    0    0 -0.11068232293E+03  0.68363369753E+01  0.89725966395E+03  0.94160219426E+03  0.26313965034E+03 0.  0.
         25    1    3    3    0    0  0.11068232293E+03 -0.68363369753E+01  0.66269778779E+03  0.68345678587E+03  0.12509000000E+03 0.  0.
         25    1    4    4    0    0 -0.71512663996E+02 -0.22319987901E+02  0.55795556191E+03  0.57669243115E+03  0.12509000000E+03 0.  0.
         25    1    4    4    0    0 -0.39169658931E+02  0.29156324876E+02  0.33930410203E+03  0.36490976312E+03  0.12509000000E+03 0.  0.
<mgrwt>
<rscale>  2 0.45535639E+03</rscale>
<asrwt>0</asrwt>
<pdfrwt beam="1">  1       21 0.23419233E+00 0.45535639E+03</pdfrwt>
<pdfrwt beam="2">  1       21 0.47868782E-02 0.45535639E+03</pdfrwt>
<totfact> 0.20811740E+04</totfact>
</mgrwt>
</event>
<event>
 7    0  0.4770865E-002  0.4813216E+03  0.7546771E-02  0.1018773E+00
         21   -1    0    0  502  501  0.00000000000E+00  0.00000000000E+00  0.23012519960E+03  0.23012519960E+03  0.00000000000E+00 0.  1.
         21   -1    0    0  501  502 -0.00000000000E+00 -0.00000000000E+00 -0.25167877013E+03  0.25167877013E+03  0.00000000000E+00 0.  1.
      99926    2    1    2    0    0  0.14210854715E-13  0.00000000000E+00 -0.21553570533E+02  0.48180396973E+03  0.48132162724E+03 0.  0.
      99925    2    3    3    0    0 -0.10551167703E+03 -0.86158273201E+02 -0.20201766552E+02  0.29685722738E+03  0.26298315544E+03 0.  0.
         25    1    4    4    0    0 -0.60916272511E+02 -0.16647930856E+02  0.20298206200E+02  0.14158909257E+03  0.12509000000E+03 0.  0.
         25    1    3    3    0    0  0.10551167703E+03  0.86158273201E+02 -0.13518039812E+01  0.18494674235E+03  0.12509000000E+03 0.  0.
         25    1    4    4    0    0 -0.44595404523E+02 -0.69510342345E+02 -0.40499972752E+02  0.15526813482E+03  0.12509000000E+03 0.  0.
<mgrwt>
<rscale>  2 0.48132163E+03</rscale>
<asrwt>0</asrwt>
<pdfrwt beam="1">  1       21 0.33841941E-01 0.48132163E+03</pdfrwt>
<pdfrwt beam="2">  1       21 0.37011584E-01 0.48132163E+03</pdfrwt>
<totfact> 0.54294590E+04</totfact>
</mgrwt>
</event>
<event>
 7    0  0.4770865E-002  0.4508317E+03  0.7546771E-02  0.1027474E+00
         21   -1    0    0  502  501  0.00000000000E+00  0.00000000000E+00  0.57160041417E+03  0.57160041417E+03  0.00000000000E+00 0. -1.
         21   -1    0    0  501  502 -0.00000000000E+00 -0.00000000000E+00 -0.88894789268E+02  0.88894789268E+02  0.00000000000E+00 0. -1.
      99926    2    1    2    0    0  0.00000000000E+00  0.00000000000E+00  0.48270562490E+03  0.66049520344E+03  0.45083166864E+03 0.  0.
      99925    2    3    3    0    0 -0.10267129404E+03 -0.36576581229E+02  0.31087538659E+03  0.42163880345E+03  0.26316636121E+03 0.  0.
         25    1    3    3    0    0  0.10267129404E+03  0.36576581229E+02  0.17183023831E+03  0.23885639999E+03  0.12509000000E+03 0.  0.
         25    1    4    4    0    0 -0.27790688838E+02 -0.19774450844E+02  0.95559726420E+02  0.16106682062E+03  0.12509000000E+03 0.  0.
         25    1    4    4    0    0 -0.74880605207E+02 -0.16802130386E+02  0.21531566017E+03  0.26057198283E+03  0.12509000000E+03 0.  0.
<mgrwt>
<rscale>  2 0.45083167E+03</rscale>
<asrwt>0</asrwt>
<pdfrwt beam="1">  1       21 0.84058882E-01 0.45083167E+03</pdfrwt>
<pdfrwt beam="2">  1       21 0.13072763E-01 0.45083167E+03</pdfrwt>
<totfact> 0.56949243E+04</totfact>
</mgrwt>
</event>
<event>
 7    0  0.4770865E-002  0.4527305E+03  0.7546771E-02  0.1026911E+00
         21   -1    0    0  502  501  0.00000000000E+00  0.00000000000E+00  0.70464166848E+03  0.70464166848E+03  0.00000000000E+00 0.  1.
         21   -1    0    0  501  502 -0.00000000000E+00 -0.00000000000E+00 -0.72719548826E+02  0.72719548826E+02  0.00000000000E+00 0.  1.
      99926    2    1    2    0    0 -0.17763568394E-14  0.00000000000E+00  0.63192211966E+03  0.77736121731E+03  0.45273049032E+03 0.  0.
      99925    2    3    3    0    0 -0.91584052645E+01  0.11033360396E+03  0.38344583305E+03  0.47795287799E+03  0.26296552272E+03 0.  0.
         25    1    3    3    0    0  0.91584052645E+01 -0.11033360396E+03  0.24847628660E+03  0.29940833932E+03  0.12509000000E+03 0.  0.
         25    1    4    4    0    0 -0.13945764025E+02  0.20529345471E+02  0.13577451242E+03  0.18627443378E+03  0.12509000000E+03 0.  0.
         25    1    4    4    0    0  0.47873587607E+01  0.89804258492E+02  0.24767132063E+03  0.29167844420E+03  0.12509000000E+03 0.  0.
<mgrwt>
<rscale>  2 0.45273049E+03</rscale>
<asrwt>0</asrwt>
<pdfrwt beam="1">  1       21 0.10362377E+00 0.45273049E+03</pdfrwt>
<pdfrwt beam="2">  1       21 0.10694052E-01 0.45273049E+03</pdfrwt>
<totfact> 0.49759885E+04</totfact>
</mgrwt>
</event>
<event>
 7    0  0.4770865E-002  0.4538763E+03  0.7546771E-02  0.1026572E+00
         21   -1    0    0  502  501  0.00000000000E+00  0.00000000000E+00  0.10256875450E+03  0.10256875450E+03  0.00000000000E+00 0.  1.
         21   -1    0    0  501  502 -0.00000000000E+00 -0.00000000000E+00 -0.50211118288E+03  0.50211118288E+03  0.00000000000E+00 0.  1.
      99926    2    1    2    0    0 -0.71054273576E-14  0.71054273576E-14 -0.39954242838E+03  0.60467993738E+03  0.45387627674E+03 0.  0.
      99925    2    3    3    0    0 -0.55426958734E+02  0.29395853999E+02 -0.12789095934E+03  0.29910131784E+03  0.26300045031E+03 0.  0.
         25    1    4    4    0    0 -0.30956354852E+02 -0.10209995386E+02 -0.27682748367E+02  0.13219826992E+03  0.12509000000E+03 0.  0.
         25    1    3    3    0    0  0.55426958734E+02 -0.29395853999E+02 -0.27165146904E+03  0.30557861954E+03  0.12509000000E+03 0.  0.
         25    1    4    4    0    0 -0.24470603883E+02  0.39605849385E+02 -0.10020821097E+03  0.16690304793E+03  0.12509000000E+03 0.  0.
<mgrwt>
<rscale>  2 0.45387628E+03</rscale>
<asrwt>0</asrwt>
<pdfrwt beam="1">  1       21 0.15083640E-01 0.45387628E+03</pdfrwt>
<pdfrwt beam="2">  1       21 0.73839880E-01 0.45387628E+03</pdfrwt>
<totfact> 0.58912386E+04</totfact>
</mgrwt>
</event>
<event>
 7    0  0.4770865E-002  0.4588442E+03  0.7546771E-02  0.1025117E+00
         21   -1    0    0  502  501  0.00000000000E+00  0.00000000000E+00  0.12978948426E+03  0.12978948426E+03  0.00000000000E+00 0. -1.
         21   -1    0    0  501  502 -0.00000000000E+00 -0.00000000000E+00 -0.40553748160E+03  0.40553748160E+03  0.00000000000E+00 0. -1.
      99926    2    1    2    0    0  0.88817841970E-15 -0.14210854715E-13 -0.27574799734E+03  0.53532696586E+03  0.45884420268E+03 0.  0.
      99925    2    3    3    0    0 -0.55224801976E+01  0.11233382837E+03 -0.13684846959E+03  0.31717570253E+03  0.26310365991E+03 0.  0.
         25    1    4    4    0    0  0.31913760932E+01  0.99809406521E+02 -0.79682002118E+02  0.17879829997E+03  0.12509000000E+03 0.  0.
         25    1    3    3    0    0  0.55224801976E+01 -0.11233382837E+03 -0.13889952775E+03  0.21815126333E+03  0.12509000000E+03 0.  0.
         25    1    4    4    0    0 -0.87138562907E+01  0.12524421848E+02 -0.57166467473E+02  0.13837740255E+03  0.12509000000E+03 0.  0.
<mgrwt>
<rscale>  2 0.45884420E+03</rscale>
<asrwt>0</asrwt>
<pdfrwt beam="1">  1       21 0.19086689E-01 0.45884420E+03</pdfrwt>
<pdfrwt beam="2">  1       21 0.59637864E-01 0.45884420E+03</pdfrwt>
<totfact> 0.60968532E+04</totfact>
</mgrwt>
</event>
<event>
 7    0  0.4770865E-002  0.4523367E+03  0.7546771E-02  0.1027028E+00
         21   -1    0    0  502  501  0.00000000000E+00  0.00000000000E+00  0.15833933966E+03  0.15833933966E+03  0.00000000000E+00 0. -1.
         21   -1    0    0  501  502 -0.00000000000E+00 -0.00000000000E+00 -0.32305376591E+03  0.32305376591E+03  0.00000000000E+00 0. -1.
      99926    2    1    2    0    0  0.00000000000E+00 -0.71054273576E-14 -0.16471442625E+03  0.48139310557E+03  0.45233668862E+03 0.  0.
      99925    2    3    3    0    0 -0.75929333088E+02  0.56085107586E+02 -0.16530746471E+03  0.32468106803E+03  0.26302173889E+03 0.  0.
         25    1    4    4    0    0 -0.65171235516E+02  0.45108240227E+02 -0.57592553886E+02  0.15889132650E+03  0.12509000000E+03 0.  0.
         25    1    3    3    0    0  0.75929333088E+02 -0.56085107586E+02  0.59303846030E+00  0.15671203754E+03  0.12509000000E+03 0.  0.
         25    1    4    4    0    0 -0.10758097572E+02  0.10976867358E+02 -0.10771491083E+03  0.16578974152E+03  0.12509000000E+03 0.  0.
<mgrwt>
<rscale>  2 0.45233669E+03</rscale>
<asrwt>0</asrwt>
<pdfrwt beam="1">  1       21 0.23285197E-01 0.45233669E+03</pdfrwt>
<pdfrwt beam="2">  1       21 0.47507906E-01 0.45233669E+03</pdfrwt>
<totfact> 0.68025663E+04</totfact>
</mgrwt>
</event>
<event>
 7    0  0.4770865E-002  0.4492250E+03  0.7546771E-02  0.1027953E+00
         21   -1    0    0  502  501  0.00000000000E+00  0.00000000000E+00  0.71892720105E+02  0.71892720105E+02  0.00000000000E+00 0.  1.
         21   -1    0    0  501  502 -0.00000000000E+00 -0.00000000000E+00 -0.70175090121E+03  0.70175090121E+03  0.00000000000E+00 0.  1.
      99926    2    1    2    0    0  0.00000000000E+00  0.00000000000E+00 -0.62985818110E+03  0.77364362132E+03  0.44922502657E+03 0.  0.
      99925    2    3    3    0    0 -0.33660014143E+02  0.64882575990E+02 -0.53468893375E+03  0.60030165017E+03  0.26292027328E+03 0.  0.
         25    1    4    4    0    0  0.17722450455E+02  0.30435077936E+02 -0.21093988059E+03  0.24775697880E+03  0.12509000000E+03 0.  0.
         25    1    3    3    0    0  0.33660014143E+02 -0.64882575990E+02 -0.95169247355E+02  0.17334197115E+03  0.12509000000E+03 0.  0.
         25    1    4    4    0    0 -0.51382464598E+02  0.34447498054E+02 -0.32374905316E+03  0.35254467137E+03  0.12509000000E+03 0.  0.
<mgrwt>
<rscale>  2 0.44922503E+03</rscale>
<asrwt>0</asrwt>
<pdfrwt beam="1">  1       21 0.10572459E-01 0.44922503E+03</pdfrwt>
<pdfrwt beam="2">  1       21 0.10319866E+00 0.44922503E+03</pdfrwt>
<totfact> 0.51354836E+04</totfact>
</mgrwt>
</event>
<event>
 7    0  0.4770865E-002  0.4566820E+03  0.7546771E-02  0.1025748E+00
         21   -1    0    0  502  501  0.00000000000E+00  0.00000000000E+00  0.32224727429E+03  0.32224727429E+03  0.00000000000E+00 0. -1.
         21   -1    0    0  501  502 -0.00000000000E+00 -0.00000000000E+00 -0.16180003778E+03  0.16180003778E+03  0.00000000000E+00 0. -1.
      99926    2    1    2    0    0  0.00000000000E+00  0.00000000000E+00  0.16044723651E+03  0.48404731207E+03  0.45668203886E+03 0.  0.
      99925    2    3    3    0    0 -0.62069938390E+02  0.46465008105E+02  0.19042488171E+03  0.33385463068E+03  0.26303156584E+03 0.  0.
         25    1    4    4    0    0 -0.71785273104E+02  0.19562993227E+02  0.10969384084E+03  0.18225279958E+03  0.12509000000E+03 0.  0.
         25    1    3    3    0    0  0.62069938390E+02 -0.46465008105E+02 -0.29977645199E+02  0.15019268139E+03  0.12509000000E+03 0.  0.
         25    1    4    4    0    0  0.97153347142E+01  0.26902014878E+02  0.80731040868E+02  0.15160183110E+03  0.12509000000E+03 0.  0.
<mgrwt>
<rscale>  2 0.45668204E+03</rscale>
<asrwt>0</asrwt>
<pdfrwt beam="1">  1       21 0.47389305E-01 0.45668204E+03</pdfrwt>
<pdfrwt beam="2">  1       21 0.23794123E-01 0.45668204E+03</pdfrwt>
<totfact> 0.65527336E+04</totfact>
</mgrwt>
</event>
<event>
 7    0  0.4770865E-002  0.4613186E+03  0.7546771E-02  0.1024399E+00
         21   -1    0    0  502  501  0.00000000000E+00  0.00000000000E+00  0.21378792447E+03  0.21378792447E+03  0.00000000000E+00 0.  1.
         21   -1    0    0  501  502 -0.00000000000E+00 -0.00000000000E+00 -0.24886214394E+03  0.24886214394E+03  0.00000000000E+00 0.  1.
      99926    2    1    2    0    0  0.00000000000E+00 -0.88817841970E-15 -0.35074219475E+02  0.46265006841E+03  0.46131863709E+03 0.  0.
      99925    2    3    3    0    0 -0.10929511414E+03 -0.51797933347E+01 -0.68776108796E+02  0.29307537196E+03  0.26304138130E+03 0.  0.
         25    1    4    4    0    0 -0.13645313963E+02  0.40534949505E+01 -0.44213489793E+02  0.13343525094E+03  0.12509000000E+03 0.  0.
         25    1    4    4    0    0 -0.95649800175E+02 -0.92332882852E+01 -0.24562619003E+02  0.15964012102E+03  0.12509000000E+03 0.  0.
         25    1    3    3    0    0  0.10929511414E+03  0.51797933347E+01  0.33701889321E+02  0.16957469645E+03  0.12509000000E+03 0.  0.
<mgrwt>
<rscale>  2 0.46131864E+03</rscale>
<asrwt>0</asrwt>
<pdfrwt beam="1">  1       21 0.31439401E-01 0.46131864E+03</pdfrwt>
<pdfrwt beam="2">  1       21 0.36597374E-01 0.46131864E+03</pdfrwt>
<totfact> 0.64666814E+04</totfact>
</mgrwt>
</event>
<event>
 7    0  0.4770865E-002  0.4420347E+03  0.7546771E-02  0.1030124E+00
         21   -1    0    0  502  501  0.00000000000E+00  0.00000000000E+00  0.29123556366E+03  0.29123556366E+03  0.00000000000E+00 0. -1.
         21   -1    0    0  501  502 -0.00000000000E+00 -0.00000000000E+00 -0.16772905596E+03  0.16772905596E+03  0.00000000000E+00 0. -1.
      99926    2    1    2    0    0  0.71054273576E-14  0.00000000000E+00  0.12350650770E+03  0.45896461962E+03  0.44203468712E+03 0.  0.
      99925    2    3    3    0    0  0.60479054197E+02 -0.48827464129E+02  0.14499054590E+03  0.31013280432E+03  0.26290351969E+03 0.  0.
         25    1    4    4    0    0 -0.16730676584E+01 -0.10572860995E+02  0.93075852019E+02  0.15628565793E+03  0.12509000000E+03 0.  0.
         25    1    4    4    0    0  0.62152121856E+02 -0.38254603134E+02  0.51914693877E+02  0.15384714639E+03  0.12509000000E+03 0.  0.
         25    1    3    3    0    0 -0.60479054197E+02  0.48827464129E+02 -0.21484038193E+02  0.14883181530E+03  0.12509000000E+03 0.  0.
<mgrwt>
<rscale>  2 0.44203469E+03</rscale>
<asrwt>0</asrwt>
<pdfrwt beam="1">  1       21 0.42828759E-01 0.44203469E+03</pdfrwt>
<pdfrwt beam="2">  1       21 0.24666038E-01 0.44203469E+03</pdfrwt>
<totfact> 0.75762891E+04</totfact>
</mgrwt>
</event>
<event>
 7    0  0.4770865E-002  0.4554880E+03  0.7546771E-02  0.1026098E+00
         21   -1    0    0  502  501  0.00000000000E+00  0.00000000000E+00  0.13966319802E+03  0.13966319802E+03  0.00000000000E+00 0. -1.
         21   -1    0    0  501  502 -0.00000000000E+00 -0.00000000000E+00 -0.37137431496E+03  0.37137431496E+03  0.00000000000E+00 0. -1.
      99926    2    1    2    0    0  0.14210854715E-13 -0.71054273576E-14 -0.23171111693E+03  0.51103751298E+03  0.45548797784E+03 0.  0.
      99925    2    3    3    0    0 -0.72262687600E+02  0.59934587293E+02 -0.21758153716E+03  0.35399865187E+03  0.26298150019E+03 0.  0.
         25    1    4    4    0    0 -0.31744481785E+02  0.10750629357E+02 -0.59310707362E+02  0.14243790318E+03  0.12509000000E+03 0.  0.
         25    1    4    4    0    0 -0.40518205815E+02  0.49183957936E+02 -0.15827082980E+03  0.21156074869E+03  0.12509000000E+03 0.  0.
         25    1    3    3    0    0  0.72262687600E+02 -0.59934587293E+02 -0.14129579772E+02  0.15703886111E+03  0.12509000000E+03 0.  0.
<mgrwt>
<rscale>  2 0.45548798E+03</rscale>
<asrwt>0</asrwt>
<pdfrwt beam="1">  1       21 0.20538706E-01 0.45548798E+03</pdfrwt>
<pdfrwt beam="2">  1       21 0.54613869E-01 0.45548798E+03</pdfrwt>
<totfact> 0.64252802E+04</totfact>
</mgrwt>
</event>
<event>
 7    0  0.4770865E-002  0.4527844E+03  0.7546771E-02  0.1026895E+00
         21   -1    0    0  502  501  0.00000000000E+00  0.00000000000E+00  0.58963025076E+03  0.58963025076E+03  0.00000000000E+00 0. -1.
         21   -1    0    0  501  502 -0.00000000000E+00 -0.00000000000E+00 -0.86924680460E+02  0.86924680460E+02  0.00000000000E+00 0. -1.
      99926    2    1    2    0    0  0.00000000000E+00  0.00000000000E+00  0.50270557031E+03  0.67655493122E+03  0.45278436871E+03 0.  0.
      99925    2    3    3    0    0 -0.61971116101E+02 -0.92142274822E+02  0.31250644700E+03  0.42326886243E+03  0.26299359773E+03 0.  0.
         25    1    4    4    0    0  0.12157352446E+01 -0.44358158935E+02  0.10987790728E+03  0.17230724559E+03  0.12509000000E+03 0.  0.
         25    1    4    4    0    0 -0.63186851346E+02 -0.47784115888E+02  0.20262853973E+03  0.25096161684E+03  0.12509000000E+03 0.  0.
         25    1    3    3    0    0  0.61971116101E+02  0.92142274822E+02  0.19019912330E+03  0.25328606879E+03  0.12509000000E+03 0.  0.
<mgrwt>
<rscale>  2 0.45278437E+03</rscale>
<asrwt>0</asrwt>
<pdfrwt beam="1">  1       21 0.86710329E-01 0.45278437E+03</pdfrwt>
<pdfrwt beam="2">  1       21 0.12783042E-01 0.45278437E+03</pdfrwt>
<totfact> 0.55151038E+04</totfact>
</mgrwt>
</event>
<event>
 7    0  0.4770865E-002  0.4454032E+03  0.7546771E-02  0.1029102E+00
         21   -1    0    0  502  501  0.00000000000E+00  0.00000000000E+00  0.67382624558E+02  0.67382624558E+02  0.00000000000E+00 0.  1.
         21   -1    0    0  501  502 -0.00000000000E+00 -0.00000000000E+00 -0.73603552367E+03  0.73603552367E+03  0.00000000000E+00 0.  1.
      99926    2    1    2    0    0  0.00000000000E+00  0.17763568394E-14 -0.66865289912E+03  0.80341814823E+03  0.44540321217E+03 0.  0.
      99925    2    3    3    0    0 -0.23065837253E+02 -0.14775329384E+02 -0.60433074871E+03  0.66011710030E+03  0.26417529987E+03 0.  0.
         25    1    3    3    0    0  0.23065837253E+02  0.14775329384E+02 -0.64322150409E+02  0.14330104794E+03  0.12509000000E+03 0.  0.
         25    1    4    4    0    0 -0.43213027716E+02 -0.20239357673E+02 -0.37307057128E+03  0.39636619006E+03  0.12509000000E+03 0.  0.
         25    1    4    4    0    0  0.20147190463E+02  0.54640282889E+01 -0.23126017742E+03  0.26375091024E+03  0.12509000000E+03 0.  0.
<mgrwt>
<rscale>  2 0.44540321E+03</rscale>
<asrwt>0</asrwt>
<pdfrwt beam="1">  1       21 0.99092089E-02 0.44540321E+03</pdfrwt>
<pdfrwt beam="2">  1       21 0.10824052E+00 0.44540321E+03</pdfrwt>
<totfact> 0.51360096E+04</totfact>
</mgrwt>
</event>
<event>
 7    0  0.4770865E-002  0.4521169E+03  0.7546771E-02  0.1027093E+00
         21   -1    0    0  502  501  0.00000000000E+00  0.00000000000E+00  0.69302020964E+02  0.69302020964E+02  0.00000000000E+00 0. -1.
         21   -1    0    0  501  502 -0.00000000000E+00 -0.00000000000E+00 -0.73738709597E+03  0.73738709597E+03  0.00000000000E+00 0. -1.
      99926    2    1    2    0    0  0.00000000000E+00  0.00000000000E+00 -0.66808507500E+03  0.80668911693E+03  0.45211686977E+03 0.  0.
      99925    2    3    3    0    0  0.77628213413E+02  0.78429093420E+02 -0.43151109382E+03  0.51722060589E+03  0.26294118897E+03 0.  0.
         25    1    4    4    0    0  0.20890520075E+02  0.58218127744E+02 -0.27232556462E+03  0.30599752527E+03  0.12509000000E+03 0.  0.
         25    1    4    4    0    0  0.56737693338E+02  0.20210965676E+02 -0.15918552920E+03  0.21122308062E+03  0.12509000000E+03 0.  0.
         25    1    3    3    0    0 -0.77628213413E+02 -0.78429093420E+02 -0.23657398118E+03  0.28946851104E+03  0.12509000000E+03 0.  0.
<mgrwt>
<rscale>  2 0.45211687E+03</rscale>
<asrwt>0</asrwt>
<pdfrwt beam="1">  1       21 0.10191474E-01 0.45211687E+03</pdfrwt>
<pdfrwt beam="2">  1       21 0.10843927E+00 0.45211687E+03</pdfrwt>
<totfact> 0.48531722E+04</totfact>
</mgrwt>
</event>
<event>
 7    0  0.4770865E-002  0.4548485E+03  0.7546771E-02  0.1026286E+00
         21   -1    0    0  502  501  0.00000000000E+00  0.00000000000E+00  0.67577878400E+03  0.67577878400E+03  0.00000000000E+00 0. -1.
         21   -1    0    0  501  502 -0.00000000000E+00 -0.00000000000E+00 -0.76536556977E+02  0.76536556977E+02  0.00000000000E+00 0. -1.
      99926    2    1    2    0    0 -0.17763568394E-14  0.00000000000E+00  0.59924222702E+03  0.75231534098E+03  0.45484846446E+03 0.  0.
      99925    2    3    3    0    0 -0.10267495351E+02 -0.11180770863E+03  0.40040505126E+03  0.49194999049E+03  0.26283873934E+03 0.  0.
         25    1    3    3    0    0  0.10267495351E+02  0.11180770863E+03  0.19883717576E+03  0.26036535049E+03  0.12509000000E+03 0.  0.
         25    1    4    4    0    0  0.31668558207E+02 -0.50366446375E+02  0.16806630293E+03  0.21779225602E+03  0.12509000000E+03 0.  0.
         25    1    4    4    0    0 -0.41936053559E+02 -0.61441262257E+02  0.23233874833E+03  0.27415773447E+03  0.12509000000E+03 0.  0.
<mgrwt>
<rscale>  2 0.45484846E+03</rscale>
<asrwt>0</asrwt>
<pdfrwt beam="1">  1       21 0.99379230E-01 0.45484846E+03</pdfrwt>
<pdfrwt beam="2">  1       21 0.11255376E-01 0.45484846E+03</pdfrwt>
<totfact> 0.50212692E+04</totfact>
</mgrwt>
</event>
<event>
 7    0  0.4770865E-002  0.4558297E+03  0.7546771E-02  0.1025998E+00
         21   -1    0    0  502  501  0.00000000000E+00  0.00000000000E+00  0.51224620628E+03  0.51224620628E+03  0.00000000000E+00 0.  1.
         21   -1    0    0  501  502 -0.00000000000E+00 -0.00000000000E+00 -0.10140665166E+03  0.10140665166E+03  0.00000000000E+00 0.  1.
      99926    2    1    2    0    0 -0.71054273576E-14 -0.14210854715E-13  0.41083955461E+03  0.61365285794E+03  0.45582967260E+03 0.  0.
      99925    2    3    3    0    0  0.53233179549E+02  0.64270787676E+02  0.36260312533E+03  0.45573273014E+03  0.26314784680E+03 0.  0.
         25    1    4    4    0    0  0.13033067918E+01  0.35516909450E+02  0.12297557014E+03  0.17897946368E+03  0.12509000000E+03 0.  0.
         25    1    4    4    0    0  0.51929872757E+02  0.28753878227E+02  0.23962755518E+03  0.27675326647E+03  0.12509000000E+03 0.  0.
         25    1    3    3    0    0 -0.53233179549E+02 -0.64270787676E+02  0.48236429289E+02  0.15792012780E+03  0.12509000000E+03 0.  0.
<mgrwt>
<rscale>  2 0.45582967E+03</rscale>
<asrwt>0</asrwt>
<pdfrwt beam="1">  1       21 0.75330323E-01 0.45582967E+03</pdfrwt>
<pdfrwt beam="2">  1       21 0.14912743E-01 0.45582967E+03</pdfrwt>
<totfact> 0.57468168E+04</totfact>
</mgrwt>
</event>
<event>
 7    0  0.4770865E-002  0.4583885E+03  0.7546771E-02  0.1025250E+00
         21   -1    0    0  502  501  0.00000000000E+00  0.00000000000E+00  0.41134984021E+03  0.41134984021E+03  0.00000000000E+00 0. -1.
         21   -1    0    0  501  502 -0.00000000000E+00 -0.00000000000E+00 -0.12770150929E+03  0.12770150929E+03  0.00000000000E+00 0. -1.
      99926    2    1    2    0    0  0.00000000000E+00  0.71054273576E-14  0.28364833092E+03  0.53905134950E+03  0.45838846164E+03 0.  0.
      99925    2    3    3    0    0 -0.64261092446E+02  0.53864232501E+02  0.27277344913E+03  0.38806587106E+03  0.26298083996E+03 0.  0.
         25    1    4    4    0    0 -0.38445809629E+02  0.73238175105E+01  0.18323309613E+03  0.22528558365E+03  0.12509000000E+03 0.  0.
         25    1    4    4    0    0 -0.25815282817E+02  0.46540414991E+02  0.89540352997E+02  0.16278028741E+03  0.12509000000E+03 0.  0.
         25    1    3    3    0    0  0.64261092446E+02 -0.53864232501E+02  0.10874881787E+02  0.15098547844E+03  0.12509000000E+03 0.  0.
<mgrwt>
<rscale>  2 0.45838846E+03</rscale>
<asrwt>0</asrwt>
<pdfrwt beam="1">  1       21 0.60492623E-01 0.45838846E+03</pdfrwt>
<pdfrwt beam="2">  1       21 0.18779634E-01 0.45838846E+03</pdfrwt>
<totfact> 0.60944779E+04</totfact>
</mgrwt>
</event>
<event>
 7    0  0.4770865E-002  0.4588413E+03  0.7546771E-02  0.1025118E+00
         21   -1    0    0  502  501  0.00000000000E+00  0.00000000000E+00  0.25473681654E+03  0.25473681654E+03  0.00000000000E+00 0.  1.
         21   -1    0    0  501  502 -0.00000000000E+00 -0.00000000000E+00 -0.20662043093E+03  0.20662043093E+03  0.00000000000E+00 0.  1.
      99926    2    1    2    0    0  0.00000000000E+00  0.00000000000E+00  0.48116385614E+02  0.46135724747E+03  0.45884128326E+03 0.  0.
      99925    2    3    3    0    0 -0.67079678804E+02  0.24453568984E+02  0.12335889619E+03  0.29885615872E+03  0.26267836986E+03 0.  0.
         25    1    4    4    0    0  0.25836859908E+01  0.25186794835E+02  0.43060555453E+02  0.13469509866E+03  0.12509000000E+03 0.  0.
         25    1    4    4    0    0 -0.69663364795E+02 -0.73322585075E+00  0.80298340741E+02  0.16416106006E+03  0.12509000000E+03 0.  0.
         25    1    3    3    0    0  0.67079678804E+02 -0.24453568984E+02 -0.75242510580E+02  0.16250108874E+03  0.12509000000E+03 0.  0.
<mgrwt>
<rscale>  2 0.45884128E+03</rscale>
<asrwt>0</asrwt>
<pdfrwt beam="1">  1       21 0.37461297E-01 0.45884128E+03</pdfrwt>
<pdfrwt beam="2">  1       21 0.30385357E-01 0.45884128E+03</pdfrwt>
<totfact> 0.66035361E+04</totfact>
</mgrwt>
</event>
<event>
 7    0  0.4770865E-002  0.4471296E+03  0.7546771E-02  0.1028581E+00
         21   -1    0    0  502  501  0.00000000000E+00  0.00000000000E+00  0.23009148525E+03  0.23009148525E+03  0.00000000000E+00 0.  1.
         21   -1    0    0  501  502 -0.00000000000E+00 -0.00000000000E+00 -0.21722329203E+03  0.21722329203E+03  0.00000000000E+00 0.  1.
      99926    2    1    2    0    0  0.00000000000E+00  0.00000000000E+00  0.12868193227E+02  0.44731477728E+03  0.44712964516E+03 0.  0.
      99925    2    3    3    0    0  0.10018560158E+03 -0.18027956414E+02  0.36413252896E+02  0.28432999299E+03  0.26297425340E+03 0.  0.
         25    1    3    3    0    0 -0.10018560158E+03  0.18027956414E+02 -0.23545059669E+02  0.16298478429E+03  0.12509000000E+03 0.  0.
         25    1    4    4    0    0  0.37367779993E+02 -0.38347364390E+02 -0.73623756351E+01  0.13626659170E+03  0.12509000000E+03 0.  0.
         25    1    4    4    0    0  0.62817821587E+02  0.20319407977E+02  0.43775628531E+02  0.14806340129E+03  0.12509000000E+03 0.  0.
<mgrwt>
<rscale>  2 0.44712965E+03</rscale>
<asrwt>0</asrwt>
<pdfrwt beam="1">  1       21 0.33836983E-01 0.44712965E+03</pdfrwt>
<pdfrwt beam="2">  1       21 0.31944602E-01 0.44712965E+03</pdfrwt>
<totfact> 0.73628685E+04</totfact>
</mgrwt>
</event>
<event>
 7    0  0.4770865E-002  0.4555608E+03  0.7546771E-02  0.1026077E+00
         21   -1    0    0  502  501  0.00000000000E+00  0.00000000000E+00  0.17205842027E+04  0.17205842027E+04  0.00000000000E+00 0.  1.
         21   -1    0    0  501  502 -0.00000000000E+00 -0.00000000000E+00 -0.30154817722E+02  0.30154817722E+02  0.00000000000E+00 0.  1.
      99926    2    1    2    0    0 -0.14210854715E-13  0.00000000000E+00  0.16904293850E+04  0.17507390205E+04  0.45556076657E+03 0.  0.
      99925    2    3    3    0    0  0.11317822521E+03 -0.66761451822E+01  0.10295690790E+04  0.10686556431E+04  0.26298006275E+03 0.  0.
         25    1    3    3    0    0 -0.11317822521E+03  0.66761451822E+01  0.66086030599E+03  0.68208337739E+03  0.12509000000E+03 0.  0.
         25    1    4    4    0    0  0.85894253682E+02  0.24530786230E+01  0.66668563987E+03  0.68374051432E+03  0.12509000000E+03 0.  0.
         25    1    4    4    0    0  0.27283971531E+02 -0.91292238052E+01  0.36288343916E+03  0.38491512876E+03  0.12509000000E+03 0.  0.
<mgrwt>
<rscale>  2 0.45556077E+03</rscale>
<asrwt>0</asrwt>
<pdfrwt beam="1">  1       21 0.25302702E+00 0.45556077E+03</pdfrwt>
<pdfrwt beam="2">  1       21 0.44345332E-02 0.45556077E+03</pdfrwt>
<totfact> 0.18146374E+04</totfact>
</mgrwt>
</event>
<event>
 7    0  0.4770865E-002  0.4502520E+03  0.7546771E-02  0.1027647E+00
         21   -1    0    0  502  501  0.00000000000E+00  0.00000000000E+00  0.16898674113E+03  0.16898674113E+03  0.00000000000E+00 0.  1.
         21   -1    0    0  501  502 -0.00000000000E+00 -0.00000000000E+00 -0.29991539189E+03  0.29991539189E+03  0.00000000000E+00 0.  1.
      99926    2    1    2    0    0  0.00000000000E+00  0.00000000000E+00 -0.13092865075E+03  0.46890213302E+03  0.45025203915E+03 0.  0.
      99925    2    3    3    0    0 -0.73492474504E+02  0.78090104727E+02 -0.65099274820E+02  0.29147546338E+03  0.26309850228E+03 0.  0.
         25    1    4    4    0    0 -0.21992444772E+02  0.42121608985E+02 -0.70791329799E+02  0.15138301769E+03  0.12509000000E+03 0.  0.
         25    1    3    3    0    0  0.73492474504E+02 -0.78090104727E+02 -0.65829375932E+02  0.17742666964E+03  0.12509000000E+03 0.  0.
         25    1    4    4    0    0 -0.51500029732E+02  0.35968495741E+02  0.56920549786E+01  0.14009244569E+03  0.12509000000E+03 0.  0.
<mgrwt>
<rscale>  2 0.45025204E+03</rscale>
<asrwt>0</asrwt>
<pdfrwt beam="1">  1       21 0.24850992E-01 0.45025204E+03</pdfrwt>
<pdfrwt beam="2">  1       21 0.44105204E-01 0.45025204E+03</pdfrwt>
<totfact> 0.70121958E+04</totfact>
</mgrwt>
</event>
<event>
 7    0  0.4770865E-002  0.4533343E+03  0.7546771E-02  0.1026732E+00
         21   -1    0    0  502  501  0.00000000000E+00  0.00000000000E+00  0.10041939991E+03  0.10041939991E+03  0.00000000000E+00 0. -1.
         21   -1    0    0  501  502 -0.00000000000E+00 -0.00000000000E+00 -0.51163416465E+03  0.51163416465E+03  0.00000000000E+00 0. -1.
      99926    2    1    2    0    0  0.00000000000E+00  0.00000000000E+00 -0.41121476475E+03  0.61205356456E+03  0.45333429514E+03 0.  0.
      99925    2    3    3    0    0 -0.69293742937E+02 -0.87291224379E+02 -0.26797553605E+03  0.39163041378E+03  0.26294887794E+03 0.  0.
         25    1    4    4    0    0 -0.32058027193E+02 -0.36212392662E+01 -0.10278113342E+03  0.16508270645E+03  0.12509000000E+03 0.  0.
         25    1    3    3    0    0  0.69293742937E+02  0.87291224379E+02 -0.14323922869E+03  0.22042315078E+03  0.12509000000E+03 0.  0.
         25    1    4    4    0    0 -0.37235715744E+02 -0.83669985113E+02 -0.16519440263E+03  0.22654770733E+03  0.12509000000E+03 0.  0.
<mgrwt>
<rscale>  2 0.45333430E+03</rscale>
<asrwt>0</asrwt>
<pdfrwt beam="1">  1       21 0.14767559E-01 0.45333430E+03</pdfrwt>
<pdfrwt beam="2">  1       21 0.75240316E-01 0.45333430E+03</pdfrwt>
<totfact> 0.58711028E+04</totfact>
</mgrwt>
</event>
<event>
 7    0  0.4770865E-002  0.4494437E+03  0.7546771E-02  0.1027888E+00
         21   -1    0    0  502  501  0.00000000000E+00  0.00000000000E+00  0.25575843935E+03  0.25575843935E+03  0.00000000000E+00 0. -1.
         21   -1    0    0  501  502 -0.00000000000E+00 -0.00000000000E+00 -0.19745159269E+03  0.19745159269E+03  0.00000000000E+00 0. -1.
      99926    2    1    2    0    0  0.35527136788E-14 -0.35527136788E-14  0.58306846657E+02  0.45321003204E+03  0.44944370590E+03 0.  0.
      99925    2    3    3    0    0 -0.30150656684E+02  0.19589904032E+02 -0.65687651162E+02  0.27344638158E+03  0.26299283193E+03 0.  0.
         25    1    3    3    0    0  0.30150656684E+02 -0.19589904032E+02  0.12399449782E+03  0.17976365046E+03  0.12509000000E+03 0.  0.
         25    1    4    4    0    0 -0.33236673061E+02  0.12851527157E+02 -0.70693867996E+02  0.14803705367E+03  0.12509000000E+03 0.  0.
         25    1    4    4    0    0  0.30860163773E+01  0.67383768742E+01  0.50062168342E+01  0.12540932791E+03  0.12509000000E+03 0.  0.
<mgrwt>
<rscale>  2 0.44944371E+03</rscale>
<asrwt>0</asrwt>
<pdfrwt beam="1">  1       21 0.37611536E-01 0.44944371E+03</pdfrwt>
<pdfrwt beam="2">  1       21 0.29036999E-01 0.44944371E+03</pdfrwt>
<totfact> 0.71807725E+04</totfact>
</mgrwt>
</event>
<event>
 7    0  0.4770865E-002  0.4522400E+03  0.7546771E-02  0.1027056E+00
         21   -1    0    0  502  501  0.00000000000E+00  0.00000000000E+00  0.21448333698E+02  0.21448333698E+02  0.00000000000E+00 0.  1.
         21   -1    0    0  501  502 -0.00000000000E+00 -0.00000000000E+00 -0.23838797308E+04  0.23838797308E+04  0.00000000000E+00 0.  1.
      99926    2    1    2    0    0  0.00000000000E+00  0.17763568394E-14 -0.23624313971E+04  0.24053280645E+04  0.45223997153E+03 0.  0.
      99925    2    3    3    0    0 -0.21286097477E+02  0.11530017445E+02 -0.20637530542E+04  0.20806092633E+04  0.26319612163E+03 0.  0.
         25    1    4    4    0    0 -0.60399239917E+01 -0.14222306254E+02 -0.13006451882E+04  0.13067379876E+04  0.12509000000E+03 0.  0.
         25    1    3    3    0    0  0.21286097477E+02 -0.11530017445E+02 -0.29867834283E+03  0.32471880115E+03  0.12509000000E+03 0.  0.
         25    1    4    4    0    0 -0.15246173485E+02  0.25752323699E+02 -0.76310786607E+03  0.77387127569E+03  0.12509000000E+03 0.  0.
<mgrwt>
<rscale>  2 0.45223997E+03</rscale>
<asrwt>0</asrwt>
<pdfrwt beam="1">  1       21 0.31541670E-02 0.45223997E+03</pdfrwt>
<pdfrwt beam="2">  1       21 0.35057052E+00 0.45223997E+03</pdfrwt>
<totfact> 0.83266902E+03</totfact>
</mgrwt>
</event>
<event>
 7    0  0.4770865E-002  0.4599803E+03  0.7546771E-02  0.1024787E+00
         21   -1    0    0  502  501  0.00000000000E+00  0.00000000000E+00  0.17279125676E+04  0.17279125676E+04  0.00000000000E+00 0. -1.
         21   -1    0    0  501  502 -0.00000000000E+00 -0.00000000000E+00 -0.30612355999E+02  0.30612355999E+02  0.00000000000E+00 0. -1.
      99926    2    1    2    0    0  0.00000000000E+00  0.00000000000E+00  0.16973002116E+04  0.17585249236E+04  0.45998032416E+03 0.  0.
      99925    2    3    3    0    0  0.47859724179E+02 -0.88607778753E+02  0.12968180826E+04  0.13270445238E+04  0.26299835961E+03 0.  0.
         25    1    3    3    0    0 -0.47859724179E+02  0.88607778753E+02  0.40048212898E+03  0.43148039977E+03  0.12509000000E+03 0.  0.
         25    1    4    4    0    0 -0.12909701366E+02 -0.48645342745E+02  0.70645793843E+03  0.71921023117E+03  0.12509000000E+03 0.  0.
         25    1    4    4    0    0  0.60769425545E+02 -0.39962436008E+02  0.59036014419E+03  0.60783429265E+03  0.12509000000E+03 0.  0.
<mgrwt>
<rscale>  2 0.45998032E+03</rscale>
<asrwt>0</asrwt>
<pdfrwt beam="1">  1       21 0.25410472E+00 0.45998032E+03</pdfrwt>
<pdfrwt beam="2">  1       21 0.45018182E-02 0.45998032E+03</pdfrwt>
<totfact> 0.17388105E+04</totfact>
</mgrwt>
</event>
<event>
 7    0  0.4770865E-002  0.4543511E+03  0.7546771E-02  0.1026432E+00
         21   -1    0    0  502  501  0.00000000000E+00  0.00000000000E+00  0.11391119212E+03  0.11391119212E+03  0.00000000000E+00 0.  1.
         21   -1    0    0  501  502 -0.00000000000E+00 -0.00000000000E+00 -0.45306115683E+03  0.45306115683E+03  0.00000000000E+00 0.  1.
      99926    2    1    2    0    0  0.00000000000E+00 -0.14210854715E-13 -0.33914996471E+03  0.56697234894E+03  0.45435112623E+03 0.  0.
      99925    2    3    3    0    0 -0.58174876393E+01  0.88495523574E+02 -0.30007089388E+03  0.40873207995E+03  0.26297161627E+03 0.  0.
         25    1    4    4    0    0  0.36861881036E+02  0.41542176563E+02 -0.13729219244E+03  0.19385872410E+03  0.12509000000E+03 0.  0.
         25    1    3    3    0    0  0.58174876393E+01 -0.88495523574E+02 -0.39079070824E+02  0.15824026900E+03  0.12509000000E+03 0.  0.
         25    1    4    4    0    0 -0.42679368676E+02  0.46953347012E+02 -0.16277870145E+03  0.21487335584E+03  0.12509000000E+03 0.  0.
<mgrwt>
<rscale>  2 0.45435113E+03</rscale>
<asrwt>0</asrwt>
<pdfrwt beam="1">  1       21 0.16751646E-01 0.45435113E+03</pdfrwt>
<pdfrwt beam="2">  1       21 0.66626641E-01 0.45435113E+03</pdfrwt>
<totfact> 0.61071493E+04</totfact>
</mgrwt>
</event>
<event>
 7    0  0.4770865E-002  0.4566491E+03  0.7546771E-02  0.1025758E+00
         21   -1    0    0  502  501  0.00000000000E+00  0.00000000000E+00  0.88956763026E+02  0.88956763026E+02  0.00000000000E+00 0. -1.
         21   -1    0    0  501  502 -0.00000000000E+00 -0.00000000000E+00 -0.58603864228E+03  0.58603864228E+03  0.00000000000E+00 0. -1.
      99926    2    1    2    0    0  0.00000000000E+00 -0.71054273576E-14 -0.49708187925E+03  0.67499540531E+03  0.45664910216E+03 0.  0.
      99925    2    3    3    0    0  0.95868708809E+02  0.49920108865E+02 -0.25422262435E+03  0.38120814828E+03  0.26269313464E+03 0.  0.
         25    1    3    3    0    0 -0.95868708809E+02 -0.49920108865E+02 -0.24285925490E+03  0.29378725702E+03  0.12509000000E+03 0.  0.
         25    1    4    4    0    0  0.40814690264E+02  0.64358760706E+02 -0.13743821582E+03  0.20085980257E+03  0.12509000000E+03 0.  0.
         25    1    4    4    0    0  0.55054018545E+02 -0.14438651841E+02 -0.11678440853E+03  0.18034834571E+03  0.12509000000E+03 0.  0.
<mgrwt>
<rscale>  2 0.45664910E+03</rscale>
<asrwt>0</asrwt>
<pdfrwt beam="1">  1       21 0.13081877E-01 0.45664910E+03</pdfrwt>
<pdfrwt beam="2">  1       21 0.86182149E-01 0.45664910E+03</pdfrwt>
<totfact> 0.53582225E+04</totfact>
</mgrwt>
</event>
<event>
 7    0  0.4770865E-002  0.4546714E+03  0.7546771E-02  0.1026338E+00
         21   -1    0    0  502  501  0.00000000000E+00  0.00000000000E+00  0.25880290025E+03  0.25880290025E+03  0.00000000000E+00 0.  1.
         21   -1    0    0  501  502 -0.00000000000E+00 -0.00000000000E+00 -0.19969455827E+03  0.19969455827E+03  0.00000000000E+00 0.  1.
      99926    2    1    2    0    0 -0.71054273576E-14  0.14210854715E-13  0.59108341972E+02  0.45849745852E+03  0.45467144553E+03 0.  0.
      99925    2    3    3    0    0  0.45268220583E+02 -0.10322734155E+03  0.43794485453E+02  0.28942020357E+03  0.26294676541E+03 0.  0.
         25    1    3    3    0    0 -0.45268220583E+02  0.10322734155E+03  0.15313856519E+02  0.16907725495E+03  0.12509000000E+03 0.  0.
         25    1    4    4    0    0  0.27193500760E+02 -0.10355650764E+02  0.30595896080E+02  0.13202402411E+03  0.12509000000E+03 0.  0.
         25    1    4    4    0    0  0.18074719823E+02 -0.92871690789E+02  0.13198589373E+02  0.15739617946E+03  0.12509000000E+03 0.  0.
<mgrwt>
<rscale>  2 0.45467145E+03</rscale>
<asrwt>0</asrwt>
<pdfrwt beam="1">  1       21 0.38059250E-01 0.45467145E+03</pdfrwt>
<pdfrwt beam="2">  1       21 0.29366847E-01 0.45467145E+03</pdfrwt>
<totfact> 0.68469420E+04</totfact>
</mgrwt>
</event>
<event>
 7    0  0.4770865E-002  0.4571019E+03  0.7546771E-02  0.1025625E+00
         21   -1    0    0  502  501  0.00000000000E+00  0.00000000000E+00  0.28380432522E+03  0.28380432522E+03  0.00000000000E+00 0.  1.
         21   -1    0    0  501  502 -0.00000000000E+00 -0.00000000000E+00 -0.18405475440E+03  0.18405475440E+03  0.00000000000E+00 0.  1.
      99926    2    1    2    0    0  0.35527136788E-14  0.00000000000E+00  0.99749570819E+02  0.46785907963E+03  0.45710189401E+03 0.  0.
      99925    2    3    3    0    0  0.26990635516E+02 -0.10846544547E+03  0.34554610527E+02  0.28788369738E+03  0.26303945492E+03 0.  0.
         25    1    4    4    0    0  0.36534678090E+02 -0.90439923341E+02  0.11302180253E+02  0.15902644376E+03  0.12509000000E+03 0.  0.
         25    1    4    4    0    0 -0.95440425743E+01 -0.18025522131E+02  0.23252430275E+02  0.12885725362E+03  0.12509000000E+03 0.  0.
         25    1    3    3    0    0 -0.26990635516E+02  0.10846544547E+03  0.65194960292E+02  0.17997538225E+03  0.12509000000E+03 0.  0.
<mgrwt>
<rscale>  2 0.45710189E+03</rscale>
<asrwt>0</asrwt>
<pdfrwt beam="1">  1       21 0.41735930E-01 0.45710189E+03</pdfrwt>
<pdfrwt beam="2">  1       21 0.27066876E-01 0.45710189E+03</pdfrwt>
<totfact> 0.66480422E+04</totfact>
</mgrwt>
</event>
<event>
 7    0  0.4770865E-002  0.4533037E+03  0.7546771E-02  0.1026741E+00
         21   -1    0    0  502  501  0.00000000000E+00  0.00000000000E+00  0.68316161566E+03  0.68316161566E+03  0.00000000000E+00 0.  1.
         21   -1    0    0  501  502 -0.00000000000E+00 -0.00000000000E+00 -0.75196051491E+02  0.75196051491E+02  0.00000000000E+00 0.  1.
      99926    2    1    2    0    0  0.00000000000E+00  0.00000000000E+00  0.60796556417E+03  0.75835766715E+03  0.45330367758E+03 0.  0.
      99925    2    3    3    0    0  0.12559298957E+02  0.94542451066E+02  0.47998147394E+03  0.55556849955E+03  0.26301735935E+03 0.  0.
         25    1    4    4    0    0  0.20608824511E+02  0.71544882519E+02  0.19458487336E+03  0.24301064772E+03  0.12509000000E+03 0.  0.
         25    1    4    4    0    0 -0.80495255536E+01  0.22997568547E+02  0.28539660058E+03  0.31255785183E+03  0.12509000000E+03 0.  0.
         25    1    3    3    0    0 -0.12559298957E+02 -0.94542451066E+02  0.12798409022E+03  0.20278916760E+03  0.12509000000E+03 0.  0.
<mgrwt>
<rscale>  2 0.45330368E+03</rscale>
<asrwt>0</asrwt>
<pdfrwt beam="1">  1       21 0.10046494E+00 0.45330368E+03</pdfrwt>
<pdfrwt beam="2">  1       21 0.11058243E-01 0.45330368E+03</pdfrwt>
<totfact> 0.50513813E+04</totfact>
</mgrwt>
</event>
<event>
 7    0  0.4770865E-002  0.4296662E+03  0.7546771E-02  0.1033965E+00
         21   -1    0    0  502  501  0.00000000000E+00  0.00000000000E+00  0.12291918290E+03  0.12291918290E+03  0.00000000000E+00 0. -1.
         21   -1    0    0  501  502 -0.00000000000E+00 -0.00000000000E+00 -0.37547642894E+03  0.37547642894E+03  0.00000000000E+00 0. -1.
      99926    2    1    2    0    0  0.14210854715E-13  0.00000000000E+00 -0.25255724604E+03  0.49839561184E+03  0.42966617667E+03 0.  0.
      99925    2    3    3    0    0 -0.80143431566E+02 -0.17368867689E+02 -0.19725187154E+03  0.33892511382E+03  0.26312978693E+03 0.  0.
         25    1    3    3    0    0  0.80143431566E+02  0.17368867689E+02 -0.55305374500E+02  0.15947049801E+03  0.12509000000E+03 0.  0.
         25    1    4    4    0    0 -0.81926571028E+02 -0.51800699497E+01 -0.11500445549E+03  0.18871229173E+03  0.12509000000E+03 0.  0.
         25    1    4    4    0    0  0.17831394617E+01 -0.12188797739E+02 -0.82247416046E+02  0.15021282210E+03  0.12509000000E+03 0.  0.
<mgrwt>
<rscale>  2 0.42966618E+03</rscale>
<asrwt>0</asrwt>
<pdfrwt beam="1">  1       21 0.18076350E-01 0.42966618E+03</pdfrwt>
<pdfrwt beam="2">  1       21 0.55217122E-01 0.42966618E+03</pdfrwt>
<totfact> 0.80360284E+04</totfact>
</mgrwt>
</event>
<event>
 7    0  0.4770865E-002  0.4516718E+03  0.7546771E-02  0.1027225E+00
         21   -1    0    0  502  501  0.00000000000E+00  0.00000000000E+00  0.13569487639E+04  0.13569487639E+04  0.00000000000E+00 0. -1.
         21   -1    0    0  501  502 -0.00000000000E+00 -0.00000000000E+00 -0.37585684503E+02  0.37585684503E+02  0.00000000000E+00 0. -1.
      99926    2    1    2    0    0  0.71054273576E-14 -0.71054273576E-14  0.13193630794E+04  0.13945344484E+04  0.45167177520E+03 0.  0.
      99925    2    3    3    0    0  0.31840455854E+02 -0.18618631218E+02  0.11529019979E+04  0.11830698703E+04  0.26288939328E+03 0.  0.
         25    1    4    4    0    0  0.18686320771E+02 -0.32230072138E+02  0.43700086289E+03  0.45607589106E+03  0.12509000000E+03 0.  0.
         25    1    4    4    0    0  0.13154135083E+02  0.13611440921E+02  0.71590113503E+03  0.72699397923E+03  0.12509000000E+03 0.  0.
         25    1    3    3    0    0 -0.31840455854E+02  0.18618631218E+02  0.16646108151E+03  0.21146457816E+03  0.12509000000E+03 0.  0.
<mgrwt>
<rscale>  2 0.45167178E+03</rscale>
<asrwt>0</asrwt>
<pdfrwt beam="1">  1       21 0.19955126E+00 0.45167178E+03</pdfrwt>
<pdfrwt beam="2">  1       21 0.55273074E-02 0.45167178E+03</pdfrwt>
<totfact> 0.27174108E+04</totfact>
</mgrwt>
</event>
<event>
 7    0  0.4770865E-002  0.4468615E+03  0.7546771E-02  0.1028662E+00
         21   -1    0    0  502  501  0.00000000000E+00  0.00000000000E+00  0.16954080523E+03  0.16954080523E+03  0.00000000000E+00 0. -1.
         21   -1    0    0  501  502 -0.00000000000E+00 -0.00000000000E+00 -0.29445007753E+03  0.29445007753E+03  0.00000000000E+00 0. -1.
      99926    2    1    2    0    0  0.35527136788E-14 -0.14210854715E-13 -0.12490927230E+03  0.46399088276E+03  0.44686151432E+03 0.  0.
      99925    2    3    3    0    0  0.19687863829E+02 -0.88639877740E+02 -0.13376135784E+03  0.30916676505E+03  0.26352864712E+03 0.  0.
         25    1    4    4    0    0 -0.48103586649E+01 -0.74861780049E+02 -0.42939018883E+02  0.15204832490E+03  0.12509000000E+03 0.  0.
         25    1    3    3    0    0 -0.19687863829E+02  0.88639877740E+02  0.88520855348E+01  0.15482411771E+03  0.12509000000E+03 0.  0.
         25    1    4    4    0    0  0.24498222494E+02 -0.13778097691E+02 -0.90822338953E+02  0.15711844015E+03  0.12509000000E+03 0.  0.
<mgrwt>
<rscale>  2 0.44686151E+03</rscale>
<asrwt>0</asrwt>
<pdfrwt beam="1">  1       21 0.24932472E-01 0.44686151E+03</pdfrwt>
<pdfrwt beam="2">  1       21 0.43301482E-01 0.44686151E+03</pdfrwt>
<totfact> 0.72451169E+04</totfact>
</mgrwt>
</event>
<event>
 7    0  0.4770865E-002  0.4565416E+03  0.7546771E-02  0.1025789E+00
         21   -1    0    0  502  501  0.00000000000E+00  0.00000000000E+00  0.11549860616E+04  0.11549860616E+04  0.00000000000E+00 0. -1.
         21   -1    0    0  501  502 -0.00000000000E+00 -0.00000000000E+00 -0.45115308831E+02  0.45115308831E+02  0.00000000000E+00 0. -1.
      99926    2    1    2    0    0  0.19984014443E-14 -0.14210854715E-13  0.11098707528E+04  0.12001013705E+04  0.45654157693E+03 0.  0.
      99925    2    3    3    0    0 -0.11208488848E+01  0.10804995110E+03  0.59715075182E+03  0.66139425548E+03  0.26301576481E+03 0.  0.
         25    1    3    3    0    0  0.11208488848E+01 -0.10804995110E+03  0.51272000098E+03  0.53870711499E+03  0.12509000000E+03 0.  0.
         25    1    4    4    0    0 -0.27989660664E+02  0.34654424525E+02  0.33896640847E+03  0.36404681624E+03  0.12509000000E+03 0.  0.
         25    1    4    4    0    0  0.26868811779E+02  0.73395526576E+02  0.25818434336E+03  0.29734743924E+03  0.12509000000E+03 0.  0.
<mgrwt>
<rscale>  2 0.45654158E+03</rscale>
<asrwt>0</asrwt>
<pdfrwt beam="1">  1       21 0.16985087E+00 0.45654158E+03</pdfrwt>
<pdfrwt beam="2">  1       21 0.66346050E-02 0.45654158E+03</pdfrwt>
<totfact> 0.31769505E+04</totfact>
</mgrwt>
</event>
<event>
 7    0  0.4770865E-002  0.4365728E+03  0.7546771E-02  0.1031804E+00
         21   -1    0    0  502  501  0.00000000000E+00  0.00000000000E+00  0.55218660229E+02  0.55218660229E+02  0.00000000000E+00 0. -1.
         21   -1    0    0  501  502 -0.00000000000E+00 -0.00000000000E+00 -0.86291405366E+03  0.86291405366E+03  0.00000000000E+00 0. -1.
      99926    2    1    2    0    0 -0.35527136788E-14  0.00000000000E+00 -0.80769539343E+03  0.91813271389E+03  0.43657282525E+03 0.  0.
      99925    2    3    3    0    0  0.22030527171E+02 -0.28290848752E+02 -0.33307192384E+03  0.42599384910E+03  0.26315040712E+03 0.  0.
         25    1    3    3    0    0 -0.22030527171E+02  0.28290848752E+02 -0.47462346959E+03  0.49213886479E+03  0.12509000000E+03 0.  0.
         25    1    4    4    0    0  0.26189969851E+02 -0.42408725079E+02 -0.21289981047E+03  0.25190921357E+03  0.12509000000E+03 0.  0.
         25    1    4    4    0    0 -0.41594426799E+01  0.14117876327E+02 -0.12017211338E+03  0.17408463553E+03  0.12509000000E+03 0.  0.
<mgrwt>
<rscale>  2 0.43657283E+03</rscale>
<asrwt>0</asrwt>
<pdfrwt beam="1">  1       21 0.81203915E-02 0.43657283E+03</pdfrwt>
<pdfrwt beam="2">  1       21 0.12689912E+00 0.43657283E+03</pdfrwt>
<totfact> 0.49173574E+04</totfact>
</mgrwt>
</event>
<event>
 7    0  0.4770865E-002  0.4783960E+03  0.7546771E-02  0.1019577E+00
         21   -1    0    0  502  501  0.00000000000E+00  0.00000000000E+00  0.31964932053E+03  0.31964932053E+03  0.00000000000E+00 0. -1.
         21   -1    0    0  501  502 -0.00000000000E+00 -0.00000000000E+00 -0.17899516746E+03  0.17899516746E+03  0.00000000000E+00 0. -1.
      99926    2    1    2    0    0  0.35527136788E-14  0.00000000000E+00  0.14065415307E+03  0.49864448799E+03  0.47839600189E+03 0.  0.
      99925    2    3    3    0    0  0.22906048516E+02  0.13021865264E+03  0.66039561667E+02  0.30193040638E+03  0.26328532438E+03 0.  0.
         25    1    3    3    0    0 -0.22906048516E+02 -0.13021865264E+03  0.74614591398E+02  0.19671408161E+03  0.12509000000E+03 0.  0.
         25    1    4    4    0    0  0.49642160066E+02  0.54174113226E+02  0.43240689188E+02  0.15138178193E+03  0.12509000000E+03 0.  0.
         25    1    4    4    0    0 -0.26736111550E+02  0.76044539414E+02  0.22798872479E+02  0.15054862444E+03  0.12509000000E+03 0.  0.
<mgrwt>
<rscale>  2 0.47839600E+03</rscale>
<asrwt>0</asrwt>
<pdfrwt beam="1">  1       21 0.47007253E-01 0.47839600E+03</pdfrwt>
<pdfrwt beam="2">  1       21 0.26322819E-01 0.47839600E+03</pdfrwt>
<totfact> 0.54515943E+04</totfact>
</mgrwt>
</event>
<event>
 7    0  0.4770865E-002  0.4556227E+03  0.7546771E-02  0.1026058E+00
         21   -1    0    0  502  501  0.00000000000E+00  0.00000000000E+00  0.44001345156E+03  0.44001345156E+03  0.00000000000E+00 0. -1.
         21   -1    0    0  501  502 -0.00000000000E+00 -0.00000000000E+00 -0.11794640050E+03  0.11794640050E+03  0.00000000000E+00 0. -1.
      99926    2    1    2    0    0 -0.35527136788E-14  0.00000000000E+00  0.32206705106E+03  0.55795985206E+03  0.45562266310E+03 0.  0.
      99925    2    3    3    0    0 -0.23677234010E+02  0.53220409322E+02  0.82902517617E+02  0.28184356218E+03  0.26300179227E+03 0.  0.
         25    1    4    4    0    0 -0.51834276585E+02  0.27535682471E+02  0.34611151131E+02  0.14244453630E+03  0.12509000000E+03 0.  0.
         25    1    3    3    0    0  0.23677234010E+02 -0.53220409322E+02  0.23916453344E+03  0.27611628988E+03  0.12509000000E+03 0.  0.
         25    1    4    4    0    0  0.28157042575E+02  0.25684726851E+02  0.48291366486E+02  0.13939902588E+03  0.12509000000E+03 0.  0.
<mgrwt>
<rscale>  2 0.45562266E+03</rscale>
<asrwt>0</asrwt>
<pdfrwt beam="1">  1       21 0.64707860E-01 0.45562266E+03</pdfrwt>
<pdfrwt beam="2">  1       21 0.17345059E-01 0.45562266E+03</pdfrwt>
<totfact> 0.61042346E+04</totfact>
</mgrwt>
</event>
<event>
 7    0  0.4770865E-002  0.4617695E+03  0.7546771E-02  0.1024269E+00
         21   -1    0    0  502  501  0.00000000000E+00  0.00000000000E+00  0.17800093626E+03  0.17800093626E+03  0.00000000000E+00 0. -1.
         21   -1    0    0  501  502 -0.00000000000E+00 -0.00000000000E+00 -0.29948023190E+03  0.29948023190E+03  0.00000000000E+00 0. -1.
      99926    2    1    2    0    0  0.00000000000E+00  0.00000000000E+00 -0.12147929564E+03  0.47748116816E+03  0.46176947353E+03 0.  0.
      99925    2    3    3    0    0  0.82228819263E+02  0.76922779397E+02 -0.34855035612E+02  0.28819312513E+03  0.26298614252E+03 0.  0.
         25    1    4    4    0    0  0.33119209531E+02  0.66182912857E+02  0.11090878193E+02  0.14576548176E+03  0.12509000000E+03 0.  0.
         25    1    3    3    0    0 -0.82228819263E+02 -0.76922779397E+02 -0.86624260030E+02  0.18928804303E+03  0.12509000000E+03 0.  0.
         25    1    4    4    0    0  0.49109609732E+02  0.10739866540E+02 -0.45945913805E+02  0.14242764337E+03  0.12509000000E+03 0.  0.
<mgrwt>
<rscale>  2 0.46176947E+03</rscale>
<asrwt>0</asrwt>
<pdfrwt beam="1">  1       21 0.26176608E-01 0.46176947E+03</pdfrwt>
<pdfrwt beam="2">  1       21 0.44041210E-01 0.46176947E+03</pdfrwt>
<totfact> 0.63408777E+04</totfact>
</mgrwt>
</event>
<event>
 7    0  0.4770865E-002  0.4534119E+03  0.7546771E-02  0.1026709E+00
         21   -1    0    0  502  501  0.00000000000E+00  0.00000000000E+00  0.74616763116E+03  0.74616763116E+03  0.00000000000E+00 0. -1.
         21   -1    0    0  501  502 -0.00000000000E+00 -0.00000000000E+00 -0.68879421039E+02  0.68879421039E+02  0.00000000000E+00 0. -1.
      99926    2    1    2    0    0  0.00000000000E+00  0.00000000000E+00  0.67728821012E+03  0.81504705220E+03  0.45341192941E+03 0.  0.
      99925    2    3    3    0    0 -0.70499789738E+02 -0.20553560615E+02  0.27415558517E+03  0.38661258742E+03  0.26251731118E+03 0.  0.
         25    1    4    4    0    0  0.88742999700E+00 -0.17178749359E+02  0.15299801121E+03  0.19837287238E+03  0.12509000000E+03 0.  0.
         25    1    4    4    0    0 -0.71387219735E+02 -0.33748112565E+01  0.12115757396E+03  0.18823971504E+03  0.12509000000E+03 0.  0.
         25    1    3    3    0    0  0.70499789738E+02  0.20553560615E+02  0.40313262495E+03  0.42843446478E+03  0.12509000000E+03 0.  0.
<mgrwt>
<rscale>  2 0.45341193E+03</rscale>
<asrwt>0</asrwt>
<pdfrwt beam="1">  1       21 0.10973053E+00 0.45341193E+03</pdfrwt>
<pdfrwt beam="2">  1       21 0.10129327E-01 0.45341193E+03</pdfrwt>
<totfact> 0.47636457E+04</totfact>
</mgrwt>
</event>
<event>
 7    0  0.4770865E-002  0.4581232E+03  0.7546771E-02  0.1025327E+00
         21   -1    0    0  502  501  0.00000000000E+00  0.00000000000E+00  0.10390742691E+03  0.10390742691E+03  0.00000000000E+00 0.  1.
         21   -1    0    0  501  502 -0.00000000000E+00 -0.00000000000E+00 -0.50496122443E+03  0.50496122443E+03  0.00000000000E+00 0.  1.
      99926    2    1    2    0    0  0.44408920985E-15  0.00000000000E+00 -0.40105379753E+03  0.60886865134E+03  0.45812322149E+03 0.  0.
      99925    2    3    3    0    0  0.36656913105E+01 -0.73413746744E+02 -0.13246457219E+03  0.30359714011E+03  0.26309949656E+03 0.  0.
         25    1    3    3    0    0 -0.36656913105E+01  0.73413746744E+02 -0.26858922534E+03  0.30527151123E+03  0.12509000000E+03 0.  0.
         25    1    4    4    0    0 -0.14878639007E+02 -0.68378009964E+02 -0.93673230457E+02  0.17122823467E+03  0.12509000000E+03 0.  0.
         25    1    4    4    0    0  0.18544330318E+02 -0.50357367796E+01 -0.38791341735E+02  0.13236890543E+03  0.12509000000E+03 0.  0.
<mgrwt>
<rscale>  2 0.45812322E+03</rscale>
<asrwt>0</asrwt>
<pdfrwt beam="1">  1       21 0.15280504E-01 0.45812322E+03</pdfrwt>
<pdfrwt beam="2">  1       21 0.74259003E-01 0.45812322E+03</pdfrwt>
<totfact> 0.56723229E+04</totfact>
</mgrwt>
</event>
<event>
 7    0  0.4770865E-002  0.4301713E+03  0.7546771E-02  0.1033806E+00
         21   -1    0    0  502  501  0.00000000000E+00  0.00000000000E+00  0.35870556045E+02  0.35870556045E+02  0.00000000000E+00 0.  1.
         21   -1    0    0  501  502 -0.00000000000E+00 -0.00000000000E+00 -0.12896880438E+04  0.12896880438E+04  0.00000000000E+00 0.  1.
      99926    2    1    2    0    0  0.53290705182E-14  0.00000000000E+00 -0.12538174877E+04  0.13255585998E+04  0.43017125545E+03 0.  0.
      99925    2    3    3    0    0  0.53534779827E+01 -0.80075506041E+02 -0.69513694562E+03  0.74744770853E+03  0.26272030266E+03 0.  0.
         25    1    4    4    0    0 -0.34067219426E+02 -0.52132427684E+02 -0.38441865649E+03  0.40902759933E+03  0.12509000000E+03 0.  0.
         25    1    3    3    0    0 -0.53534779827E+01  0.80075506041E+02 -0.55868054209E+03  0.57811089127E+03  0.12509000000E+03 0.  0.
         25    1    4    4    0    0  0.39420697409E+02 -0.27943078356E+02 -0.31071828914E+03  0.33842010921E+03  0.12509000000E+03 0.  0.
<mgrwt>
<rscale>  2 0.43017126E+03</rscale>
<asrwt>0</asrwt>
<pdfrwt beam="1">  1       21 0.52750825E-02 0.43017126E+03</pdfrwt>
<pdfrwt beam="2">  1       21 0.18965998E+00 0.43017126E+03</pdfrwt>
<totfact> 0.34593528E+04</totfact>
</mgrwt>
</event>
<event>
 7    0  0.4770865E-002  0.4545895E+03  0.7546771E-02  0.1026362E+00
         21   -1    0    0  502  501  0.00000000000E+00  0.00000000000E+00  0.61202735441E+02  0.61202735441E+02  0.00000000000E+00 0. -1.
         21   -1    0    0  501  502 -0.00000000000E+00 -0.00000000000E+00 -0.84412744539E+03  0.84412744539E+03  0.00000000000E+00 0. -1.
      99926    2    1    2    0    0  0.00000000000E+00  0.00000000000E+00 -0.78292470995E+03  0.90533018083E+03  0.45458952350E+03 0.  0.
      99925    2    3    3    0    0  0.72439092582E+02  0.63233842792E+02 -0.37426405032E+03  0.46726970117E+03  0.26271934315E+03 0.  0.
         25    1    4    4    0    0  0.14463684356E+02  0.56089030654E+01 -0.21232359731E+03  0.24691997901E+03  0.12509000000E+03 0.  0.
         25    1    4    4    0    0  0.57975408226E+02  0.57624939727E+02 -0.16194045301E+03  0.22034972217E+03  0.12509000000E+03 0.  0.
         25    1    3    3    0    0 -0.72439092582E+02 -0.63233842792E+02 -0.40866065963E+03  0.43806047966E+03  0.12509000000E+03 0.  0.
<mgrwt>
<rscale>  2 0.45458952E+03</rscale>
<asrwt>0</asrwt>
<pdfrwt beam="1">  1       21 0.90004025E-02 0.45458952E+03</pdfrwt>
<pdfrwt beam="2">  1       21 0.12413639E+00 0.45458952E+03</pdfrwt>
<totfact> 0.43142527E+04</totfact>
</mgrwt>
</event>
<event>
 6    0  0.4770865E-002  0.4518976E+03  0.7546771E-02  0.1027158E+00
         21   -1    0    0  502  501  0.00000000000E+00  0.00000000000E+00  0.50682043522E+02  0.50682043522E+02  0.00000000000E+00 0. -1.
         21   -1    0    0  501  502 -0.00000000000E+00 -0.00000000000E+00 -0.10073166732E+04  0.10073166732E+04  0.00000000000E+00 0. -1.
      99926    2    1    2    0    0  0.00000000000E+00 -0.14210854715E-13 -0.95663462969E+03  0.10579987167E+04  0.45189763209E+03 0.  0.
         25    1    3    3    0    0  0.38612532758E+02 -0.86485589342E+02 -0.26662292255E+03  0.30936382429E+03  0.12509000000E+03 0.  0.
         25    1    3    3    0    0 -0.32085272598E+02  0.10132751785E+03 -0.40110378282E+03  0.43339183574E+03  0.12509000000E+03 0.  0.
         25    1    3    3    0    0 -0.65272601597E+01 -0.14841928509E+02 -0.28890792432E+03  0.31524305671E+03  0.12509000000E+03 0.  0.
<mgrwt>
<rscale>  2 0.45189763E+03</rscale>
<asrwt>0</asrwt>
<pdfrwt beam="1">  1       21 0.74532420E-02 0.45189763E+03</pdfrwt>
<pdfrwt beam="2">  1       21 0.14813480E+00 0.45189763E+03</pdfrwt>
<totfact> 0.37894497E+04</totfact>
</mgrwt>
</event>
<event>
 7    0  0.4770865E-002  0.4451109E+03  0.7546771E-02  0.1029190E+00
         21   -1    0    0  502  501  0.00000000000E+00  0.00000000000E+00  0.29411020260E+02  0.29411020260E+02  0.00000000000E+00 0.  1.
         21   -1    0    0  501  502 -0.00000000000E+00 -0.00000000000E+00 -0.16840939519E+04  0.16840939519E+04  0.00000000000E+00 0.  1.
      99926    2    1    2    0    0  0.88817841970E-15  0.00000000000E+00 -0.16546829316E+04  0.17135049721E+04  0.44511086860E+03 0.  0.
      99925    2    3    3    0    0  0.57765090128E+01 -0.33914957607E+02 -0.67397291465E+03  0.72425109275E+03  0.26290029148E+03 0.  0.
         25    1    4    4    0    0  0.18825712452E+02 -0.27783397539E+02 -0.43848175201E+03  0.45720901082E+03  0.12509000000E+03 0.  0.
         25    1    4    4    0    0 -0.13049203439E+02 -0.61315600678E+01 -0.23549116264E+03  0.26704208193E+03  0.12509000000E+03 0.  0.
         25    1    3    3    0    0 -0.57765090128E+01  0.33914957607E+02 -0.98071001694E+03  0.98925387937E+03  0.12509000000E+03 0.  0.
<mgrwt>
<rscale>  2 0.44511087E+03</rscale>
<asrwt>0</asrwt>
<pdfrwt beam="1">  1       21 0.43251487E-02 0.44511087E+03</pdfrwt>
<pdfrwt beam="2">  1       21 0.24766095E+00 0.44511087E+03</pdfrwt>
<totfact> 0.20512382E+04</totfact>
</mgrwt>
</event>
<event>
 7    0  0.4770865E-002  0.4554126E+03  0.7546771E-02  0.1026120E+00
         21   -1    0    0  502  501  0.00000000000E+00  0.00000000000E+00  0.12580787075E+03  0.12580787075E+03  0.00000000000E+00 0. -1.
         21   -1    0    0  501  502 -0.00000000000E+00 -0.00000000000E+00 -0.41213765829E+03  0.41213765829E+03  0.00000000000E+00 0. -1.
      99926    2    1    2    0    0 -0.71054273576E-14  0.00000000000E+00 -0.28632978754E+03  0.53794552905E+03  0.45541260961E+03 0.  0.
      99925    2    3    3    0    0  0.56915165007E+02 -0.92361356399E+02 -0.14051940838E+03  0.31731431880E+03  0.26300706573E+03 0.  0.
         25    1    4    4    0    0  0.48813418784E+02 -0.60234901771E+02 -0.37393280322E+02  0.15184452166E+03  0.12509000000E+03 0.  0.
         25    1    4    4    0    0  0.81017462232E+01 -0.32126454627E+02 -0.10312612806E+03  0.16546979714E+03  0.12509000000E+03 0.  0.
         25    1    3    3    0    0 -0.56915165007E+02  0.92361356399E+02 -0.14581037916E+03  0.22063121025E+03  0.12509000000E+03 0.  0.
<mgrwt>
<rscale>  2 0.45541261E+03</rscale>
<asrwt>0</asrwt>
<pdfrwt beam="1">  1       21 0.18501157E-01 0.45541261E+03</pdfrwt>
<pdfrwt beam="2">  1       21 0.60608480E-01 0.45541261E+03</pdfrwt>
<totfact> 0.62465943E+04</totfact>
</mgrwt>
</event>
<event>
 7    0  0.4770865E-002  0.4517430E+03  0.7546771E-02  0.1027204E+00
         21   -1    0    0  502  501  0.00000000000E+00  0.00000000000E+00  0.92693826291E+02  0.92693826291E+02  0.00000000000E+00 0.  1.
         21   -1    0    0  501  502 -0.00000000000E+00 -0.00000000000E+00 -0.55039186551E+03  0.55039186551E+03  0.00000000000E+00 0.  1.
      99926    2    1    2    0    0  0.14210854715E-13  0.00000000000E+00 -0.45769803922E+03  0.64308569180E+03  0.45174297105E+03 0.  0.
      99925    2    3    3    0    0  0.10882444912E+03  0.14981810469E+02 -0.29857826940E+03  0.41279495248E+03  0.26302751655E+03 0.  0.
         25    1    3    3    0    0 -0.10882444912E+03 -0.14981810469E+02 -0.15911976982E+03  0.23029073932E+03  0.12509000000E+03 0.  0.
         25    1    4    4    0    0  0.39423580036E+02 -0.86206929000E+01 -0.92090072821E+02  0.16048870559E+03  0.12509000000E+03 0.  0.
         25    1    4    4    0    0  0.69400869080E+02  0.23602503369E+02 -0.20648819658E+03  0.25230624689E+03  0.12509000000E+03 0.  0.
<mgrwt>
<rscale>  2 0.45174297E+03</rscale>
<asrwt>0</asrwt>
<pdfrwt beam="1">  1       21 0.13631445E-01 0.45174297E+03</pdfrwt>
<pdfrwt beam="2">  1       21 0.80939978E-01 0.45174297E+03</pdfrwt>
<totfact> 0.57566836E+04</totfact>
</mgrwt>
</event>
<event>
 7    0  0.4770865E-002  0.4552800E+03  0.7546771E-02  0.1026159E+00
         21   -1    0    0  502  501  0.00000000000E+00  0.00000000000E+00  0.99659141591E+02  0.99659141591E+02  0.00000000000E+00 0.  1.
         21   -1    0    0  501  502 -0.00000000000E+00 -0.00000000000E+00 -0.51997199399E+03  0.51997199399E+03  0.00000000000E+00 0.  1.
      99926    2    1    2    0    0  0.35527136788E-14  0.00000000000E+00 -0.42031285240E+03  0.61963113558E+03  0.45527996913E+03 0.  0.
      99925    2    3    3    0    0  0.27589989249E+02  0.24016082964E+02 -0.11826253353E+03  0.29066322989E+03  0.26298499315E+03 0.  0.
         25    1    4    4    0    0  0.14321146748E+02 -0.14306675961E+02 -0.91933031950E+02  0.15655339883E+03  0.12509000000E+03 0.  0.
         25    1    4    4    0    0  0.13268842501E+02  0.38322758925E+02 -0.26329501579E+02  0.13410983106E+03  0.12509000000E+03 0.  0.
         25    1    3    3    0    0 -0.27589989249E+02 -0.24016082964E+02 -0.30205031887E+03  0.32896790569E+03  0.12509000000E+03 0.  0.
<mgrwt>
<rscale>  2 0.45527997E+03</rscale>
<asrwt>0</asrwt>
<pdfrwt beam="1">  1       21 0.14655756E-01 0.45527997E+03</pdfrwt>
<pdfrwt beam="2">  1       21 0.76466470E-01 0.45527997E+03</pdfrwt>
<totfact> 0.57358989E+04</totfact>
</mgrwt>
</event>
<event>
 7    0  0.4770865E-002  0.4563211E+03  0.7546771E-02  0.1025854E+00
         21   -1    0    0  502  501  0.00000000000E+00  0.00000000000E+00  0.32666863561E+03  0.32666863561E+03  0.00000000000E+00 0. -1.
         21   -1    0    0  501  502 -0.00000000000E+00 -0.00000000000E+00 -0.15935791669E+03  0.15935791669E+03  0.00000000000E+00 0. -1.
      99926    2    1    2    0    0  0.00000000000E+00  0.00000000000E+00  0.16731071893E+03  0.48602655230E+03  0.45632108529E+03 0.  0.
      99925    2    3    3    0    0  0.61546046380E+02  0.45966638253E+02  0.19552526459E+03  0.33654606413E+03  0.26293017425E+03 0.  0.
         25    1    4    4    0    0  0.30308933393E+02 -0.10826949801E+02  0.65471104387E+02  0.14480962639E+03  0.12509000000E+03 0.  0.
         25    1    3    3    0    0 -0.61546046380E+02 -0.45966638253E+02 -0.28214545663E+02  0.14948048817E+03  0.12509000000E+03 0.  0.
         25    1    4    4    0    0  0.31237112987E+02  0.56793588054E+02  0.13005416020E+03  0.19173643774E+03  0.12509000000E+03 0.  0.
<mgrwt>
<rscale>  2 0.45632109E+03</rscale>
<asrwt>0</asrwt>
<pdfrwt beam="1">  1       21 0.48039505E-01 0.45632109E+03</pdfrwt>
<pdfrwt beam="2">  1       21 0.23434988E-01 0.45632109E+03</pdfrwt>
<totfact> 0.65573571E+04</totfact>
</mgrwt>
</event>
<event>
 7    0  0.4770865E-002  0.4546848E+03  0.7546771E-02  0.1026334E+00
         21   -1    0    0  502  501  0.00000000000E+00  0.00000000000E+00  0.72507948239E+03  0.72507948239E+03  0.00000000000E+00 0.  1.
         21   -1    0    0  501  502 -0.00000000000E+00 -0.00000000000E+00 -0.71281234317E+02  0.71281234317E+02  0.00000000000E+00 0.  1.
      99926    2    1    2    0    0  0.00000000000E+00  0.00000000000E+00  0.65379824807E+03  0.79636071671E+03  0.45468477205E+03 0.  0.
      99925    2    3    3    0    0 -0.62877754320E+02  0.28792497325E+02  0.25315669690E+03  0.37098584613E+03  0.26222045106E+03 0.  0.
         25    1    3    3    0    0  0.62877754320E+02 -0.28792497325E+02  0.40064155118E+03  0.42537487058E+03  0.12509000000E+03 0.  0.
         25    1    4    4    0    0 -0.22829400622E+02  0.51572633761E+02  0.14137634664E+03  0.19701699819E+03  0.12509000000E+03 0.  0.
         25    1    4    4    0    0 -0.40048353699E+02 -0.22780136436E+02  0.11178035025E+03  0.17396884794E+03  0.12509000000E+03 0.  0.
<mgrwt>
<rscale>  2 0.45468477E+03</rscale>
<asrwt>0</asrwt>
<pdfrwt beam="1">  1       21 0.10662933E+00 0.45468477E+03</pdfrwt>
<pdfrwt beam="2">  1       21 0.10482535E-01 0.45468477E+03</pdfrwt>
<totfact> 0.48060132E+04</totfact>
</mgrwt>
</event>
<event>
 7    0  0.4770865E-002  0.4602369E+03  0.7546771E-02  0.1024713E+00
         21   -1    0    0  502  501  0.00000000000E+00  0.00000000000E+00  0.11920280735E+03  0.11920280735E+03  0.00000000000E+00 0. -1.
         21   -1    0    0  501  502 -0.00000000000E+00 -0.00000000000E+00 -0.44423865651E+03  0.44423865651E+03  0.00000000000E+00 0. -1.
      99926    2    1    2    0    0  0.00000000000E+00  0.00000000000E+00 -0.32503584916E+03  0.56344146387E+03  0.46023687376E+03 0.  0.
      99925    2    3    3    0    0  0.58776771390E+02  0.71763691296E+02 -0.11380894370E+03  0.30101233070E+03  0.26277597174E+03 0.  0.
         25    1    3    3    0    0 -0.58776771390E+02 -0.71763691296E+02 -0.21122690546E+03  0.26242913317E+03  0.12509000000E+03 0.  0.
         25    1    4    4    0    0  0.10540235600E+02  0.40056931281E+02 -0.93925803339E+02  0.16181847528E+03  0.12509000000E+03 0.  0.
         25    1    4    4    0    0  0.48236535790E+02  0.31706760015E+02 -0.19883140359E+02  0.13919385542E+03  0.12509000000E+03 0.  0.
<mgrwt>
<rscale>  2 0.46023687E+03</rscale>
<asrwt>0</asrwt>
<pdfrwt beam="1">  1       21 0.17529825E-01 0.46023687E+03</pdfrwt>
<pdfrwt beam="2">  1       21 0.65329213E-01 0.46023687E+03</pdfrwt>
<totfact> 0.58524901E+04</totfact>
</mgrwt>
</event>
<event>
 7    0  0.4770865E-002  0.4550153E+03  0.7546771E-02  0.1026237E+00
         21   -1    0    0  502  501  0.00000000000E+00  0.00000000000E+00  0.37966738384E+03  0.37966738384E+03  0.00000000000E+00 0. -1.
         21   -1    0    0  501  502 -0.00000000000E+00 -0.00000000000E+00 -0.13632915248E+03  0.13632915248E+03  0.00000000000E+00 0. -1.
      99926    2    1    2    0    0  0.00000000000E+00 -0.35527136788E-14  0.24333823136E+03  0.51599653631E+03  0.45501530815E+03 0.  0.
      99925    2    3    3    0    0  0.28039970115E+02  0.30805596226E+02  0.33736995699E+02  0.26837704844E+03  0.26296925784E+03 0.  0.
         25    1    4    4    0    0 -0.15422649701E+02  0.34563094468E+02  0.37104421111E+02  0.13585548126E+03  0.12509000000E+03 0.  0.
         25    1    4    4    0    0  0.43462619816E+02 -0.37574982415E+01 -0.33674254119E+01  0.13252156718E+03  0.12509000000E+03 0.  0.
         25    1    3    3    0    0 -0.28039970115E+02 -0.30805596226E+02  0.20960123566E+03  0.24761948787E+03  0.12509000000E+03 0.  0.
<mgrwt>
<rscale>  2 0.45501531E+03</rscale>
<asrwt>0</asrwt>
<pdfrwt beam="1">  1       21 0.55833438E-01 0.45501531E+03</pdfrwt>
<pdfrwt beam="2">  1       21 0.20048405E-01 0.45501531E+03</pdfrwt>
<totfact> 0.64153059E+04</totfact>
</mgrwt>
</event>
<event>
 7    0  0.4770865E-002  0.4566070E+03  0.7546771E-02  0.1025770E+00
         21   -1    0    0  502  501  0.00000000000E+00  0.00000000000E+00  0.29604087838E+03  0.29604087838E+03  0.00000000000E+00 0.  1.
         21   -1    0    0  501  502 -0.00000000000E+00 -0.00000000000E+00 -0.17606520707E+03  0.17606520707E+03  0.00000000000E+00 0.  1.
      99926    2    1    2    0    0 -0.35527136788E-14  0.00000000000E+00  0.11997567132E+03  0.47210608545E+03  0.45660704573E+03 0.  0.
      99925    2    3    3    0    0 -0.24427717228E+02 -0.79390722342E+02 -0.65853219874E+01  0.27572687757E+03  0.26283520385E+03 0.  0.
         25    1    3    3    0    0  0.24427717228E+02  0.79390722342E+02  0.12656099330E+03  0.19637920788E+03  0.12509000000E+03 0.  0.
         25    1    4    4    0    0  0.16788126278E+02 -0.17599041554E+02 -0.22411798122E+02  0.12938842391E+03  0.12509000000E+03 0.  0.
         25    1    4    4    0    0 -0.41215843506E+02 -0.61791680788E+02  0.15826476135E+02  0.14633845365E+03  0.12509000000E+03 0.  0.
<mgrwt>
<rscale>  2 0.45660705E+03</rscale>
<asrwt>0</asrwt>
<pdfrwt beam="1">  1       21 0.43535423E-01 0.45660705E+03</pdfrwt>
<pdfrwt beam="2">  1       21 0.25891942E-01 0.45660705E+03</pdfrwt>
<totfact> 0.66428436E+04</totfact>
</mgrwt>
</event>
<event>
 7    0  0.4770865E-002  0.4552121E+03  0.7546771E-02  0.1026179E+00
         21   -1    0    0  502  501  0.00000000000E+00  0.00000000000E+00  0.20585811629E+03  0.20585811629E+03  0.00000000000E+00 0. -1.
         21   -1    0    0  501  502 -0.00000000000E+00 -0.00000000000E+00 -0.25165153172E+03  0.25165153172E+03  0.00000000000E+00 0. -1.
      99926    2    1    2    0    0  0.00000000000E+00 -0.35527136788E-14 -0.45793415432E+02  0.45750964802E+03  0.45521208368E+03 0.  0.
      99925    2    3    3    0    0  0.10299590021E+03  0.43253827445E+01 -0.76236513415E+02  0.29258192230E+03  0.26299298637E+03 0.  0.
         25    1    4    4    0    0  0.88640062393E+02 -0.17026940395E+02 -0.32931104230E+02  0.15773060288E+03  0.12509000000E+03 0.  0.
         25    1    4    4    0    0  0.14355837818E+02  0.21352323140E+02 -0.43305409185E+02  0.13485131941E+03  0.12509000000E+03 0.  0.
         25    1    3    3    0    0 -0.10299590021E+03 -0.43253827445E+01  0.30443097983E+02  0.16492772572E+03  0.12509000000E+03 0.  0.
<mgrwt>
<rscale>  2 0.45521208E+03</rscale>
<asrwt>0</asrwt>
<pdfrwt beam="1">  1       21 0.30273253E-01 0.45521208E+03</pdfrwt>
<pdfrwt beam="2">  1       21 0.37007578E-01 0.45521208E+03</pdfrwt>
<totfact> 0.68246761E+04</totfact>
</mgrwt>
</event>
<event>
 7    0  0.4770865E-002  0.4515870E+03  0.7546771E-02  0.1027250E+00
         21   -1    0    0  502  501  0.00000000000E+00  0.00000000000E+00  0.23330891023E+03  0.23330891023E+03  0.00000000000E+00 0.  1.
         21   -1    0    0  501  502 -0.00000000000E+00 -0.00000000000E+00 -0.21852021562E+03  0.21852021562E+03  0.00000000000E+00 0.  1.
      99926    2    1    2    0    0  0.00000000000E+00  0.00000000000E+00  0.14788694609E+02  0.45182912585E+03  0.45158703866E+03 0.  0.
      99925    2    3    3    0    0  0.18980608512E+02 -0.72080619444E+02 -0.71585885803E+02  0.28252479797E+03  0.26294456302E+03 0.  0.
         25    1    3    3    0    0 -0.18980608512E+02  0.72080619444E+02  0.86374580413E+02  0.16930432788E+03  0.12509000000E+03 0.  0.
         25    1    4    4    0    0 -0.13179284790E+02 -0.82135653196E+01 -0.12055736849E+02  0.12662545200E+03  0.12509000000E+03 0.  0.
         25    1    4    4    0    0  0.32159893303E+02 -0.63867054124E+02 -0.59530148954E+02  0.15589934597E+03  0.12509000000E+03 0.  0.
<mgrwt>
<rscale>  2 0.45158704E+03</rscale>
<asrwt>0</asrwt>
<pdfrwt beam="1">  1       21 0.34310134E-01 0.45158704E+03</pdfrwt>
<pdfrwt beam="2">  1       21 0.32135326E-01 0.45158704E+03</pdfrwt>
<totfact> 0.70684055E+04</totfact>
</mgrwt>
</event>
<event>
 7    0  0.4770865E-002  0.4540634E+03  0.7546771E-02  0.1026517E+00
         21   -1    0    0  502  501  0.00000000000E+00  0.00000000000E+00  0.42927940851E+03  0.42927940851E+03  0.00000000000E+00 0.  1.
         21   -1    0    0  501  502 -0.00000000000E+00 -0.00000000000E+00 -0.12006954504E+03  0.12006954504E+03  0.00000000000E+00 0.  1.
      99926    2    1    2    0    0  0.00000000000E+00  0.00000000000E+00  0.30920986347E+03  0.54934895354E+03  0.45406335801E+03 0.  0.
      99925    2    3    3    0    0 -0.74543137017E+02 -0.75550766511E+02  0.23973663520E+03  0.37119555014E+03  0.26276964169E+03 0.  0.
         25    1    3    3    0    0  0.74543137017E+02  0.75550766511E+02  0.69473228273E+02  0.17815340340E+03  0.12509000000E+03 0.  0.
         25    1    4    4    0    0 -0.45499637675E+02 -0.77264847513E+02  0.14656258933E+03  0.21252805551E+03  0.12509000000E+03 0.  0.
         25    1    4    4    0    0 -0.29043499341E+02  0.17140810025E+01  0.93174045867E+02  0.15866749463E+03  0.12509000000E+03 0.  0.
<mgrwt>
<rscale>  2 0.45406336E+03</rscale>
<asrwt>0</asrwt>
<pdfrwt beam="1">  1       21 0.63129324E-01 0.45406336E+03</pdfrwt>
<pdfrwt beam="2">  1       21 0.17657286E-01 0.45406336E+03</pdfrwt>
<totfact> 0.62370481E+04</totfact>
</mgrwt>
</event>
<event>
 7    0  0.4770865E-002  0.4652800E+03  0.7546771E-02  0.1023261E+00
         21   -1    0    0  502  501  0.00000000000E+00  0.00000000000E+00  0.24829130100E+03  0.24829130100E+03  0.00000000000E+00 0.  1.
         21   -1    0    0  501  502 -0.00000000000E+00 -0.00000000000E+00 -0.21797526426E+03  0.21797526426E+03  0.00000000000E+00 0.  1.
      99926    2    1    2    0    0  0.00000000000E+00  0.00000000000E+00  0.30316036735E+02  0.46626656526E+03  0.46527996711E+03 0.  0.
      99925    2    3    3    0    0  0.30862586014E+02 -0.29017098240E+02 -0.96165654167E+02  0.28340154006E+03  0.26319975050E+03 0.  0.
         25    1    4    4    0    0  0.28942384026E+02  0.20805212714E+02 -0.63954630064E+02  0.14494213078E+03  0.12509000000E+03 0.  0.
         25    1    3    3    0    0 -0.30862586014E+02  0.29017098240E+02  0.12648169090E+03  0.18286502519E+03  0.12509000000E+03 0.  0.
         25    1    4    4    0    0  0.19202019886E+01 -0.49822310954E+02 -0.32211024103E+02  0.13845940928E+03  0.12509000000E+03 0.  0.
<mgrwt>
<rscale>  2 0.46527997E+03</rscale>
<asrwt>0</asrwt>
<pdfrwt beam="1">  1       21 0.36513427E-01 0.46527997E+03</pdfrwt>
<pdfrwt beam="2">  1       21 0.32055186E-01 0.46527997E+03</pdfrwt>
<totfact> 0.62446866E+04</totfact>
</mgrwt>
</event>
<event>
 7    0  0.4770865E-002  0.4310604E+03  0.7546771E-02  0.1033526E+00
         21   -1    0    0  502  501  0.00000000000E+00  0.00000000000E+00  0.15213707021E+03  0.15213707021E+03  0.00000000000E+00 0.  1.
         21   -1    0    0  501  502 -0.00000000000E+00 -0.00000000000E+00 -0.30533825206E+03  0.30533825206E+03  0.00000000000E+00 0.  1.
      99926    2    1    2    0    0  0.26645352591E-14  0.00000000000E+00 -0.15320118186E+03  0.45747532227E+03  0.43106039990E+03 0.  0.
      99925    2    3    3    0    0  0.35509947440E+01  0.23831272411E+02 -0.75366415075E+01  0.26396510155E+03  0.26275508513E+03 0.  0.
         25    1    4    4    0    0 -0.23265112342E+02 -0.97541428434E+01 -0.26541960250E+02  0.13033952781E+03  0.12509000000E+03 0.  0.
         25    1    4    4    0    0  0.26816107086E+02  0.33585415254E+02  0.19005318743E+02  0.13362557374E+03  0.12509000000E+03 0.  0.
         25    1    3    3    0    0 -0.35509947440E+01 -0.23831272411E+02 -0.14566454035E+03  0.19351022072E+03  0.12509000000E+03 0.  0.
<mgrwt>
<rscale>  2 0.43106040E+03</rscale>
<asrwt>0</asrwt>
<pdfrwt beam="1">  1       21 0.22373099E-01 0.43106040E+03</pdfrwt>
<pdfrwt beam="2">  1       21 0.44902684E-01 0.43106040E+03</pdfrwt>
<totfact> 0.83072290E+04</totfact>
</mgrwt>
</event>
<event>
 7    0  0.4770865E-002  0.4557038E+03  0.7546771E-02  0.1026035E+00
         21   -1    0    0  502  501  0.00000000000E+00  0.00000000000E+00  0.28396357524E+04  0.28396357524E+04  0.00000000000E+00 0.  1.
         21   -1    0    0  501  502 -0.00000000000E+00 -0.00000000000E+00 -0.18282795785E+02  0.18282795785E+02  0.00000000000E+00 0.  1.
      99926    2    1    2    0    0  0.35527136788E-14 -0.71054273576E-14  0.28213529566E+04  0.28579185482E+04  0.45570376591E+03 0.  0.
      99925    2    3    3    0    0  0.24484059725E+02 -0.36136586462E+02  0.24336213536E+04  0.24481764023E+04  0.26296289068E+03 0.  0.
         25    1    4    4    0    0  0.26750418682E+02 -0.53378644544E+02  0.14089038590E+04  0.14157056391E+04  0.12509000000E+03 0.  0.
         25    1    3    3    0    0 -0.24484059725E+02  0.36136586462E+02  0.38773160302E+03  0.40974214591E+03  0.12509000000E+03 0.  0.
         25    1    4    4    0    0 -0.22663589565E+01  0.17242058082E+02  0.10247174946E+04  0.10324707631E+04  0.12509000000E+03 0.  0.
<mgrwt>
<rscale>  2 0.45570377E+03</rscale>
<asrwt>0</asrwt>
<pdfrwt beam="1">  1       21 0.41759319E+00 0.45570377E+03</pdfrwt>
<pdfrwt beam="2">  1       21 0.26886484E-02 0.45570377E+03</pdfrwt>
<totfact> 0.40967527E+03</totfact>
</mgrwt>
</event>
<event>
 7    0  0.4770865E-002  0.4671747E+03  0.7546771E-02  0.1022721E+00
         21   -1    0    0  502  501  0.00000000000E+00  0.00000000000E+00  0.76552417125E+03  0.76552417125E+03  0.00000000000E+00 0. -1.
         21   -1    0    0  501  502 -0.00000000000E+00 -0.00000000000E+00 -0.71275403646E+02  0.71275403646E+02  0.00000000000E+00 0. -1.
      99926    2    1    2    0    0 -0.17763568394E-14  0.14210854715E-13  0.69424876760E+03  0.83679957490E+03  0.46717467528E+03 0.  0.
      99925    2    3    3    0    0 -0.10482372850E+02  0.12380986874E+03  0.43147238331E+03  0.52035416099E+03  0.26298530674E+03 0.  0.
         25    1    4    4    0    0  0.30086476773E+01  0.92741072282E+02  0.18453202327E+03  0.24147367178E+03  0.12509000000E+03 0.  0.
         25    1    3    3    0    0  0.10482372850E+02 -0.12380986874E+03  0.26277638429E+03  0.31644541390E+03  0.12509000000E+03 0.  0.
         25    1    4    4    0    0 -0.13491020527E+02  0.31068796461E+02  0.24694036004E+03  0.27888048922E+03  0.12509000000E+03 0.  0.
<mgrwt>
<rscale>  2 0.46717468E+03</rscale>
<asrwt>0</asrwt>
<pdfrwt beam="1">  1       21 0.11257708E+00 0.46717468E+03</pdfrwt>
<pdfrwt beam="2">  1       21 0.10481677E-01 0.46717468E+03</pdfrwt>
<totfact> 0.41888908E+04</totfact>
</mgrwt>
</event>
<event>
 7    0  0.4770865E-002  0.4606091E+03  0.7546771E-02  0.1024605E+00
         21   -1    0    0  502  501  0.00000000000E+00  0.00000000000E+00  0.17389598027E+03  0.17389598027E+03  0.00000000000E+00 0.  1.
         21   -1    0    0  501  502 -0.00000000000E+00 -0.00000000000E+00 -0.30501102298E+03  0.30501102298E+03  0.00000000000E+00 0.  1.
      99926    2    1    2    0    0  0.00000000000E+00  0.00000000000E+00 -0.13111504271E+03  0.47890700325E+03  0.46060912207E+03 0.  0.
      99925    2    3    3    0    0 -0.48094764389E+02  0.10664278243E+03 -0.66561487229E+02  0.29587569710E+03  0.26348853324E+03 0.  0.
         25    1    4    4    0    0  0.15503315495E+02  0.38524100426E+02 -0.21812001495E+02  0.13359539893E+03  0.12509000000E+03 0.  0.
         25    1    4    4    0    0 -0.63598079884E+02  0.68118682001E+02 -0.44749485734E+02  0.16228029818E+03  0.12509000000E+03 0.  0.
         25    1    3    3    0    0  0.48094764389E+02 -0.10664278243E+03 -0.64553555479E+02  0.18303130615E+03  0.12509000000E+03 0.  0.
<mgrwt>
<rscale>  2 0.46060912E+03</rscale>
<asrwt>0</asrwt>
<pdfrwt beam="1">  1       21 0.25572939E-01 0.46060912E+03</pdfrwt>
<pdfrwt beam="2">  1       21 0.44854562E-01 0.46060912E+03</pdfrwt>
<totfact> 0.63888108E+04</totfact>
</mgrwt>
</event>
<event>
 7    0  0.4770865E-002  0.4587112E+03  0.7546771E-02  0.1025156E+00
         21   -1    0    0  502  501  0.00000000000E+00  0.00000000000E+00  0.23296374544E+04  0.23296374544E+04  0.00000000000E+00 0. -1.
         21   -1    0    0  501  502 -0.00000000000E+00 -0.00000000000E+00 -0.22580330496E+02  0.22580330496E+02  0.00000000000E+00 0. -1.
      99926    2    1    2    0    0  0.00000000000E+00  0.00000000000E+00  0.23070571239E+04  0.23522177849E+04  0.45871116689E+03 0.  0.
      99925    2    3    3    0    0  0.15082083434E+02 -0.72667276239E+02  0.98507475078E+03  0.10222580467E+04  0.26292821671E+03 0.  0.
         25    1    4    4    0    0  0.50736776141E+01 -0.81552337728E+01  0.35317927658E+03  0.37480042629E+03  0.12509000000E+03 0.  0.
         25    1    4    4    0    0  0.10008405820E+02 -0.64512042467E+02  0.63189547420E+03  0.64745762041E+03  0.12509000000E+03 0.  0.
         25    1    3    3    0    0 -0.15082083434E+02  0.72667276239E+02  0.13219823731E+04  0.13299597382E+04  0.12509000000E+03 0.  0.
<mgrwt>
<rscale>  2 0.45871117E+03</rscale>
<asrwt>0</asrwt>
<pdfrwt beam="1">  1       21 0.34259358E+00 0.45871117E+03</pdfrwt>
<pdfrwt beam="2">  1       21 0.33206384E-02 0.45871117E+03</pdfrwt>
<totfact> 0.85163126E+03</totfact>
</mgrwt>
</event>
<event>
 7    0  0.4770865E-002  0.4524864E+03  0.7546771E-02  0.1026983E+00
         21   -1    0    0  502  501  0.00000000000E+00  0.00000000000E+00  0.31783913605E+03  0.31783913605E+03  0.00000000000E+00 0.  1.
         21   -1    0    0  501  502 -0.00000000000E+00 -0.00000000000E+00 -0.16104369271E+03  0.16104369271E+03  0.00000000000E+00 0.  1.
      99926    2    1    2    0    0  0.14210854715E-13  0.00000000000E+00  0.15679544334E+03  0.47888282876E+03  0.45248641154E+03 0.  0.
      99925    2    3    3    0    0  0.82262426730E+02  0.26729908759E+02  0.17214810594E+03  0.32602731782E+03  0.26301567770E+03 0.  0.
         25    1    3    3    0    0 -0.82262426730E+02 -0.26729908759E+02 -0.15352662601E+02  0.15285551093E+03  0.12509000000E+03 0.  0.
         25    1    4    4    0    0  0.34904319675E+02 -0.20729221034E+01  0.12775409679E+03  0.18218459288E+03  0.12509000000E+03 0.  0.
         25    1    4    4    0    0  0.47358107055E+02  0.28802830862E+02  0.44394009156E+02  0.14384272494E+03  0.12509000000E+03 0.  0.
<mgrwt>
<rscale>  2 0.45248641E+03</rscale>
<asrwt>0</asrwt>
<pdfrwt beam="1">  1       21 0.46741049E-01 0.45248641E+03</pdfrwt>
<pdfrwt beam="2">  1       21 0.23682896E-01 0.45248641E+03</pdfrwt>
<totfact> 0.68130717E+04</totfact>
</mgrwt>
</event>
<event>
 7    0  0.4770865E-002  0.4556155E+03  0.7546771E-02  0.1026061E+00
         21   -1    0    0  502  501  0.00000000000E+00  0.00000000000E+00  0.85965184814E+03  0.85965184814E+03  0.00000000000E+00 0.  1.
         21   -1    0    0  501  502 -0.00000000000E+00 -0.00000000000E+00 -0.60369054920E+02  0.60369054920E+02  0.00000000000E+00 0.  1.
      99926    2    1    2    0    0  0.00000000000E+00  0.00000000000E+00  0.79928279322E+03  0.92002090306E+03  0.45561549417E+03 0.  0.
      99925    2    3    3    0    0 -0.94956719105E+02 -0.62124973211E+02  0.48694594672E+03  0.56494611575E+03  0.26300469174E+03 0.  0.
         25    1    3    3    0    0  0.94956719105E+02  0.62124973211E+02  0.31233684650E+03  0.35507478730E+03  0.12509000000E+03 0.  0.
         25    1    4    4    0    0 -0.75356375847E+02 -0.61071175428E+02  0.29921654003E+03  0.33850600848E+03  0.12509000000E+03 0.  0.
         25    1    4    4    0    0 -0.19600343258E+02 -0.10537977828E+01  0.18772940670E+03  0.22644010728E+03  0.12509000000E+03 0.  0.
<mgrwt>
<rscale>  2 0.45561549E+03</rscale>
<asrwt>0</asrwt>
<pdfrwt beam="1">  1       21 0.12641938E+00 0.45561549E+03</pdfrwt>
<pdfrwt beam="2">  1       21 0.88778027E-02 0.45561549E+03</pdfrwt>
<totfact> 0.42175851E+04</totfact>
</mgrwt>
</event>
<event>
 7    0  0.4770865E-002  0.4520320E+03  0.7546771E-02  0.1027118E+00
         21   -1    0    0  502  501  0.00000000000E+00  0.00000000000E+00  0.28695891788E+02  0.28695891788E+02  0.00000000000E+00 0.  1.
         21   -1    0    0  501  502 -0.00000000000E+00 -0.00000000000E+00 -0.17801582899E+04  0.17801582899E+04  0.00000000000E+00 0.  1.
      99926    2    1    2    0    0  0.00000000000E+00 -0.14210854715E-13 -0.17514623981E+04  0.18088541817E+04  0.45203198848E+03 0.  0.
      99925    2    3    3    0    0 -0.41500559560E+02  0.98210416537E+02 -0.99133927156E+03  0.10311638462E+04  0.26301662290E+03 0.  0.
         25    1    4    4    0    0 -0.38438243685E+02  0.37191738055E+02 -0.61587769654E+03  0.63072463814E+03  0.12509000000E+03 0.  0.
         25    1    3    3    0    0  0.41500559560E+02 -0.98210416537E+02 -0.76012312652E+03  0.77769033550E+03  0.12509000000E+03 0.  0.
         25    1    4    4    0    0 -0.30623158747E+01  0.61018678482E+02 -0.37546157502E+03  0.40043920802E+03  0.12509000000E+03 0.  0.
<mgrwt>
<rscale>  2 0.45203199E+03</rscale>
<asrwt>0</asrwt>
<pdfrwt beam="1">  1       21 0.42199834E-02 0.45203199E+03</pdfrwt>
<pdfrwt beam="2">  1       21 0.26178803E+00 0.45203199E+03</pdfrwt>
<totfact> 0.17489458E+04</totfact>
</mgrwt>
</event>
<event>
 7    0  0.4770865E-002  0.4774574E+03  0.7546771E-02  0.1019836E+00
         21   -1    0    0  502  501  0.00000000000E+00  0.00000000000E+00  0.18454549149E+03  0.18454549149E+03  0.00000000000E+00 0. -1.
         21   -1    0    0  501  502 -0.00000000000E+00 -0.00000000000E+00 -0.30882032683E+03  0.30882032683E+03  0.00000000000E+00 0. -1.
      99926    2    1    2    0    0  0.14210854715E-13  0.00000000000E+00 -0.12427483535E+03  0.49336581832E+03  0.47745742846E+03 0.  0.
      99925    2    3    3    0    0 -0.94486126021E+02  0.93768378108E+02 -0.74371999475E+02  0.30400389535E+03  0.26299626868E+03 0.  0.
         25    1    3    3    0    0  0.94486126021E+02 -0.93768378108E+02 -0.49902835871E+02  0.18936192297E+03  0.12509000000E+03 0.  0.
         25    1    4    4    0    0 -0.14104656774E+02  0.15903450161E+02 -0.29572857794E+02  0.13028400933E+03  0.12509000000E+03 0.  0.
         25    1    4    4    0    0 -0.80381469247E+02  0.77864927947E+02 -0.44799141680E+02  0.17371988602E+03  0.12509000000E+03 0.  0.
<mgrwt>
<rscale>  2 0.47745743E+03</rscale>
<asrwt>0</asrwt>
<pdfrwt beam="1">  1       21 0.27139043E-01 0.47745743E+03</pdfrwt>
<pdfrwt beam="2">  1       21 0.45414754E-01 0.47745743E+03</pdfrwt>
<totfact> 0.55220278E+04</totfact>
</mgrwt>
</event>
<event>
 7    0  0.4770865E-002  0.4430390E+03  0.7546771E-02  0.1029818E+00
         21   -1    0    0  502  501  0.00000000000E+00  0.00000000000E+00  0.31527166353E+03  0.31527166353E+03  0.00000000000E+00 0. -1.
         21   -1    0    0  501  502 -0.00000000000E+00 -0.00000000000E+00 -0.15564638098E+03  0.15564638098E+03  0.00000000000E+00 0. -1.
      99926    2    1    2    0    0  0.00000000000E+00 -0.71054273576E-14  0.15962528255E+03  0.47091804451E+03  0.44303902065E+03 0.  0.
      99925    2    3    3    0    0  0.75051470165E+02 -0.40489552964E+02  0.16040816853E+03  0.31952369824E+03  0.26285449613E+03 0.  0.
         25    1    4    4    0    0  0.27481220507E+02  0.43308146520E+01  0.40689662921E+02  0.13445121868E+03  0.12509000000E+03 0.  0.
         25    1    3    3    0    0 -0.75051470165E+02  0.40489552964E+02 -0.78288597337E+00  0.15139434627E+03  0.12509000000E+03 0.  0.
         25    1    4    4    0    0  0.47570249658E+02 -0.44820367616E+02  0.11971850561E+03  0.18507247956E+03  0.12509000000E+03 0.  0.
<mgrwt>
<rscale>  2 0.44303902E+03</rscale>
<asrwt>0</asrwt>
<pdfrwt beam="1">  1       21 0.46363480E-01 0.44303902E+03</pdfrwt>
<pdfrwt beam="2">  1       21 0.22889174E-01 0.44303902E+03</pdfrwt>
<totfact> 0.74161495E+04</totfact>
</mgrwt>
</event>
<event>
 7    0  0.4770865E-002  0.4512901E+03  0.7546771E-02  0.1027338E+00
         21   -1    0    0  502  501  0.00000000000E+00  0.00000000000E+00  0.50988281333E+04  0.50988281333E+04  0.00000000000E+00 0. -1.
         21   -1    0    0  501  502 -0.00000000000E+00 -0.00000000000E+00 -0.99857635391E+01  0.99857635391E+01  0.00000000000E+00 0. -1.
      99926    2    1    2    0    0  0.00000000000E+00  0.00000000000E+00  0.50888423698E+04  0.51088138969E+04  0.45129011541E+03 0.  0.
      99925    2    3    3    0    0  0.15510280174E+02 -0.96904439248E+02  0.37662539468E+04  0.37767032844E+04  0.26303586720E+03 0.  0.
         25    1    3    3    0    0 -0.15510280174E+02  0.96904439248E+02  0.13225884229E+04  0.13321106124E+04  0.12509000000E+03 0.  0.
         25    1    4    4    0    0  0.43288502078E+02 -0.43473687142E+02  0.21423973303E+04  0.21469228409E+04  0.12509000000E+03 0.  0.
         25    1    4    4    0    0 -0.27778221904E+02 -0.53430752106E+02  0.16238566165E+04  0.16297804435E+04  0.12509000000E+03 0.  0.
<mgrwt>
<rscale>  2 0.45129012E+03</rscale>
<asrwt>0</asrwt>
<pdfrwt beam="1">  1       21 0.74982585E+00 0.45129012E+03</pdfrwt>
<pdfrwt beam="2">  1       21 0.14684982E-02 0.45129012E+03</pdfrwt>
<totfact> 0.25166184E+01</totfact>
</mgrwt>
</event>
<event>
 7    0  0.4770865E-002  0.4665919E+03  0.7546771E-02  0.1022887E+00
         21   -1    0    0  502  501  0.00000000000E+00  0.00000000000E+00  0.10519782911E+04  0.10519782911E+04  0.00000000000E+00 0.  1.
         21   -1    0    0  501  502 -0.00000000000E+00 -0.00000000000E+00 -0.51737759843E+02  0.51737759843E+02  0.00000000000E+00 0.  1.
      99926    2    1    2    0    0  0.00000000000E+00  0.00000000000E+00  0.10002405313E+04  0.11037160510E+04  0.46659189957E+03 0.  0.
      99925    2    3    3    0    0 -0.87007220470E+01 -0.12815814232E+02  0.91370660248E+03  0.95082531680E+03  0.26261964891E+03 0.  0.
         25    1    3    3    0    0  0.87007220470E+01  0.12815814232E+02  0.86533928788E+02  0.15289073415E+03  0.12509000000E+03 0.  0.
         25    1    4    4    0    0  0.38575049714E+01 -0.44471888771E+02  0.42981609112E+03  0.44986888037E+03  0.12509000000E+03 0.  0.
         25    1    4    4    0    0 -0.12558227018E+02  0.31656074539E+02  0.48389051136E+03  0.50095643643E+03  0.12509000000E+03 0.  0.
<mgrwt>
<rscale>  2 0.46659190E+03</rscale>
<asrwt>0</asrwt>
<pdfrwt beam="1">  1       21 0.15470268E+00 0.46659190E+03</pdfrwt>
<pdfrwt beam="2">  1       21 0.76084947E-02 0.46659190E+03</pdfrwt>
<totfact> 0.32340675E+04</totfact>
</mgrwt>
</event>
<event>
 7    0  0.4770865E-002  0.4539057E+03  0.7546771E-02  0.1026564E+00
         21   -1    0    0  502  501  0.00000000000E+00  0.00000000000E+00  0.25571739677E+04  0.25571739677E+04  0.00000000000E+00 0.  1.
         21   -1    0    0  501  502 -0.00000000000E+00 -0.00000000000E+00 -0.20142388406E+02  0.20142388406E+02  0.00000000000E+00 0.  1.
      99926    2    1    2    0    0  0.14210854715E-13 -0.14210854715E-13  0.25370315793E+04  0.25773163561E+04  0.45390567865E+03 0.  0.
      99925    2    3    3    0    0  0.63920817461E+02 -0.74086290642E+02  0.12870477054E+04  0.13172838794E+04  0.26300261115E+03 0.  0.
         25    1    4    4    0    0  0.71097753283E+01 -0.51217935088E+01  0.64645268644E+03  0.65850236566E+03  0.12509000000E+03 0.  0.
         25    1    3    3    0    0 -0.63920817461E+02  0.74086290642E+02  0.12499838739E+04  0.12600324767E+04  0.12509000000E+03 0.  0.
         25    1    4    4    0    0  0.56811042132E+02 -0.68964497134E+02  0.64059501896E+03  0.65878151370E+03  0.12509000000E+03 0.  0.
<mgrwt>
<rscale>  2 0.45390568E+03</rscale>
<asrwt>0</asrwt>
<pdfrwt beam="1">  1       21 0.37605477E+00 0.45390568E+03</pdfrwt>
<pdfrwt beam="2">  1       21 0.29621177E-02 0.45390568E+03</pdfrwt>
<totfact> 0.64272907E+03</totfact>
</mgrwt>
</event>
<event>
 7    0  0.4770865E-002  0.4547607E+03  0.7546771E-02  0.1026312E+00
         21   -1    0    0  502  501  0.00000000000E+00  0.00000000000E+00  0.83243352275E+02  0.83243352275E+02  0.00000000000E+00 0.  1.
         21   -1    0    0  501  502 -0.00000000000E+00 -0.00000000000E+00 -0.62109263511E+03  0.62109263511E+03  0.00000000000E+00 0.  1.
      99926    2    1    2    0    0  0.00000000000E+00  0.00000000000E+00 -0.53784928283E+03  0.70433598738E+03  0.45476074158E+03 0.  0.
      99925    2    3    3    0    0  0.57331394645E+02  0.91902746334E+02 -0.38805205475E+03  0.48113266922E+03  0.26300426727E+03 0.  0.
         25    1    3    3    0    0 -0.57331394645E+02 -0.91902746334E+02 -0.14979722808E+03  0.22320331816E+03  0.12509000000E+03 0.  0.
         25    1    4    4    0    0 -0.44773665480E+01  0.59142646562E+02 -0.15781036605E+03  0.20992741409E+03  0.12509000000E+03 0.  0.
         25    1    4    4    0    0  0.61808761193E+02  0.32760099771E+02 -0.23024168870E+03  0.27120525514E+03  0.12509000000E+03 0.  0.
<mgrwt>
<rscale>  2 0.45476074E+03</rscale>
<asrwt>0</asrwt>
<pdfrwt beam="1">  1       21 0.12241669E-01 0.45476074E+03</pdfrwt>
<pdfrwt beam="2">  1       21 0.91337152E-01 0.45476074E+03</pdfrwt>
<totfact> 0.52767444E+04</totfact>
</mgrwt>
</event>
<event>
 7    0  0.4770865E-002  0.4526199E+03  0.7546771E-02  0.1026944E+00
         21   -1    0    0  502  501  0.00000000000E+00  0.00000000000E+00  0.65339719461E+03  0.65339719461E+03  0.00000000000E+00 0. -1.
         21   -1    0    0  501  502 -0.00000000000E+00 -0.00000000000E+00 -0.78384488261E+02  0.78384488261E+02  0.00000000000E+00 0. -1.
      99926    2    1    2    0    0  0.00000000000E+00  0.00000000000E+00  0.57501270635E+03  0.73178168287E+03  0.45261994976E+03 0.  0.
      99925    2    3    3    0    0  0.65022787982E+02  0.88280927284E+02  0.33465480346E+03  0.43947890379E+03  0.26291896910E+03 0.  0.
         25    1    4    4    0    0 -0.28056122837E+01  0.60029632861E+02  0.14511743386E+03  0.20079344111E+03  0.12509000000E+03 0.  0.
         25    1    4    4    0    0  0.67828400265E+02  0.28251294423E+02  0.18953736960E+03  0.23868546268E+03  0.12509000000E+03 0.  0.
         25    1    3    3    0    0 -0.65022787982E+02 -0.88280927284E+02  0.24035790289E+03  0.29230277908E+03  0.12509000000E+03 0.  0.
<mgrwt>
<rscale>  2 0.45261995E+03</rscale>
<asrwt>0</asrwt>
<pdfrwt beam="1">  1       21 0.96087820E-01 0.45261995E+03</pdfrwt>
<pdfrwt beam="2">  1       21 0.11527131E-01 0.45261995E+03</pdfrwt>
<totfact> 0.52180897E+04</totfact>
</mgrwt>
</event>
<event>
 7    0  0.4770865E-002  0.4653409E+03  0.7546771E-02  0.1023244E+00
         21   -1    0    0  502  501  0.00000000000E+00  0.00000000000E+00  0.66967962944E+02  0.66967962944E+02  0.00000000000E+00 0.  1.
         21   -1    0    0  501  502 -0.00000000000E+00 -0.00000000000E+00 -0.80837949360E+03  0.80837949360E+03  0.00000000000E+00 0.  1.
      99926    2    1    2    0    0  0.00000000000E+00  0.14210854715E-13 -0.74141153065E+03  0.87534745654E+03  0.46534085560E+03 0.  0.
      99925    2    3    3    0    0 -0.97811364807E+01 -0.10846380294E+03 -0.56837376771E+03  0.63566090564E+03  0.26297524591E+03 0.  0.
         25    1    3    3    0    0  0.97811364807E+01  0.10846380294E+03 -0.17303776295E+03  0.23968655090E+03  0.12509000000E+03 0.  0.
         25    1    4    4    0    0  0.10662260357E+02 -0.21490977055E+02 -0.30798873167E+03  0.33328683266E+03  0.12509000000E+03 0.  0.
         25    1    4    4    0    0 -0.20443396838E+02 -0.86972825882E+02 -0.26038503604E+03  0.30237407298E+03  0.12509000000E+03 0.  0.
<mgrwt>
<rscale>  2 0.46534086E+03</rscale>
<asrwt>0</asrwt>
<pdfrwt beam="1">  1       21 0.98482302E-02 0.46534086E+03</pdfrwt>
<pdfrwt beam="2">  1       21 0.11887933E+00 0.46534086E+03</pdfrwt>
<totfact> 0.40901882E+04</totfact>
</mgrwt>
</event>
<event>
 7    0  0.4770865E-002  0.4581040E+03  0.7546771E-02  0.1025333E+00
         21   -1    0    0  502  501  0.00000000000E+00  0.00000000000E+00  0.37196060630E+03  0.37196060630E+03  0.00000000000E+00 0. -1.
         21   -1    0    0  501  502 -0.00000000000E+00 -0.00000000000E+00 -0.14104942299E+03  0.14104942299E+03  0.00000000000E+00 0. -1.
      99926    2    1    2    0    0  0.00000000000E+00  0.00000000000E+00  0.23091118331E+03  0.51301002929E+03  0.45810404449E+03 0.  0.
      99925    2    3    3    0    0 -0.86946809417E+02  0.10609510659E+02  0.58721925131E+02  0.28286016917E+03  0.26246771502E+03 0.  0.
         25    1    3    3    0    0  0.86946809417E+02 -0.10609510659E+02  0.17218925818E+03  0.23014986013E+03  0.12509000000E+03 0.  0.
         25    1    4    4    0    0 -0.28969365820E+02  0.42030982995E+02  0.23524997639E+02  0.13713774572E+03  0.12509000000E+03 0.  0.
         25    1    4    4    0    0 -0.57977443598E+02 -0.31421472336E+02  0.35196927492E+02  0.14572242345E+03  0.12509000000E+03 0.  0.
<mgrwt>
<rscale>  2 0.45810404E+03</rscale>
<asrwt>0</asrwt>
<pdfrwt beam="1">  1       21 0.54700089E-01 0.45810404E+03</pdfrwt>
<pdfrwt beam="2">  1       21 0.20742562E-01 0.45810404E+03</pdfrwt>
<totfact> 0.62804566E+04</totfact>
</mgrwt>
</event>
<event>
 7    0  0.4770865E-002  0.4511839E+03  0.7546771E-02  0.1027370E+00
         21   -1    0    0  502  501  0.00000000000E+00  0.00000000000E+00  0.41648435962E+02  0.41648435962E+02  0.00000000000E+00 0. -1.
         21   -1    0    0  501  502 -0.00000000000E+00 -0.00000000000E+00 -0.12219362127E+04  0.12219362127E+04  0.00000000000E+00 0. -1.
      99926    2    1    2    0    0  0.14210854715E-13 -0.88817841970E-15 -0.11802877768E+04  0.12635846487E+04  0.45118391862E+03 0.  0.
      99925    2    3    3    0    0 -0.10835232273E+03 -0.79640761097E+01 -0.78517845141E+03  0.83514265794E+03  0.26297225370E+03 0.  0.
         25    1    4    4    0    0 -0.40234544719E+02  0.19083206820E+02 -0.28568098701E+03  0.31503035062E+03  0.12509000000E+03 0.  0.
         25    1    4    4    0    0 -0.68117778008E+02 -0.27047282930E+02 -0.49949746439E+03  0.52011230732E+03  0.12509000000E+03 0.  0.
         25    1    3    3    0    0  0.10835232273E+03  0.79640761097E+01 -0.39510932538E+03  0.42844199076E+03  0.12509000000E+03 0.  0.
<mgrwt>
<rscale>  2 0.45118392E+03</rscale>
<asrwt>0</asrwt>
<pdfrwt beam="1">  1       21 0.61247696E-02 0.45118392E+03</pdfrwt>
<pdfrwt beam="2">  1       21 0.17969651E+00 0.45118392E+03</pdfrwt>
<totfact> 0.31104473E+04</totfact>
</mgrwt>
</event>
<event>
 7    0  0.4770865E-002  0.4442919E+03  0.7546771E-02  0.1029438E+00
         21   -1    0    0  502  501  0.00000000000E+00  0.00000000000E+00  0.53463401091E+02  0.53463401091E+02  0.00000000000E+00 0. -1.
         21   -1    0    0  501  502 -0.00000000000E+00 -0.00000000000E+00 -0.92303935284E+03  0.92303935284E+03  0.00000000000E+00 0. -1.
      99926    2    1    2    0    0  0.00000000000E+00  0.00000000000E+00 -0.86957595175E+03  0.97650275393E+03  0.44429190019E+03 0.  0.
      99925    2    3    3    0    0 -0.58908672048E+02 -0.46874610363E+02 -0.70651126084E+03  0.75763050293E+03  0.26301778748E+03 0.  0.
         25    1    4    4    0    0 -0.29169147819E+02 -0.53889964280E+02 -0.29092178355E+03  0.32254915854E+03  0.12509000000E+03 0.  0.
         25    1    3    3    0    0  0.58908672048E+02  0.46874610363E+02 -0.16306469090E+03  0.21887225100E+03  0.12509000000E+03 0.  0.
         25    1    4    4    0    0 -0.29739524229E+02  0.70153539166E+01 -0.41558947730E+03  0.43508134439E+03  0.12509000000E+03 0.  0.
<mgrwt>
<rscale>  2 0.44429190E+03</rscale>
<asrwt>0</asrwt>
<pdfrwt beam="1">  1       21 0.78622651E-02 0.44429190E+03</pdfrwt>
<pdfrwt beam="2">  1       21 0.13574108E+00 0.44429190E+03</pdfrwt>
<totfact> 0.43624605E+04</totfact>
</mgrwt>
</event>
<event>
 7    0  0.4770865E-002  0.4520283E+03  0.7546771E-02  0.1027119E+00
         21   -1    0    0  502  501  0.00000000000E+00  0.00000000000E+00  0.17436062961E+03  0.17436062961E+03  0.00000000000E+00 0.  1.
         21   -1    0    0  501  502 -0.00000000000E+00 -0.00000000000E+00 -0.29296983450E+03  0.29296983450E+03  0.00000000000E+00 0.  1.
      99926    2    1    2    0    0  0.00000000000E+00  0.00000000000E+00 -0.11860920490E+03  0.46733046411E+03  0.45202833893E+03 0.  0.
      99925    2    3    3    0    0  0.27297369069E+02  0.56744952094E+02  0.18839533736E+02  0.27110406477E+03  0.26301587396E+03 0.  0.
         25    1    3    3    0    0 -0.27297369069E+02 -0.56744952094E+02 -0.13744873863E+03  0.19622639934E+03  0.12509000000E+03 0.  0.
         25    1    4    4    0    0  0.36565712189E+01 -0.68728834018E+00  0.36432292578E+02  0.13034056514E+03  0.12509000000E+03 0.  0.
         25    1    4    4    0    0  0.23640797851E+02  0.57432240434E+02 -0.17592758841E+02  0.14076349963E+03  0.12509000000E+03 0.  0.
<mgrwt>
<rscale>  2 0.45202834E+03</rscale>
<asrwt>0</asrwt>
<pdfrwt beam="1">  1       21 0.25641269E-01 0.45202834E+03</pdfrwt>
<pdfrwt beam="2">  1       21 0.43083799E-01 0.45202834E+03</pdfrwt>
<totfact> 0.69253002E+04</totfact>
</mgrwt>
</event>
<event>
 7    0  0.4770865E-002  0.4579532E+03  0.7546771E-02  0.1025377E+00
         21   -1    0    0  502  501  0.00000000000E+00  0.00000000000E+00  0.17574528896E+03  0.17574528896E+03  0.00000000000E+00 0.  1.
         21   -1    0    0  501  502 -0.00000000000E+00 -0.00000000000E+00 -0.29833111502E+03  0.29833111502E+03  0.00000000000E+00 0.  1.
      99926    2    1    2    0    0  0.00000000000E+00 -0.14210854715E-13 -0.12258582606E+03  0.47407640398E+03  0.45795322038E+03 0.  0.
      99925    2    3    3    0    0  0.88427140484E+02  0.73888364290E+02 -0.63866111136E+02  0.29414763315E+03  0.26299258618E+03 0.  0.
         25    1    3    3    0    0 -0.88427140484E+02 -0.73888364290E+02 -0.58719714921E+02  0.17992877083E+03  0.12509000000E+03 0.  0.
         25    1    4    4    0    0  0.22971677274E+02  0.44705367743E+02  0.38629830044E+01  0.13486548335E+03  0.12509000000E+03 0.  0.
         25    1    4    4    0    0  0.65455463209E+02  0.29182996547E+02 -0.67729094141E+02  0.15928214980E+03  0.12509000000E+03 0.  0.
<mgrwt>
<rscale>  2 0.45795322E+03</rscale>
<asrwt>0</asrwt>
<pdfrwt beam="1">  1       21 0.25844895E-01 0.45795322E+03</pdfrwt>
<pdfrwt beam="2">  1       21 0.43872223E-01 0.45795322E+03</pdfrwt>
<totfact> 0.65583623E+04</totfact>
</mgrwt>
</event>
<event>
 7    0  0.4770865E-002  0.4612654E+03  0.7546771E-02  0.1024415E+00
         21   -1    0    0  502  501  0.00000000000E+00  0.00000000000E+00  0.23010021779E+03  0.23010021779E+03  0.00000000000E+00 0. -1.
         21   -1    0    0  501  502 -0.00000000000E+00 -0.00000000000E+00 -0.23116639143E+03  0.23116639143E+03  0.00000000000E+00 0. -1.
      99926    2    1    2    0    0 -0.44408920985E-15 -0.35527136788E-14 -0.10661736371E+01  0.46126660923E+03  0.46126537704E+03 0.  0.
      99925    2    3    3    0    0  0.22760457112E+01 -0.26593050238E+02  0.11525671639E+03  0.28837677855E+03  0.26299179651E+03 0.  0.
         25    1    3    3    0    0 -0.22760457112E+01  0.26593050238E+02 -0.11632289003E+03  0.17288983067E+03  0.12509000000E+03 0.  0.
         25    1    4    4    0    0  0.17231966259E+02  0.24007853759E+02  0.58745633698E+02  0.14132188536E+03  0.12509000000E+03 0.  0.
         25    1    4    4    0    0 -0.14955920548E+02 -0.50600903997E+02  0.56511082694E+02  0.14705489319E+03  0.12509000000E+03 0.  0.
<mgrwt>
<rscale>  2 0.46126538E+03</rscale>
<asrwt>0</asrwt>
<pdfrwt beam="1">  1       21 0.33838267E-01 0.46126538E+03</pdfrwt>
<pdfrwt beam="2">  1       21 0.33995057E-01 0.46126538E+03</pdfrwt>
<totfact> 0.64789149E+04</totfact>
</mgrwt>
</event>
<event>
 7    0  0.4770865E-002  0.4566340E+03  0.7546771E-02  0.1025762E+00
         21   -1    0    0  502  501  0.00000000000E+00  0.00000000000E+00  0.27812660500E+03  0.27812660500E+03  0.00000000000E+00 0. -1.
         21   -1    0    0  501  502 -0.00000000000E+00 -0.00000000000E+00 -0.18742775652E+03  0.18742775652E+03  0.00000000000E+00 0. -1.
      99926    2    1    2    0    0  0.00000000000E+00  0.00000000000E+00  0.90698848484E+02  0.46555436152E+03  0.45663396984E+03 0.  0.
      99925    2    3    3    0    0 -0.45432441943E+02  0.97313700472E+02  0.15941818033E+02  0.28452899097E+03  0.26299912939E+03 0.  0.
         25    1    3    3    0    0  0.45432441943E+02 -0.97313700472E+02  0.74757030451E+02  0.18102537055E+03  0.12509000000E+03 0.  0.
         25    1    4    4    0    0 -0.14586686815E+02  0.13926628887E+02 -0.16184101538E+02  0.12773470815E+03  0.12509000000E+03 0.  0.
         25    1    4    4    0    0 -0.30845755128E+02  0.83387071585E+02  0.32125919571E+02  0.15679428282E+03  0.12509000000E+03 0.  0.
<mgrwt>
<rscale>  2 0.45663397E+03</rscale>
<asrwt>0</asrwt>
<pdfrwt beam="1">  1       21 0.40900972E-01 0.45663397E+03</pdfrwt>
<pdfrwt beam="2">  1       21 0.27562905E-01 0.45663397E+03</pdfrwt>
<totfact> 0.66895968E+04</totfact>
</mgrwt>
</event>
<event>
 7    0  0.4770865E-002  0.4596065E+03  0.7546771E-02  0.1024895E+00
         21   -1    0    0  502  501  0.00000000000E+00  0.00000000000E+00  0.33252579656E+03  0.33252579656E+03  0.00000000000E+00 0.  1.
         21   -1    0    0  501  502 -0.00000000000E+00 -0.00000000000E+00 -0.15881333308E+03  0.15881333308E+03  0.00000000000E+00 0.  1.
      99926    2    1    2    0    0  0.00000000000E+00 -0.17763568394E-14  0.17371246348E+03  0.49133912964E+03  0.45960648423E+03 0.  0.
      99925    2    3    3    0    0  0.83200954159E+02  0.95192383733E+01  0.19682082107E+03  0.33904166098E+03  0.26305474259E+03 0.  0.
         25    1    4    4    0    0  0.62124213893E+02  0.39524175379E+02  0.92921335466E+02  0.17234692070E+03  0.12509000000E+03 0.  0.
         25    1    3    3    0    0 -0.83200954159E+02 -0.95192383733E+01 -0.23108357590E+02  0.15229746867E+03  0.12509000000E+03 0.  0.
         25    1    4    4    0    0  0.21076740266E+02 -0.30004937006E+02  0.10389948561E+03  0.16669474027E+03  0.12509000000E+03 0.  0.
<mgrwt>
<rscale>  2 0.45960648E+03</rscale>
<asrwt>0</asrwt>
<pdfrwt beam="1">  1       21 0.48900853E-01 0.45960648E+03</pdfrwt>
<pdfrwt beam="2">  1       21 0.23354902E-01 0.45960648E+03</pdfrwt>
<totfact> 0.63528343E+04</totfact>
</mgrwt>
</event>
<event>
 7    0  0.4770865E-002  0.4561819E+03  0.7546771E-02  0.1025894E+00
         21   -1    0    0  502  501  0.00000000000E+00  0.00000000000E+00  0.78022515030E+02  0.78022515030E+02  0.00000000000E+00 0.  1.
         21   -1    0    0  501  502 -0.00000000000E+00 -0.00000000000E+00 -0.66680090798E+03  0.66680090798E+03  0.00000000000E+00 0.  1.
      99926    2    1    2    0    0 -0.14210854715E-13  0.00000000000E+00 -0.58877839295E+03  0.74482342301E+03  0.45618191049E+03 0.  0.
      99925    2    3    3    0    0 -0.95551841367E+02 -0.34919113942E+02 -0.45469625579E+03  0.53512119004E+03  0.26316630501E+03 0.  0.
         25    1    3    3    0    0  0.95551841367E+02  0.34919113942E+02 -0.13408213716E+03  0.20970223297E+03  0.12509000000E+03 0.  0.
         25    1    4    4    0    0 -0.46656912020E+02 -0.31819868658E+02 -0.30209851805E+03  0.33181379445E+03  0.12509000000E+03 0.  0.
         25    1    4    4    0    0 -0.48894929347E+02 -0.30992452846E+01 -0.15259773774E+03  0.20330739559E+03  0.12509000000E+03 0.  0.
<mgrwt>
<rscale>  2 0.45618191E+03</rscale>
<asrwt>0</asrwt>
<pdfrwt beam="1">  1       21 0.11473899E-01 0.45618191E+03</pdfrwt>
<pdfrwt beam="2">  1       21 0.98058956E-01 0.45618191E+03</pdfrwt>
<totfact> 0.50069184E+04</totfact>
</mgrwt>
</event>
<event>
 7    0  0.4770865E-002  0.4539855E+03  0.7546771E-02  0.1026540E+00
         21   -1    0    0  502  501  0.00000000000E+00  0.00000000000E+00  0.14862665661E+03  0.14862665661E+03  0.00000000000E+00 0. -1.
         21   -1    0    0  501  502 -0.00000000000E+00 -0.00000000000E+00 -0.34667877312E+03  0.34667877312E+03  0.00000000000E+00 0. -1.
      99926    2    1    2    0    0  0.00000000000E+00  0.00000000000E+00 -0.19805211651E+03  0.49530542972E+03  0.45398549301E+03 0.  0.
      99925    2    3    3    0    0  0.78998277194E+02 -0.65027199534E+02 -0.17489022011E+03  0.33204721087E+03  0.26305797209E+03 0.  0.
         25    1    4    4    0    0 -0.23790934104E+01 -0.28070452612E+02 -0.71991738891E+02  0.14705077002E+03  0.12509000000E+03 0.  0.
         25    1    4    4    0    0  0.81377370604E+02 -0.36956746923E+02 -0.10289848122E+03  0.18499644085E+03  0.12509000000E+03 0.  0.
         25    1    3    3    0    0 -0.78998277194E+02  0.65027199534E+02 -0.23161896395E+02  0.16325821885E+03  0.12509000000E+03 0.  0.
<mgrwt>
<rscale>  2 0.45398549E+03</rscale>
<asrwt>0</asrwt>
<pdfrwt beam="1">  1       21 0.21856861E-01 0.45398549E+03</pdfrwt>
<pdfrwt beam="2">  1       21 0.50982172E-01 0.45398549E+03</pdfrwt>
<totfact> 0.66132745E+04</totfact>
</mgrwt>
</event>
<event>
 7    0  0.4770865E-002  0.4479172E+03  0.7546771E-02  0.1028345E+00
         21   -1    0    0  502  501  0.00000000000E+00  0.00000000000E+00  0.26428712554E+03  0.26428712554E+03  0.00000000000E+00 0.  1.
         21   -1    0    0  501  502 -0.00000000000E+00 -0.00000000000E+00 -0.18978396898E+03  0.18978396898E+03  0.00000000000E+00 0.  1.
      99926    2    1    2    0    0 -0.71054273576E-14  0.00000000000E+00  0.74503156557E+02  0.45407109452E+03  0.44791722286E+03 0.  0.
      99925    2    3    3    0    0  0.63950367040E+02  0.35029287198E+02 -0.31281005780E+02  0.27475434263E+03  0.26304894424E+03 0.  0.
         25    1    4    4    0    0  0.14716469788E+02  0.29218724027E+02  0.19847980808E+02  0.13081192132E+03  0.12509000000E+03 0.  0.
         25    1    4    4    0    0  0.49233897252E+02  0.58105631712E+01 -0.51128986589E+02  0.14394242131E+03  0.12509000000E+03 0.  0.
         25    1    3    3    0    0 -0.63950367040E+02 -0.35029287198E+02  0.10578416234E+03  0.17931675189E+03  0.12509000000E+03 0.  0.
<mgrwt>
<rscale>  2 0.44791722E+03</rscale>
<asrwt>0</asrwt>
<pdfrwt beam="1">  1       21 0.38865754E-01 0.44791722E+03</pdfrwt>
<pdfrwt beam="2">  1       21 0.27909407E-01 0.44791722E+03</pdfrwt>
<totfact> 0.72631172E+04</totfact>
</mgrwt>
</event>
<event>
 7    0  0.4770865E-002  0.4754925E+03  0.7546771E-02  0.1020381E+00
         21   -1    0    0  502  501  0.00000000000E+00  0.00000000000E+00  0.26163314113E+03  0.26163314113E+03  0.00000000000E+00 0.  1.
         21   -1    0    0  501  502 -0.00000000000E+00 -0.00000000000E+00 -0.21604018080E+03  0.21604018080E+03  0.00000000000E+00 0.  1.
      99926    2    1    2    0    0  0.00000000000E+00  0.00000000000E+00  0.45592960331E+02  0.47767332194E+03  0.47549246520E+03 0.  0.
      99925    2    3    3    0    0 -0.10213015877E+03 -0.71180017333E+02 -0.14166752568E+02  0.29135130074E+03  0.26303558574E+03 0.  0.
         25    1    3    3    0    0  0.10213015877E+03  0.71180017333E+02  0.59759712900E+02  0.18632202120E+03  0.12509000000E+03 0.  0.
         25    1    4    4    0    0 -0.59564688700E+02  0.17260967002E+01  0.81478929356E+01  0.13879779468E+03  0.12509000000E+03 0.  0.
         25    1    4    4    0    0 -0.42565470071E+02 -0.72906114033E+02 -0.22314645504E+02  0.15255350606E+03  0.12509000000E+03 0.  0.
<mgrwt>
<rscale>  2 0.47549247E+03</rscale>
<asrwt>0</asrwt>
<pdfrwt beam="1">  1       21 0.38475462E-01 0.47549247E+03</pdfrwt>
<pdfrwt beam="2">  1       21 0.31770615E-01 0.47549247E+03</pdfrwt>
<totfact> 0.57008763E+04</totfact>
</mgrwt>
</event>
<event>
 7    0  0.4770865E-002  0.4541106E+03  0.7546771E-02  0.1026503E+00
         21   -1    0    0  502  501  0.00000000000E+00  0.00000000000E+00  0.49394912238E+03  0.49394912238E+03  0.00000000000E+00 0. -1.
         21   -1    0    0  501  502 -0.00000000000E+00 -0.00000000000E+00 -0.10437129542E+03  0.10437129542E+03  0.00000000000E+00 0. -1.
      99926    2    1    2    0    0  0.00000000000E+00  0.00000000000E+00  0.38957782696E+03  0.59832041780E+03  0.45411060228E+03 0.  0.
      99925    2    3    3    0    0  0.81261886930E+02 -0.77250270983E+02  0.25080258320E+03  0.38042784103E+03  0.26315833229E+03 0.  0.
         25    1    4    4    0    0  0.38101454064E+02 -0.15538029121E+02  0.73725916878E+02  0.15091775929E+03  0.12509000000E+03 0.  0.
         25    1    3    3    0    0 -0.81261886930E+02  0.77250270983E+02  0.13877524376E+03  0.21789257678E+03  0.12509000000E+03 0.  0.
         25    1    4    4    0    0  0.43160432867E+02 -0.61712241862E+02  0.17707666632E+03  0.22951008173E+03  0.12509000000E+03 0.  0.
<mgrwt>
<rscale>  2 0.45411060E+03</rscale>
<asrwt>0</asrwt>
<pdfrwt beam="1">  1       21 0.72639576E-01 0.45411060E+03</pdfrwt>
<pdfrwt beam="2">  1       21 0.15348720E-01 0.45411060E+03</pdfrwt>
<totfact> 0.59196688E+04</totfact>
</mgrwt>
</event>
<event>
 7    0  0.4770865E-002  0.4423166E+03  0.7546771E-02  0.1030038E+00
         21   -1    0    0  502  501  0.00000000000E+00  0.00000000000E+00  0.80128399292E+03  0.80128399292E+03  0.00000000000E+00 0.  1.
         21   -1    0    0  501  502 -0.00000000000E+00 -0.00000000000E+00 -0.61040779686E+02  0.61040779686E+02  0.00000000000E+00 0.  1.
      99926    2    1    2    0    0 -0.35527136788E-14  0.00000000000E+00  0.74024321323E+03  0.86232477260E+03  0.44231662721E+03 0.  0.
      99925    2    3    3    0    0 -0.22667691838E+02 -0.20644121136E+02  0.28407130295E+03  0.38832021163E+03  0.26297543157E+03 0.  0.
         25    1    4    4    0    0  0.18260804205E+02  0.17699772430E+02  0.13455734031E+03  0.18547216731E+03  0.12509000000E+03 0.  0.
         25    1    3    3    0    0  0.22667691838E+02  0.20644121136E+02  0.45617191028E+03  0.47400456097E+03  0.12509000000E+03 0.  0.
         25    1    4    4    0    0 -0.40928496043E+02 -0.38343893566E+02  0.14951396264E+03  0.20284804432E+03  0.12509000000E+03 0.  0.
<mgrwt>
<rscale>  2 0.44231663E+03</rscale>
<asrwt>0</asrwt>
<pdfrwt beam="1">  1       21 0.11783588E+00 0.44231663E+03</pdfrwt>
<pdfrwt beam="2">  1       21 0.89765857E-02 0.44231663E+03</pdfrwt>
<totfact> 0.49650703E+04</totfact>
</mgrwt>
</event>
<event>
 7    0  0.4770865E-002  0.4805359E+03  0.7546771E-02  0.1018988E+00
         21   -1    0    0  502  501  0.00000000000E+00  0.00000000000E+00  0.85285488555E+03  0.85285488555E+03  0.00000000000E+00 0. -1.
         21   -1    0    0  501  502 -0.00000000000E+00 -0.00000000000E+00 -0.67688755325E+02  0.67688755325E+02  0.00000000000E+00 0. -1.
      99926    2    1    2    0    0  0.00000000000E+00 -0.71054273576E-14  0.78516613023E+03  0.92054364088E+03  0.48053589117E+03 0.  0.
      99925    2    3    3    0    0 -0.81650357304E+02 -0.32503984155E+02  0.68190130058E+03  0.73605943295E+03  0.26281327071E+03 0.  0.
         25    1    4    4    0    0 -0.80797463523E+02 -0.20231499773E+02  0.33785213465E+03  0.36976900449E+03  0.12509000000E+03 0.  0.
         25    1    3    3    0    0  0.81650357304E+02  0.32503984155E+02  0.10326482965E+03  0.18448420793E+03  0.12509000000E+03 0.  0.
         25    1    4    4    0    0 -0.85289378078E+00 -0.12272484381E+02  0.34404916593E+03  0.36629042846E+03  0.12509000000E+03 0.  0.
<mgrwt>
<rscale>  2 0.48053589E+03</rscale>
<asrwt>0</asrwt>
<pdfrwt beam="1">  1       21 0.12541983E+00 0.48053589E+03</pdfrwt>
<pdfrwt beam="2">  1       21 0.99542292E-02 0.48053589E+03</pdfrwt>
<totfact> 0.34851181E+04</totfact>
</mgrwt>
</event>
<event>
 7    0  0.4770865E-002  0.4613499E+03  0.7546771E-02  0.1024390E+00
         21   -1    0    0  502  501  0.00000000000E+00  0.00000000000E+00  0.32496363226E+02  0.32496363226E+02  0.00000000000E+00 0. -1.
         21   -1    0    0  501  502 -0.00000000000E+00 -0.00000000000E+00 -0.16374426750E+04  0.16374426750E+04  0.00000000000E+00 0. -1.
      99926    2    1    2    0    0  0.35527136788E-14 -0.14210854715E-13 -0.16049463118E+04  0.16699390383E+04  0.46134989728E+03 0.  0.
      99925    2    3    3    0    0  0.22176449738E+02 -0.10531854663E+03 -0.11878286114E+04  0.12213652146E+04  0.26308247027E+03 0.  0.
         25    1    4    4    0    0  0.20462960659E+02 -0.11522413290E+02 -0.49342524748E+03  0.50957578604E+03  0.12509000000E+03 0.  0.
         25    1    4    4    0    0  0.17134890787E+01 -0.93796133345E+02 -0.69440336390E+03  0.71178942853E+03  0.12509000000E+03 0.  0.
         25    1    3    3    0    0 -0.22176449738E+02  0.10531854663E+03 -0.41711770044E+03  0.44857382370E+03  0.12509000000E+03 0.  0.
<mgrwt>
<rscale>  2 0.46134990E+03</rscale>
<asrwt>0</asrwt>
<pdfrwt beam="1">  1       21 0.47788762E-02 0.46134990E+03</pdfrwt>
<pdfrwt beam="2">  1       21 0.24080043E+00 0.46134990E+03</pdfrwt>
<totfact> 0.18943240E+04</totfact>
</mgrwt>
</event>
<event>
 7    0  0.4770865E-002  0.4543625E+03  0.7546771E-02  0.1026429E+00
         21   -1    0    0  502  501  0.00000000000E+00  0.00000000000E+00  0.12046861635E+03  0.12046861635E+03  0.00000000000E+00 0. -1.
         21   -1    0    0  501  502 -0.00000000000E+00 -0.00000000000E+00 -0.42842124714E+03  0.42842124714E+03  0.00000000000E+00 0. -1.
      99926    2    1    2    0    0  0.00000000000E+00  0.35527136788E-14 -0.30795263079E+03  0.54888986349E+03  0.45436247581E+03 0.  0.
      99925    2    3    3    0    0 -0.42741816133E+02 -0.14621594438E+02 -0.31846607101E+03  0.41547811590E+03  0.26298435796E+03 0.  0.
         25    1    4    4    0    0 -0.89310121396E+01 -0.45332182570E+02 -0.14921258937E+03  0.20011665268E+03  0.12509000000E+03 0.  0.
         25    1    3    3    0    0  0.42741816133E+02  0.14621594438E+02  0.10513440217E+02  0.13341174759E+03  0.12509000000E+03 0.  0.
         25    1    4    4    0    0 -0.33810803993E+02  0.30710588132E+02 -0.16925348164E+03  0.21536146321E+03  0.12509000000E+03 0.  0.
<mgrwt>
<rscale>  2 0.45436248E+03</rscale>
<asrwt>0</asrwt>
<pdfrwt beam="1">  1       21 0.17715973E-01 0.45436248E+03</pdfrwt>
<pdfrwt beam="2">  1       21 0.63003124E-01 0.45436248E+03</pdfrwt>
<totfact> 0.62253353E+04</totfact>
</mgrwt>
</event>
<event>
 7    0  0.4770865E-002  0.4093312E+03  0.7546771E-02  0.1040596E+00
         21   -1    0    0  502  501  0.00000000000E+00  0.00000000000E+00  0.64597207232E+03  0.64597207232E+03  0.00000000000E+00 0. -1.
         21   -1    0    0  501  502 -0.00000000000E+00 -0.00000000000E+00 -0.64844907387E+02  0.64844907387E+02  0.00000000000E+00 0. -1.
      99926    2    1    2    0    0 -0.17763568394E-14 -0.71054273576E-14  0.58112716493E+03  0.71081697970E+03  0.40933115789E+03 0.  0.
      99925    2    3    3    0    0 -0.12303297997E+02 -0.28340484059E+02  0.47539412752E+03  0.54413903432E+03  0.26293185050E+03 0.  0.
         25    1    4    4    0    0 -0.51735985187E+01  0.25346263061E+02  0.21035289237E+03  0.24609966802E+03  0.12509000000E+03 0.  0.
         25    1    4    4    0    0 -0.71296994786E+01 -0.53686747120E+02  0.26504123516E+03  0.29803936630E+03  0.12509000000E+03 0.  0.
         25    1    3    3    0    0  0.12303297997E+02  0.28340484059E+02  0.10573303741E+03  0.16667794538E+03  0.12509000000E+03 0.  0.
<mgrwt>
<rscale>  2 0.40933116E+03</rscale>
<asrwt>0</asrwt>
<pdfrwt beam="1">  1       21 0.94995890E-01 0.40933116E+03</pdfrwt>
<pdfrwt beam="2">  1       21 0.95360161E-02 0.40933116E+03</pdfrwt>
<totfact> 0.76236888E+04</totfact>
</mgrwt>
</event>
<event>
 7    0  0.4770865E-002  0.4497861E+03  0.7546771E-02  0.1027786E+00
         21   -1    0    0  502  501  0.00000000000E+00  0.00000000000E+00  0.35210661907E+03  0.35210661907E+03  0.00000000000E+00 0.  1.
         21   -1    0    0  501  502 -0.00000000000E+00 -0.00000000000E+00 -0.14364084521E+03  0.14364084521E+03  0.00000000000E+00 0.  1.
      99926    2    1    2    0    0  0.00000000000E+00  0.22204460493E-15  0.20846577386E+03  0.49574746427E+03  0.44978613747E+03 0.  0.
      99925    2    3    3    0    0 -0.67928219727E+02  0.10580678198E+01  0.38915203107E+02  0.27436483920E+03  0.26295685846E+03 0.  0.
         25    1    4    4    0    0 -0.70921759119E+02  0.96206242341E+01  0.37589636721E+02  0.14893938773E+03  0.12509000000E+03 0.  0.
         25    1    4    4    0    0  0.29935393925E+01 -0.85625564143E+01  0.13255663862E+01  0.12542545147E+03  0.12509000000E+03 0.  0.
         25    1    3    3    0    0  0.67928219727E+02 -0.10580678198E+01  0.16955057076E+03  0.22138262508E+03  0.12509000000E+03 0.  0.
<mgrwt>
<rscale>  2 0.44978614E+03</rscale>
<asrwt>0</asrwt>
<pdfrwt beam="1">  1       21 0.51780385E-01 0.44978614E+03</pdfrwt>
<pdfrwt beam="2">  1       21 0.21123654E-01 0.44978614E+03</pdfrwt>
<totfact> 0.68356116E+04</totfact>
</mgrwt>
</event>
<event>
 7    0  0.4770865E-002  0.4378690E+03  0.7546771E-02  0.1031403E+00
         21   -1    0    0  502  501  0.00000000000E+00  0.00000000000E+00  0.23493777354E+03  0.23493777354E+03  0.00000000000E+00 0.  1.
         21   -1    0    0  501  502 -0.00000000000E+00 -0.00000000000E+00 -0.20402135297E+03  0.20402135297E+03  0.00000000000E+00 0.  1.
      99926    2    1    2    0    0 -0.35527136788E-14  0.00000000000E+00  0.30916420578E+02  0.43895912651E+03  0.43786903257E+03 0.  0.
      99925    2    3    3    0    0 -0.29304157602E+02 -0.13886630090E+02 -0.70932170624E+02  0.27442276038E+03  0.26310626454E+03 0.  0.
         25    1    4    4    0    0  0.24518693047E+02 -0.47434673194E+00 -0.23643834513E+02  0.12964540225E+03  0.12509000000E+03 0.  0.
         25    1    3    3    0    0  0.29304157602E+02  0.13886630090E+02  0.10184859120E+03  0.16453636613E+03  0.12509000000E+03 0.  0.
         25    1    4    4    0    0 -0.53822850649E+02 -0.13412283358E+02 -0.47288336111E+02  0.14477735814E+03  0.12509000000E+03 0.  0.
<mgrwt>
<rscale>  2 0.43786903E+03</rscale>
<asrwt>0</asrwt>
<pdfrwt beam="1">  1       21 0.34549673E-01 0.43786903E+03</pdfrwt>
<pdfrwt beam="2">  1       21 0.30003140E-01 0.43786903E+03</pdfrwt>
<totfact> 0.80144196E+04</totfact>
</mgrwt>
</event>
<event>
 7    0  0.4770865E-002  0.4532866E+03  0.7546771E-02  0.1026746E+00
         21   -1    0    0  502  501  0.00000000000E+00  0.00000000000E+00  0.48328374430E+02  0.48328374430E+02  0.00000000000E+00 0.  1.
         21   -1    0    0  501  502 -0.00000000000E+00 -0.00000000000E+00 -0.10628782461E+04  0.10628782461E+04  0.00000000000E+00 0.  1.
      99926    2    1    2    0    0  0.00000000000E+00  0.71054273576E-14 -0.10145498717E+04  0.11112066205E+04  0.45328656654E+03 0.  0.
      99925    2    3    3    0    0  0.80339103188E+02 -0.55524228463E+02 -0.50699440868E+03  0.57941966360E+03  0.26295722977E+03 0.  0.
         25    1    4    4    0    0  0.67235748270E+02 -0.32229851204E+01 -0.29525890562E+03  0.32765280852E+03  0.12509000000E+03 0.  0.
         25    1    3    3    0    0 -0.80339103188E+02  0.55524228463E+02 -0.50755546298E+03  0.53178695692E+03  0.12509000000E+03 0.  0.
         25    1    4    4    0    0  0.13103354918E+02 -0.52301243343E+02 -0.21173550306E+03  0.25176685509E+03  0.12509000000E+03 0.  0.
<mgrwt>
<rscale>  2 0.45328657E+03</rscale>
<asrwt>0</asrwt>
<pdfrwt beam="1">  1       21 0.71071150E-02 0.45328657E+03</pdfrwt>
<pdfrwt beam="2">  1       21 0.15630560E+00 0.45328657E+03</pdfrwt>
<totfact> 0.35577160E+04</totfact>
</mgrwt>
</event>
<event>
 7    0  0.4770865E-002  0.4544218E+03  0.7546771E-02  0.1026412E+00
         21   -1    0    0  502  501  0.00000000000E+00  0.00000000000E+00  0.11679732543E+03  0.11679732543E+03  0.00000000000E+00 0.  1.
         21   -1    0    0  501  502 -0.00000000000E+00 -0.00000000000E+00 -0.44200323051E+03  0.44200323051E+03  0.00000000000E+00 0.  1.
      99926    2    1    2    0    0  0.00000000000E+00 -0.71054273576E-14 -0.32520590508E+03  0.55880055594E+03  0.45442180914E+03 0.  0.
      99925    2    3    3    0    0  0.60675331365E+02 -0.43587090915E+02 -0.10107416165E+03  0.29147327181E+03  0.26298165657E+03 0.  0.
         25    1    4    4    0    0  0.47451734409E+02 -0.49014468844E+02 -0.81239011873E+02  0.16401637237E+03  0.12509000000E+03 0.  0.
         25    1    4    4    0    0  0.13223596957E+02  0.54273779290E+01 -0.19835149777E+02  0.12745689944E+03  0.12509000000E+03 0.  0.
         25    1    3    3    0    0 -0.60675331365E+02  0.43587090915E+02 -0.22413174343E+03  0.26732728414E+03  0.12509000000E+03 0.  0.
<mgrwt>
<rscale>  2 0.45442181E+03</rscale>
<asrwt>0</asrwt>
<pdfrwt beam="1">  1       21 0.17176078E-01 0.45442181E+03</pdfrwt>
<pdfrwt beam="2">  1       21 0.65000474E-01 0.45442181E+03</pdfrwt>
<totfact> 0.61569794E+04</totfact>
</mgrwt>
</event>
<event>
 7    0  0.4770865E-002  0.4580734E+03  0.7546771E-02  0.1025341E+00
         21   -1    0    0  502  501  0.00000000000E+00  0.00000000000E+00  0.42648122528E+02  0.42648122528E+02  0.00000000000E+00 0. -1.
         21   -1    0    0  501  502 -0.00000000000E+00 -0.00000000000E+00 -0.12300145221E+04  0.12300145221E+04  0.00000000000E+00 0. -1.
      99926    2    1    2    0    0  0.17763568394E-14  0.14210854715E-13 -0.11873663995E+04  0.12726626446E+04  0.45807340045E+03 0.  0.
      99925    2    3    3    0    0  0.11252849239E+02 -0.11542399835E+03 -0.74929514800E+03  0.80255281111E+03  0.26305602027E+03 0.  0.
         25    1    4    4    0    0 -0.95639391672E+00 -0.10137879001E+03 -0.42141488802E+03  0.45112813002E+03  0.12509000000E+03 0.  0.
         25    1    4    4    0    0  0.12209243156E+02 -0.14045208346E+02 -0.32788025998E+03  0.35142468109E+03  0.12509000000E+03 0.  0.
         25    1    3    3    0    0 -0.11252849239E+02  0.11542399835E+03 -0.43807125155E+03  0.47010983349E+03  0.12509000000E+03 0.  0.
<mgrwt>
<rscale>  2 0.45807340E+03</rscale>
<asrwt>0</asrwt>
<pdfrwt beam="1">  1       21 0.62717832E-02 0.45807340E+03</pdfrwt>
<pdfrwt beam="2">  1       21 0.18088448E+00 0.45807340E+03</pdfrwt>
<totfact> 0.29214041E+04</totfact>
</mgrwt>
</event>
<event>
 7    0  0.4770865E-002  0.4502304E+03  0.7546771E-02  0.1027653E+00
         21   -1    0    0  502  501  0.00000000000E+00  0.00000000000E+00  0.94111408152E+02  0.94111408152E+02  0.00000000000E+00 0. -1.
         21   -1    0    0  501  502 -0.00000000000E+00 -0.00000000000E+00 -0.53847735047E+03  0.53847735047E+03  0.00000000000E+00 0. -1.
      99926    2    1    2    0    0  0.00000000000E+00  0.00000000000E+00 -0.44436594232E+03  0.63258875862E+03  0.45023043749E+03 0.  0.
      99925    2    3    3    0    0  0.65927673677E+02 -0.32374163489E+02 -0.39326311784E+03  0.47879164751E+03  0.26304185456E+03 0.  0.
         25    1    3    3    0    0 -0.65927673677E+02  0.32374163489E+02 -0.51102824482E+02  0.15379711112E+03  0.12509000000E+03 0.  0.
         25    1    4    4    0    0  0.39755325376E+02  0.15263787095E+02 -0.14999436823E+03  0.19989819332E+03  0.12509000000E+03 0.  0.
         25    1    4    4    0    0  0.26172348301E+02 -0.47637950584E+02 -0.24326874961E+03  0.27889345418E+03  0.12509000000E+03 0.  0.
<mgrwt>
<rscale>  2 0.45023044E+03</rscale>
<asrwt>0</asrwt>
<pdfrwt beam="1">  1       21 0.13839913E-01 0.45023044E+03</pdfrwt>
<pdfrwt beam="2">  1       21 0.79187845E-01 0.45023044E+03</pdfrwt>
<totfact> 0.58902227E+04</totfact>
</mgrwt>
</event>
<event>
 7    0  0.4770865E-002  0.4010582E+03  0.7546771E-02  0.1043414E+00
         21   -1    0    0  502  501  0.00000000000E+00  0.00000000000E+00  0.14187564078E+03  0.14187564078E+03  0.00000000000E+00 0.  1.
         21   -1    0    0  501  502 -0.00000000000E+00 -0.00000000000E+00 -0.28343081035E+03  0.28343081035E+03  0.00000000000E+00 0.  1.
      99926    2    1    2    0    0  0.00000000000E+00  0.00000000000E+00 -0.14155516957E+03  0.42530645114E+03  0.40105823935E+03 0.  0.
      99925    2    3    3    0    0 -0.23863096832E+02 -0.37431524733E+02 -0.11289490475E+03  0.28951438468E+03  0.26287402493E+03 0.  0.
         25    1    4    4    0    0  0.19843130338E+00 -0.42231949710E+02 -0.24215949246E+02  0.13422927121E+03  0.12509000000E+03 0.  0.
         25    1    3    3    0    0  0.23863096832E+02  0.37431524733E+02 -0.28660264825E+02  0.13579206646E+03  0.12509000000E+03 0.  0.
         25    1    4    4    0    0 -0.24061528136E+02  0.48004249773E+01 -0.88678955500E+02  0.15528511347E+03  0.12509000000E+03 0.  0.
<mgrwt>
<rscale>  2 0.40105824E+03</rscale>
<asrwt>0</asrwt>
<pdfrwt beam="1">  1       21 0.20864065E-01 0.40105824E+03</pdfrwt>
<pdfrwt beam="2">  1       21 0.41681001E-01 0.40105824E+03</pdfrwt>
<totfact> 0.11152713E+05</totfact>
</mgrwt>
</event>
<event>
 7    0  0.4770865E-002  0.4430414E+03  0.7546771E-02  0.1029818E+00
         21   -1    0    0  502  501  0.00000000000E+00  0.00000000000E+00  0.77362466119E+02  0.77362466119E+02  0.00000000000E+00 0. -1.
         21   -1    0    0  501  502 -0.00000000000E+00 -0.00000000000E+00 -0.63430538479E+03  0.63430538479E+03  0.00000000000E+00 0. -1.
      99926    2    1    2    0    0  0.00000000000E+00 -0.35527136788E-14 -0.55694291867E+03  0.71166785091E+03  0.44304143752E+03 0.  0.
      99925    2    3    3    0    0 -0.97718084587E+02  0.21929160199E+02 -0.38241547604E+03  0.47473526882E+03  0.26287310062E+03 0.  0.
         25    1    4    4    0    0 -0.32562802579E+02  0.39711691148E+02 -0.14705986852E+03  0.19977854629E+03  0.12509000000E+03 0.  0.
         25    1    3    3    0    0  0.97718084587E+02 -0.21929160199E+02 -0.17452744263E+03  0.23693258209E+03  0.12509000000E+03 0.  0.
         25    1    4    4    0    0 -0.65155282008E+02 -0.17782530949E+02 -0.23535560751E+03  0.27495672254E+03  0.12509000000E+03 0.  0.
<mgrwt>
<rscale>  2 0.44304144E+03</rscale>
<asrwt>0</asrwt>
<pdfrwt beam="1">  1       21 0.11376833E-01 0.44304144E+03</pdfrwt>
<pdfrwt beam="2">  1       21 0.93280204E-01 0.44304144E+03</pdfrwt>
<totfact> 0.57495288E+04</totfact>
</mgrwt>
</event>
<event>
 7    0  0.4770865E-002  0.4567192E+03  0.7546771E-02  0.1025737E+00
         21   -1    0    0  502  501  0.00000000000E+00  0.00000000000E+00  0.51480864833E+03  0.51480864833E+03  0.00000000000E+00 0. -1.
         21   -1    0    0  501  502 -0.00000000000E+00 -0.00000000000E+00 -0.10129610235E+03  0.10129610235E+03  0.00000000000E+00 0. -1.
      99926    2    1    2    0    0  0.00000000000E+00  0.00000000000E+00  0.41351254598E+03  0.61610475068E+03  0.45671921147E+03 0.  0.
      99925    2    3    3    0    0 -0.21850748604E+02 -0.99329992332E+02  0.18755278531E+03  0.33852733060E+03  0.26283227294E+03 0.  0.
         25    1    3    3    0    0  0.21850748604E+02  0.99329992332E+02  0.22595976067E+03  0.27757742007E+03  0.12509000000E+03 0.  0.
         25    1    4    4    0    0 -0.25448045932E+02 -0.35181129735E+02  0.13304735626E+03  0.18770834302E+03  0.12509000000E+03 0.  0.
         25    1    4    4    0    0  0.35972973277E+01 -0.64148862597E+02  0.54505429054E+02  0.15081898759E+03  0.12509000000E+03 0.  0.
<mgrwt>
<rscale>  2 0.45671921E+03</rscale>
<asrwt>0</asrwt>
<pdfrwt beam="1">  1       21 0.75707153E-01 0.45671921E+03</pdfrwt>
<pdfrwt beam="2">  1       21 0.14896486E-01 0.45671921E+03</pdfrwt>
<totfact> 0.56920978E+04</totfact>
</mgrwt>
</event>
<event>
 7    0  0.4770865E-002  0.4608678E+03  0.7546771E-02  0.1024530E+00
         21   -1    0    0  502  501  0.00000000000E+00  0.00000000000E+00  0.20886673585E+02  0.20886673585E+02  0.00000000000E+00 0.  1.
         21   -1    0    0  501  502 -0.00000000000E+00 -0.00000000000E+00 -0.25422800958E+04  0.25422800958E+04  0.00000000000E+00 0.  1.
      99926    2    1    2    0    0 -0.14210854715E-13  0.71054273576E-14 -0.25213934223E+04  0.25631667694E+04  0.46086776638E+03 0.  0.
      99925    2    3    3    0    0  0.10450622605E+03 -0.53507657418E+02 -0.16747219899E+04  0.16992890911E+04  0.26287839566E+03 0.  0.
         25    1    3    3    0    0 -0.10450622605E+03  0.53507657418E+02 -0.84667143238E+03  0.86387767837E+03  0.12509000000E+03 0.  0.
         25    1    4    4    0    0  0.41117584297E+02 -0.84800477335E+01 -0.58741769523E+03  0.60205450228E+03  0.12509000000E+03 0.  0.
         25    1    4    4    0    0  0.63388641750E+02 -0.45027609685E+02 -0.10873042947E+04  0.10972345888E+04  0.12509000000E+03 0.  0.
<mgrwt>
<rscale>  2 0.46086777E+03</rscale>
<asrwt>0</asrwt>
<pdfrwt beam="1">  1       21 0.30715710E-02 0.46086777E+03</pdfrwt>
<pdfrwt beam="2">  1       21 0.37386455E+00 0.46086777E+03</pdfrwt>
<totfact> 0.62183604E+03</totfact>
</mgrwt>
</event>
<event>
 7    0  0.4770865E-002  0.4597550E+03  0.7546771E-02  0.1024852E+00
         21   -1    0    0  502  501  0.00000000000E+00  0.00000000000E+00  0.79005814915E+03  0.79005814915E+03  0.00000000000E+00 0.  1.
         21   -1    0    0  501  502 -0.00000000000E+00 -0.00000000000E+00 -0.66885800470E+02  0.66885800470E+02  0.00000000000E+00 0.  1.
      99926    2    1    2    0    0  0.00000000000E+00 -0.14210854715E-13  0.72317234868E+03  0.85694394962E+03  0.45975502922E+03 0.  0.
      99925    2    3    3    0    0  0.13566835290E+02 -0.89236380764E+02  0.31265763619E+03  0.41840429583E+03  0.26298320599E+03 0.  0.
         25    1    3    3    0    0 -0.13566835290E+02  0.89236380764E+02  0.41051471249E+03  0.43853965379E+03  0.12509000000E+03 0.  0.
         25    1    4    4    0    0 -0.88498709075E+00 -0.61715040441E+01  0.16663141687E+03  0.20845241148E+03  0.12509000000E+03 0.  0.
         25    1    4    4    0    0  0.14451822380E+02 -0.83064876720E+02  0.14602621932E+03  0.20995188436E+03  0.12509000000E+03 0.  0.
<mgrwt>
<rscale>  2 0.45975503E+03</rscale>
<asrwt>0</asrwt>
<pdfrwt beam="1">  1       21 0.11618502E+00 0.45975503E+03</pdfrwt>
<pdfrwt beam="2">  1       21 0.98361476E-02 0.45975503E+03</pdfrwt>
<totfact> 0.43485545E+04</totfact>
</mgrwt>
</event>
<event>
 7    0  0.4770865E-002  0.4520451E+03  0.7546771E-02  0.1027114E+00
         21   -1    0    0  502  501  0.00000000000E+00  0.00000000000E+00  0.52200908522E+03  0.52200908522E+03  0.00000000000E+00 0.  1.
         21   -1    0    0  501  502 -0.00000000000E+00 -0.00000000000E+00 -0.97864581379E+02  0.97864581379E+02  0.00000000000E+00 0.  1.
      99926    2    1    2    0    0  0.00000000000E+00  0.00000000000E+00  0.42414450384E+03  0.61987366660E+03  0.45204513315E+03 0.  0.
      99925    2    3    3    0    0  0.55493856579E+02 -0.43992911512E+02  0.15171454233E+03  0.31184682295E+03  0.26308970760E+03 0.  0.
         25    1    4    4    0    0  0.37837921509E+01 -0.48780363713E+02  0.97422090186E+02  0.16592893878E+03  0.12509000000E+03 0.  0.
         25    1    3    3    0    0 -0.55493856579E+02  0.43992911512E+02  0.27242996151E+03  0.30802684365E+03  0.12509000000E+03 0.  0.
         25    1    4    4    0    0  0.51710064428E+02  0.47874522005E+01  0.54292452146E+02  0.14591788417E+03  0.12509000000E+03 0.  0.
<mgrwt>
<rscale>  2 0.45204513E+03</rscale>
<asrwt>0</asrwt>
<pdfrwt beam="1">  1       21 0.76766040E-01 0.45204513E+03</pdfrwt>
<pdfrwt beam="2">  1       21 0.14391850E-01 0.45204513E+03</pdfrwt>
<totfact> 0.58832120E+04</totfact>
</mgrwt>
</event>
<event>
 7    0  0.4770865E-002  0.4557888E+03  0.7546771E-02  0.1026010E+00
         21   -1    0    0  502  501  0.00000000000E+00  0.00000000000E+00  0.29709061963E+03  0.29709061963E+03  0.00000000000E+00 0. -1.
         21   -1    0    0  501  502 -0.00000000000E+00 -0.00000000000E+00 -0.17481483215E+03  0.17481483215E+03  0.00000000000E+00 0. -1.
      99926    2    1    2    0    0  0.00000000000E+00  0.00000000000E+00  0.12227578748E+03  0.47190545178E+03  0.45578875284E+03 0.  0.
      99925    2    3    3    0    0 -0.13590446411E+02 -0.97130234724E+02  0.13685017337E+03  0.31228432675E+03  0.26301054742E+03 0.  0.
         25    1    4    4    0    0 -0.95803218304E+01 -0.14367485825E+02  0.90102855260E+02  0.15512652849E+03  0.12509000000E+03 0.  0.
         25    1    4    4    0    0 -0.40101245809E+01 -0.82762748900E+02  0.46747318111E+02  0.15715779826E+03  0.12509000000E+03 0.  0.
         25    1    3    3    0    0  0.13590446411E+02  0.97130234724E+02 -0.14574385894E+02  0.15962112503E+03  0.12509000000E+03 0.  0.
<mgrwt>
<rscale>  2 0.45578875E+03</rscale>
<asrwt>0</asrwt>
<pdfrwt beam="1">  1       21 0.43689797E-01 0.45578875E+03</pdfrwt>
<pdfrwt beam="2">  1       21 0.25708064E-01 0.45578875E+03</pdfrwt>
<totfact> 0.66874813E+04</totfact>
</mgrwt>
</event>
<event>
 7    0  0.4770865E-002  0.4491363E+03  0.7546771E-02  0.1027980E+00
         21   -1    0    0  502  501  0.00000000000E+00  0.00000000000E+00  0.34658780454E+03  0.34658780454E+03  0.00000000000E+00 0. -1.
         21   -1    0    0  501  502 -0.00000000000E+00 -0.00000000000E+00 -0.14550669657E+03  0.14550669657E+03  0.00000000000E+00 0. -1.
      99926    2    1    2    0    0 -0.31086244690E-14  0.00000000000E+00  0.20108110797E+03  0.49209450111E+03  0.44913626667E+03 0.  0.
      99925    2    3    3    0    0 -0.25436201498E+01  0.55516193550E+02  0.26247282833E+02  0.27005195505E+03  0.26296505627E+03 0.  0.
         25    1    3    3    0    0  0.25436201498E+01 -0.55516193550E+02  0.17483382514E+03  0.22204254606E+03  0.12509000000E+03 0.  0.
         25    1    4    4    0    0  0.34516327161E+02  0.13918166274E+02 -0.59508488743E+00  0.13051036135E+03  0.12509000000E+03 0.  0.
         25    1    4    4    0    0 -0.37059947311E+02  0.41598027276E+02  0.26842367720E+02  0.13954159370E+03  0.12509000000E+03 0.  0.
<mgrwt>
<rscale>  2 0.44913627E+03</rscale>
<asrwt>0</asrwt>
<pdfrwt beam="1">  1       21 0.50968795E-01 0.44913627E+03</pdfrwt>
<pdfrwt beam="2">  1       21 0.21398044E-01 0.44913627E+03</pdfrwt>
<totfact> 0.68985414E+04</totfact>
</mgrwt>
</event>
<event>
 7    0  0.4770865E-002  0.4550079E+03  0.7546771E-02  0.1026239E+00
         21   -1    0    0  502  501  0.00000000000E+00  0.00000000000E+00  0.23464611462E+03  0.23464611462E+03  0.00000000000E+00 0.  1.
         21   -1    0    0  501  502 -0.00000000000E+00 -0.00000000000E+00 -0.22057921248E+03  0.22057921248E+03  0.00000000000E+00 0.  1.
      99926    2    1    2    0    0  0.00000000000E+00 -0.35527136788E-14  0.14066902137E+02  0.45522532710E+03  0.45500793476E+03 0.  0.
      99925    2    3    3    0    0 -0.77517962063E+02 -0.19054131367E+02 -0.71369227011E+02  0.28399759971E+03  0.26303797389E+03 0.  0.
         25    1    3    3    0    0  0.77517962063E+02  0.19054131367E+02  0.85436129149E+02  0.17122772739E+03  0.12509000000E+03 0.  0.
         25    1    4    4    0    0 -0.51582928834E+02 -0.37814822554E+02 -0.64781674626E+02  0.15470918790E+03  0.12509000000E+03 0.  0.
         25    1    4    4    0    0 -0.25935033229E+02  0.18760691187E+02 -0.65875523853E+01  0.12928841181E+03  0.12509000000E+03 0.  0.
<mgrwt>
<rscale>  2 0.45500793E+03</rscale>
<asrwt>0</asrwt>
<pdfrwt beam="1">  1       21 0.34506782E-01 0.45500793E+03</pdfrwt>
<pdfrwt beam="2">  1       21 0.32438119E-01 0.45500793E+03</pdfrwt>
<totfact> 0.68524961E+04</totfact>
</mgrwt>
</event>
<event>
 7    0  0.4770865E-002  0.4512761E+03  0.7546771E-02  0.1027342E+00
         21   -1    0    0  502  501  0.00000000000E+00  0.00000000000E+00  0.49741306397E+03  0.49741306397E+03  0.00000000000E+00 0. -1.
         21   -1    0    0  501  502 -0.00000000000E+00 -0.00000000000E+00 -0.10235461827E+03  0.10235461827E+03  0.00000000000E+00 0. -1.
      99926    2    1    2    0    0  0.00000000000E+00  0.00000000000E+00  0.39505844570E+03  0.59976768224E+03  0.45127607641E+03 0.  0.
      99925    2    3    3    0    0  0.75676717789E+02 -0.79188264379E+02  0.25559346398E+03  0.38275216193E+03  0.26300846336E+03 0.  0.
         25    1    4    4    0    0  0.67743702290E+02 -0.63985971420E+02  0.11504744464E+03  0.19382166122E+03  0.12509000000E+03 0.  0.
         25    1    4    4    0    0  0.79330154988E+01 -0.15202292959E+02  0.14054601934E+03  0.18893050071E+03  0.12509000000E+03 0.  0.
         25    1    3    3    0    0 -0.75676717789E+02  0.79188264379E+02  0.13946498171E+03  0.21701552031E+03  0.12509000000E+03 0.  0.
<mgrwt>
<rscale>  2 0.45127608E+03</rscale>
<asrwt>0</asrwt>
<pdfrwt beam="1">  1       21 0.73148979E-01 0.45127608E+03</pdfrwt>
<pdfrwt beam="2">  1       21 0.15052150E-01 0.45127608E+03</pdfrwt>
<totfact> 0.60451724E+04</totfact>
</mgrwt>
</event>
<event>
 7    0  0.4770865E-002  0.4452678E+03  0.7546771E-02  0.1029143E+00
         21   -1    0    0  502  501  0.00000000000E+00  0.00000000000E+00  0.75080732828E+02  0.75080732828E+02  0.00000000000E+00 0.  1.
         21   -1    0    0  501  502 -0.00000000000E+00 -0.00000000000E+00 -0.66016754869E+03  0.66016754869E+03  0.00000000000E+00 0.  1.
      99926    2    1    2    0    0  0.00000000000E+00  0.00000000000E+00 -0.58508681586E+03  0.73524828152E+03  0.44526784454E+03 0.  0.
      99925    2    3    3    0    0  0.46919808043E+02  0.72283929241E+02 -0.46699191690E+03  0.54284155587E+03  0.26300013216E+03 0.  0.
         25    1    3    3    0    0 -0.46919808043E+02 -0.72283929241E+02 -0.11809489896E+03  0.19240672565E+03  0.12509000000E+03 0.  0.
         25    1    4    4    0    0 -0.16560562386E+02  0.25952030096E+02 -0.20708245434E+03  0.24388196139E+03  0.12509000000E+03 0.  0.
         25    1    4    4    0    0  0.63480370429E+02  0.46331899145E+02 -0.25990946256E+03  0.29895959448E+03  0.12509000000E+03 0.  0.
<mgrwt>
<rscale>  2 0.44526784E+03</rscale>
<asrwt>0</asrwt>
<pdfrwt beam="1">  1       21 0.11041284E-01 0.44526784E+03</pdfrwt>
<pdfrwt beam="2">  1       21 0.97083464E-01 0.44526784E+03</pdfrwt>
<totfact> 0.55129484E+04</totfact>
</mgrwt>
</event>
<event>
 7    0  0.4770865E-002  0.4576488E+03  0.7546771E-02  0.1025465E+00
         21   -1    0    0  502  501  0.00000000000E+00  0.00000000000E+00  0.30313620768E+03  0.30313620768E+03  0.00000000000E+00 0.  1.
         21   -1    0    0  501  502 -0.00000000000E+00 -0.00000000000E+00 -0.17272960612E+03  0.17272960612E+03  0.00000000000E+00 0.  1.
      99926    2    1    2    0    0  0.00000000000E+00  0.00000000000E+00  0.13040660156E+03  0.47586581380E+03  0.45764876380E+03 0.  0.
      99925    2    3    3    0    0 -0.23414384669E+02 -0.10803114188E+03  0.46680658806E+02  0.28911329677E+03  0.26303698112E+03 0.  0.
         25    1    3    3    0    0  0.23414384669E+02  0.10803114188E+03  0.83725942758E+02  0.18675251703E+03  0.12509000000E+03 0.  0.
         25    1    4    4    0    0  0.96646728756E+01 -0.75068279294E+02  0.52807294086E+02  0.15545021990E+03  0.12509000000E+03 0.  0.
         25    1    4    4    0    0 -0.33079057545E+02 -0.32962862588E+02 -0.61266352798E+01  0.13366307687E+03  0.12509000000E+03 0.  0.
<mgrwt>
<rscale>  2 0.45764876E+03</rscale>
<asrwt>0</asrwt>
<pdfrwt beam="1">  1       21 0.44578854E-01 0.45764876E+03</pdfrwt>
<pdfrwt beam="2">  1       21 0.25401412E-01 0.45764876E+03</pdfrwt>
<totfact> 0.65612296E+04</totfact>
</mgrwt>
</event>
<event>
 7    0  0.4770865E-002  0.4452930E+03  0.7546771E-02  0.1029135E+00
         21   -1    0    0  502  501  0.00000000000E+00  0.00000000000E+00  0.21379300600E+02  0.21379300600E+02  0.00000000000E+00 0. -1.
         21   -1    0    0  501  502 -0.00000000000E+00 -0.00000000000E+00 -0.23186665272E+04  0.23186665272E+04  0.00000000000E+00 0. -1.
      99926    2    1    2    0    0  0.00000000000E+00  0.00000000000E+00 -0.22972872265E+04  0.23400458278E+04  0.44529302117E+03 0.  0.
      99925    2    3    3    0    0  0.60434979450E+02  0.73568178385E+02 -0.16759915660E+04  0.16991710587E+04  0.26300169963E+03 0.  0.
         25    1    3    3    0    0 -0.60434979450E+02 -0.73568178385E+02 -0.62129566059E+03  0.64087476903E+03  0.12509000000E+03 0.  0.
         25    1    4    4    0    0  0.42509956637E+02  0.56137792907E+02 -0.67579519355E+03  0.69087278129E+03  0.12509000000E+03 0.  0.
         25    1    4    4    0    0  0.17925022813E+02  0.17430385478E+02 -0.10001963724E+04  0.10082982774E+04  0.12509000000E+03 0.  0.
<mgrwt>
<rscale>  2 0.44529302E+03</rscale>
<asrwt>0</asrwt>
<pdfrwt beam="1">  1       21 0.31440150E-02 0.44529302E+03</pdfrwt>
<pdfrwt beam="2">  1       21 0.34098035E+00 0.44529302E+03</pdfrwt>
<totfact> 0.96152039E+03</totfact>
</mgrwt>
</event>
<event>
 7    0  0.4770865E-002  0.4594861E+03  0.7546771E-02  0.1024930E+00
         21   -1    0    0  502  501  0.00000000000E+00  0.00000000000E+00  0.22348871688E+03  0.22348871688E+03  0.00000000000E+00 0. -1.
         21   -1    0    0  501  502 -0.00000000000E+00 -0.00000000000E+00 -0.23617243135E+03  0.23617243135E+03  0.00000000000E+00 0. -1.
      99926    2    1    2    0    0  0.00000000000E+00 -0.14210854715E-13 -0.12683714462E+02  0.45966114823E+03  0.45948612011E+03 0.  0.
      99925    2    3    3    0    0 -0.51185377572E+02 -0.86650567219E+02 -0.68266665721E+02  0.28976342533E+03  0.26300996432E+03 0.  0.
         25    1    4    4    0    0  0.14444981593E+01 -0.54323226801E+02 -0.62800847950E+02  0.15014844038E+03  0.12509000000E+03 0.  0.
         25    1    4    4    0    0 -0.52629875731E+02 -0.32327340417E+02 -0.54658177718E+01  0.13961498495E+03  0.12509000000E+03 0.  0.
         25    1    3    3    0    0  0.51185377572E+02  0.86650567219E+02  0.55582951259E+02  0.16989772290E+03  0.12509000000E+03 0.  0.
<mgrwt>
<rscale>  2 0.45948612E+03</rscale>
<asrwt>0</asrwt>
<pdfrwt beam="1">  1       21 0.32865988E-01 0.45948612E+03</pdfrwt>
<pdfrwt beam="2">  1       21 0.34731239E-01 0.45948612E+03</pdfrwt>
<totfact> 0.65818012E+04</totfact>
</mgrwt>
</event>
<event>
 7    0  0.4770865E-002  0.4595342E+03  0.7546771E-02  0.1024916E+00
         21   -1    0    0  502  501  0.00000000000E+00  0.00000000000E+00  0.57135502947E+03  0.57135502947E+03  0.00000000000E+00 0.  1.
         21   -1    0    0  501  502 -0.00000000000E+00 -0.00000000000E+00 -0.92399484759E+02  0.92399484759E+02  0.00000000000E+00 0.  1.
      99926    2    1    2    0    0 -0.14210854715E-13 -0.17763568394E-14  0.47895554471E+03  0.66375451423E+03  0.45953415689E+03 0.  0.
      99925    2    3    3    0    0 -0.10515598534E+03 -0.96232357978E+01  0.22617832195E+03  0.36259970294E+03  0.26300479716E+03 0.  0.
         25    1    3    3    0    0  0.10515598534E+03  0.96232357978E+01  0.25277722276E+03  0.30115481130E+03  0.12509000000E+03 0.  0.
         25    1    4    4    0    0 -0.65341045324E+02 -0.39943018605E+02  0.96281835607E+02  0.17544969908E+03  0.12509000000E+03 0.  0.
         25    1    4    4    0    0 -0.39814940019E+02  0.30319782807E+02  0.12989648635E+03  0.18715000386E+03  0.12509000000E+03 0.  0.
<mgrwt>
<rscale>  2 0.45953416E+03</rscale>
<asrwt>0</asrwt>
<pdfrwt beam="1">  1       21 0.84022797E-01 0.45953416E+03</pdfrwt>
<pdfrwt beam="2">  1       21 0.13588160E-01 0.45953416E+03</pdfrwt>
<totfact> 0.52994935E+04</totfact>
</mgrwt>
</event>
<event>
 7    0  0.4770865E-002  0.4556516E+03  0.7546771E-02  0.1026050E+00
         21   -1    0    0  502  501  0.00000000000E+00  0.00000000000E+00  0.34374906365E+03  0.34374906365E+03  0.00000000000E+00 0. -1.
         21   -1    0    0  501  502 -0.00000000000E+00 -0.00000000000E+00 -0.15099562189E+03  0.15099562189E+03  0.00000000000E+00 0. -1.
      99926    2    1    2    0    0  0.00000000000E+00  0.00000000000E+00  0.19275344176E+03  0.49474468554E+03  0.45565163728E+03 0.  0.
      99925    2    3    3    0    0  0.76870707278E+02  0.66234955142E+02  0.65062503020E+02  0.28919990001E+03  0.26288263151E+03 0.  0.
         25    1    4    4    0    0  0.36271293759E+02 -0.47073842851E+01  0.13052454755E+02  0.13097954380E+03  0.12509000000E+03 0.  0.
         25    1    3    3    0    0 -0.76870707278E+02 -0.66234955142E+02  0.12769093874E+03  0.20554478553E+03  0.12509000000E+03 0.  0.
         25    1    4    4    0    0  0.40599413520E+02  0.70942339427E+02  0.52010048265E+02  0.15822035622E+03  0.12509000000E+03 0.  0.
<mgrwt>
<rscale>  2 0.45565164E+03</rscale>
<asrwt>0</asrwt>
<pdfrwt beam="1">  1       21 0.50551333E-01 0.45565164E+03</pdfrwt>
<pdfrwt beam="2">  1       21 0.22205238E-01 0.45565164E+03</pdfrwt>
<totfact> 0.65302986E+04</totfact>
</mgrwt>
</event>
<event>
 7    0  0.4770865E-002  0.4155541E+03  0.7546771E-02  0.1038523E+00
         21   -1    0    0  502  501  0.00000000000E+00  0.00000000000E+00  0.38763229926E+03  0.38763229926E+03  0.00000000000E+00 0.  1.
         21   -1    0    0  501  502 -0.00000000000E+00 -0.00000000000E+00 -0.11137181448E+03  0.11137181448E+03  0.00000000000E+00 0.  1.
      99926    2    1    2    0    0 -0.22204460493E-14  0.00000000000E+00  0.27626048478E+03  0.49900411374E+03  0.41555414819E+03 0.  0.
      99925    2    3    3    0    0  0.27639138745E+01 -0.56043578980E+02  0.13066147689E+03  0.29901636120E+03  0.26303961823E+03 0.  0.
         25    1    4    4    0    0  0.38016021472E+02 -0.43377198765E+02  0.77311764714E+02  0.15796017322E+03  0.12509000000E+03 0.  0.
         25    1    4    4    0    0 -0.35252107598E+02 -0.12666380215E+02  0.53349712171E+02  0.14105618798E+03  0.12509000000E+03 0.  0.
         25    1    3    3    0    0 -0.27639138745E+01  0.56043578980E+02  0.14559900789E+03  0.19998775254E+03  0.12509000000E+03 0.  0.
<mgrwt>
<rscale>  2 0.41555415E+03</rscale>
<asrwt>0</asrwt>
<pdfrwt beam="1">  1       21 0.57004749E-01 0.41555415E+03</pdfrwt>
<pdfrwt beam="2">  1       21 0.16378208E-01 0.41555415E+03</pdfrwt>
<totfact> 0.90504134E+04</totfact>
</mgrwt>
</event>
<event>
 7    0  0.4770865E-002  0.4493312E+03  0.7546771E-02  0.1027922E+00
         21   -1    0    0  502  501  0.00000000000E+00  0.00000000000E+00  0.48835732600E+02  0.48835732600E+02  0.00000000000E+00 0. -1.
         21   -1    0    0  501  502 -0.00000000000E+00 -0.00000000000E+00 -0.10335592797E+04  0.10335592797E+04  0.00000000000E+00 0. -1.
      99926    2    1    2    0    0 -0.35527136788E-14  0.00000000000E+00 -0.98472354705E+03  0.10823950123E+04  0.44933116788E+03 0.  0.
      99925    2    3    3    0    0  0.29096405452E+02 -0.82186562963E+02 -0.77554302813E+03  0.82354132860E+03  0.26296786780E+03 0.  0.
         25    1    4    4    0    0 -0.21421692591E+02 -0.20287207393E+02 -0.37055000136E+03  0.39220564925E+03  0.12509000000E+03 0.  0.
         25    1    4    4    0    0  0.50518098043E+02 -0.61899355570E+02 -0.40499302677E+03  0.43133567935E+03  0.12509000000E+03 0.  0.
         25    1    3    3    0    0 -0.29096405452E+02  0.82186562963E+02 -0.20918051892E+03  0.25885368365E+03  0.12509000000E+03 0.  0.
<mgrwt>
<rscale>  2 0.44933117E+03</rscale>
<asrwt>0</asrwt>
<pdfrwt beam="1">  1       21 0.71817264E-02 0.44933117E+03</pdfrwt>
<pdfrwt beam="2">  1       21 0.15199399E+00 0.44933117E+03</pdfrwt>
<totfact> 0.37753118E+04</totfact>
</mgrwt>
</event>
<event>
 6    0  0.4770865E-002  0.4512590E+03  0.7546771E-02  0.1027347E+00
         21   -1    0    0  502  501  0.00000000000E+00  0.00000000000E+00  0.71497176737E+03  0.71497176737E+03  0.00000000000E+00 0. -1.
         21   -1    0    0  501  502 -0.00000000000E+00 -0.00000000000E+00 -0.71203736968E+02  0.71203736968E+02  0.00000000000E+00 0. -1.
      99926    2    1    2    0    0  0.00000000000E+00 -0.71054273576E-14  0.64376803041E+03  0.78617550434E+03  0.45125895742E+03 0.  0.
         25    1    3    3    0    0 -0.42489511416E+02 -0.15954485125E+02  0.33475861313E+03  0.36023706269E+03  0.12509000000E+03 0.  0.
         25    1    3    3    0    0 -0.37049369221E+01 -0.39216502528E+02  0.22078225944E+03  0.25679558955E+03  0.12509000000E+03 0.  0.
         25    1    3    3    0    0  0.46194448338E+02  0.55170987653E+02  0.88227157838E+02  0.16914285210E+03  0.12509000000E+03 0.  0.
<mgrwt>
<rscale>  2 0.45125896E+03</rscale>
<asrwt>0</asrwt>
<pdfrwt beam="1">  1       21 0.10514290E+00 0.45125896E+03</pdfrwt>
<pdfrwt beam="2">  1       21 0.10471138E-01 0.45125896E+03</pdfrwt>
<totfact> 0.49889620E+04</totfact>
</mgrwt>
</event>
<event>
 7    0  0.4770865E-002  0.4535374E+03  0.7546771E-02  0.1026672E+00
         21   -1    0    0  502  501  0.00000000000E+00  0.00000000000E+00  0.35774726042E+03  0.35774726042E+03  0.00000000000E+00 0. -1.
         21   -1    0    0  501  502 -0.00000000000E+00 -0.00000000000E+00 -0.14374404931E+03  0.14374404931E+03  0.00000000000E+00 0. -1.
      99926    2    1    2    0    0 -0.71054273576E-14  0.00000000000E+00  0.21400321110E+03  0.50149130973E+03  0.45353738475E+03 0.  0.
      99925    2    3    3    0    0 -0.37606059130E+02  0.59057786554E+02  0.23098773344E+03  0.35713750848E+03  0.26322961294E+03 0.  0.
         25    1    4    4    0    0  0.19957278603E+02  0.42892212920E+02  0.11318085105E+03  0.17520116450E+03  0.12509000000E+03 0.  0.
         25    1    4    4    0    0 -0.57563337733E+02  0.16165573633E+02  0.11780688239E+03  0.18193634398E+03  0.12509000000E+03 0.  0.
         25    1    3    3    0    0  0.37606059130E+02 -0.59057786554E+02 -0.16984522334E+02  0.14435380125E+03  0.12509000000E+03 0.  0.
<mgrwt>
<rscale>  2 0.45353738E+03</rscale>
<asrwt>0</asrwt>
<pdfrwt beam="1">  1       21 0.52609891E-01 0.45353738E+03</pdfrwt>
<pdfrwt beam="2">  1       21 0.21138831E-01 0.45353738E+03</pdfrwt>
<totfact> 0.65928117E+04</totfact>
</mgrwt>
</event>
<event>
 7    0  0.4770865E-002  0.4582305E+03  0.7546771E-02  0.1025296E+00
         21   -1    0    0  502  501  0.00000000000E+00  0.00000000000E+00  0.15043202087E+04  0.15043202087E+04  0.00000000000E+00 0.  1.
         21   -1    0    0  501  502 -0.00000000000E+00 -0.00000000000E+00 -0.34895356809E+02  0.34895356809E+02  0.00000000000E+00 0.  1.
      99926    2    1    2    0    0  0.00000000000E+00  0.00000000000E+00  0.14694248518E+04  0.15392155655E+04  0.45823046793E+03 0.  0.
      99925    2    3    3    0    0 -0.56696432460E+02 -0.90382773739E+02  0.10770091810E+04  0.11137498230E+04  0.26288088724E+03 0.  0.
         25    1    4    4    0    0 -0.67656763078E+02 -0.60782286340E+02  0.57817956906E+03  0.59850734841E+03  0.12509000000E+03 0.  0.
         25    1    3    3    0    0  0.56696432460E+02  0.90382773739E+02  0.39241567081E+03  0.42546574250E+03  0.12509000000E+03 0.  0.
         25    1    4    4    0    0  0.10960330618E+02 -0.29600487399E+02  0.49882961197E+03  0.51524247455E+03  0.12509000000E+03 0.  0.
<mgrwt>
<rscale>  2 0.45823047E+03</rscale>
<asrwt>0</asrwt>
<pdfrwt beam="1">  1       21 0.22122352E+00 0.45823047E+03</pdfrwt>
<pdfrwt beam="2">  1       21 0.51316711E-02 0.45823047E+03</pdfrwt>
<totfact> 0.22270183E+04</totfact>
</mgrwt>
</event>
<event>
 7    0  0.4770865E-002  0.4570105E+03  0.7546771E-02  0.1025652E+00
         21   -1    0    0  502  501  0.00000000000E+00  0.00000000000E+00  0.11757925320E+03  0.11757925320E+03  0.00000000000E+00 0.  1.
         21   -1    0    0  501  502 -0.00000000000E+00 -0.00000000000E+00 -0.44408039049E+03  0.44408039049E+03  0.00000000000E+00 0.  1.
      99926    2    1    2    0    0  0.00000000000E+00  0.00000000000E+00 -0.32650113729E+03  0.56165964369E+03  0.45701046235E+03 0.  0.
      99925    2    3    3    0    0  0.82927424550E+02 -0.67257929570E+02 -0.15080988254E+03  0.32100322486E+03  0.26248592888E+03 0.  0.
         25    1    4    4    0    0  0.73078599353E+02 -0.10578161070E+02 -0.68594214751E+02  0.16063951436E+03  0.12509000000E+03 0.  0.
         25    1    3    3    0    0 -0.82927424550E+02  0.67257929570E+02 -0.17569125475E+03  0.24065641884E+03  0.12509000000E+03 0.  0.
         25    1    4    4    0    0  0.98488251973E+01 -0.56679768500E+02 -0.82215667793E+02  0.16036371050E+03  0.12509000000E+03 0.  0.
<mgrwt>
<rscale>  2 0.45701046E+03</rscale>
<asrwt>0</asrwt>
<pdfrwt beam="1">  1       21 0.17291067E-01 0.45701046E+03</pdfrwt>
<pdfrwt beam="2">  1       21 0.65305940E-01 0.45701046E+03</pdfrwt>
<totfact> 0.60140476E+04</totfact>
</mgrwt>
</event>
<event>
 7    0  0.4770865E-002  0.4533776E+03  0.7546771E-02  0.1026720E+00
         21   -1    0    0  502  501  0.00000000000E+00  0.00000000000E+00  0.44122791449E+02  0.44122791449E+02  0.00000000000E+00 0. -1.
         21   -1    0    0  501  502 -0.00000000000E+00 -0.00000000000E+00 -0.11646544257E+04  0.11646544257E+04  0.00000000000E+00 0. -1.
      99926    2    1    2    0    0  0.00000000000E+00 -0.71054273576E-14 -0.11205316342E+04  0.12087772171E+04  0.45337756598E+03 0.  0.
      99925    2    3    3    0    0  0.91226386427E+02  0.44518508024E+02 -0.83074228390E+03  0.87722099745E+03  0.26283033497E+03 0.  0.
         25    1    3    3    0    0 -0.91226386427E+02 -0.44518508024E+02 -0.28978935031E+03  0.33155621965E+03  0.12509000000E+03 0.  0.
         25    1    4    4    0    0  0.58623822464E+02  0.32880653147E+02 -0.31728819927E+03  0.34761645446E+03  0.12509000000E+03 0.  0.
         25    1    4    4    0    0  0.32602563963E+02  0.11637854877E+02 -0.51345408463E+03  0.52960454300E+03  0.12509000000E+03 0.  0.
<mgrwt>
<rscale>  2 0.45337757E+03</rscale>
<asrwt>0</asrwt>
<pdfrwt beam="1">  1       21 0.64886470E-02 0.45337757E+03</pdfrwt>
<pdfrwt beam="2">  1       21 0.17127268E+00 0.45337757E+03</pdfrwt>
<totfact> 0.32285079E+04</totfact>
</mgrwt>
</event>
<event>
 7    0  0.4770865E-002  0.4404586E+03  0.7546771E-02  0.1030606E+00
         21   -1    0    0  502  501  0.00000000000E+00  0.00000000000E+00  0.44994797609E+03  0.44994797609E+03  0.00000000000E+00 0. -1.
         21   -1    0    0  501  502 -0.00000000000E+00 -0.00000000000E+00 -0.10779234978E+03  0.10779234978E+03  0.00000000000E+00 0. -1.
      99926    2    1    2    0    0 -0.35527136788E-14  0.00000000000E+00  0.34215562631E+03  0.55774032587E+03  0.44045862290E+03 0.  0.
      99925    2    3    3    0    0  0.28180848420E+02 -0.88387539326E+02  0.26210024467E+03  0.38263210346E+03  0.26287691229E+03 0.  0.
         25    1    3    3    0    0 -0.28180848420E+02  0.88387539326E+02  0.80055381645E+02  0.17510822241E+03  0.12509000000E+03 0.  0.
         25    1    4    4    0    0 -0.24558464988E+02 -0.52368811307E+02  0.14127471413E+03  0.19736175808E+03  0.12509000000E+03 0.  0.
         25    1    4    4    0    0  0.52739313408E+02 -0.36018728019E+02  0.12082553054E+03  0.18527034538E+03  0.12509000000E+03 0.  0.
<mgrwt>
<rscale>  2 0.44045862E+03</rscale>
<asrwt>0</asrwt>
<pdfrwt beam="1">  1       21 0.66168819E-01 0.44045862E+03</pdfrwt>
<pdfrwt beam="2">  1       21 0.15851816E-01 0.44045862E+03</pdfrwt>
<totfact> 0.68953538E+04</totfact>
</mgrwt>
</event>
<event>
 7    0  0.4770865E-002  0.4629508E+03  0.7546771E-02  0.1023929E+00
         21   -1    0    0  502  501  0.00000000000E+00  0.00000000000E+00  0.14271887269E+03  0.14271887269E+03  0.00000000000E+00 0.  1.
         21   -1    0    0  501  502 -0.00000000000E+00 -0.00000000000E+00 -0.37542946675E+03  0.37542946675E+03  0.00000000000E+00 0.  1.
      99926    2    1    2    0    0  0.00000000000E+00  0.00000000000E+00 -0.23271059407E+03  0.51814833944E+03  0.46295084088E+03 0.  0.
      99925    2    3    3    0    0  0.10316707528E+03 -0.48190349048E+02 -0.18961720579E+03  0.34359088937E+03  0.26293394487E+03 0.  0.
         25    1    3    3    0    0 -0.10316707528E+03  0.48190349048E+02 -0.43093388278E+02  0.17455745007E+03  0.12509000000E+03 0.  0.
         25    1    4    4    0    0  0.56783524823E+02 -0.18557560412E+02 -0.47777908590E+02  0.14662533338E+03  0.12509000000E+03 0.  0.
         25    1    4    4    0    0  0.46383550454E+02 -0.29632788636E+02 -0.14183929720E+03  0.19696555599E+03  0.12509000000E+03 0.  0.
<mgrwt>
<rscale>  2 0.46295084E+03</rscale>
<asrwt>0</asrwt>
<pdfrwt beam="1">  1       21 0.20988070E-01 0.46295084E+03</pdfrwt>
<pdfrwt beam="2">  1       21 0.55210215E-01 0.46295084E+03</pdfrwt>
<totfact> 0.60129332E+04</totfact>
</mgrwt>
</event>
<event>
 7    0  0.4770865E-002  0.4518144E+03  0.7546771E-02  0.1027182E+00
         21   -1    0    0  502  501  0.00000000000E+00  0.00000000000E+00  0.27288740678E+02  0.27288740678E+02  0.00000000000E+00 0. -1.
         21   -1    0    0  501  502 -0.00000000000E+00 -0.00000000000E+00 -0.18701511092E+04  0.18701511092E+04  0.00000000000E+00 0. -1.
      99926    2    1    2    0    0  0.00000000000E+00  0.17763568394E-14 -0.18428623685E+04  0.18974398499E+04  0.45181442495E+03 0.  0.
      99925    2    3    3    0    0  0.61756153242E+02  0.10517189937E+02 -0.78260118665E+03  0.82798872167E+03  0.26301382495E+03 0.  0.
         25    1    4    4    0    0  0.21388565235E+02  0.38975720529E+02 -0.45161343378E+03  0.47072155164E+03  0.12509000000E+03 0.  0.
         25    1    4    4    0    0  0.40367588007E+02 -0.28458530592E+02 -0.33098775288E+03  0.35726717003E+03  0.12509000000E+03 0.  0.
         25    1    3    3    0    0 -0.61756153242E+02 -0.10517189937E+02 -0.10602611819E+04  0.10694511282E+04  0.12509000000E+03 0.  0.
<mgrwt>
<rscale>  2 0.45181442E+03</rscale>
<asrwt>0</asrwt>
<pdfrwt beam="1">  1       21 0.40130489E-02 0.45181442E+03</pdfrwt>
<pdfrwt beam="2">  1       21 0.27502231E+00 0.45181442E+03</pdfrwt>
<totfact> 0.15845440E+04</totfact>
</mgrwt>
</event>
<event>
 7    0  0.4770865E-002  0.4646952E+03  0.7546771E-02  0.1023428E+00
         21   -1    0    0  502  501  0.00000000000E+00  0.00000000000E+00  0.41850561480E+03  0.41850561480E+03  0.00000000000E+00 0.  1.
         21   -1    0    0  501  502 -0.00000000000E+00 -0.00000000000E+00 -0.12899566847E+03  0.12899566847E+03  0.00000000000E+00 0.  1.
      99926    2    1    2    0    0  0.00000000000E+00  0.00000000000E+00  0.28950994633E+03  0.54750128327E+03  0.46469521857E+03 0.  0.
      99925    2    3    3    0    0  0.55174811006E+02 -0.11385763469E+02  0.53255565217E+02  0.27430257157E+03  0.26311945987E+03 0.  0.
         25    1    3    3    0    0 -0.55174811006E+02  0.11385763469E+02  0.23625438111E+03  0.27319871170E+03  0.12509000000E+03 0.  0.
         25    1    4    4    0    0  0.45788114646E+02 -0.15304371707E+02 -0.86509435610E+01  0.13436190740E+03  0.12509000000E+03 0.  0.
         25    1    4    4    0    0  0.93866963606E+01  0.39186082376E+01  0.61906508778E+02  0.13994066417E+03  0.12509000000E+03 0.  0.
<mgrwt>
<rscale>  2 0.46469522E+03</rscale>
<asrwt>0</asrwt>
<pdfrwt beam="1">  1       21 0.61544943E-01 0.46469522E+03</pdfrwt>
<pdfrwt beam="2">  1       21 0.18969951E-01 0.46469522E+03</pdfrwt>
<totfact> 0.57491723E+04</totfact>
</mgrwt>
</event>
<event>
 7    0  0.4770865E-002  0.4504712E+03  0.7546771E-02  0.1027582E+00
         21   -1    0    0  502  501  0.00000000000E+00  0.00000000000E+00  0.77206545685E+02  0.77206545685E+02  0.00000000000E+00 0.  1.
         21   -1    0    0  501  502 -0.00000000000E+00 -0.00000000000E+00 -0.65708257581E+03  0.65708257581E+03  0.00000000000E+00 0.  1.
      99926    2    1    2    0    0  0.00000000000E+00  0.00000000000E+00 -0.57987603013E+03  0.73428912150E+03  0.45047120178E+03 0.  0.
      99925    2    3    3    0    0  0.63699690657E+02  0.64385208522E+02 -0.46484470239E+03  0.54172012054E+03  0.26301518207E+03 0.  0.
         25    1    4    4    0    0  0.20270993499E+02  0.69930187094E+02 -0.26440828901E+03  0.30143058180E+03  0.12509000000E+03 0.  0.
         25    1    4    4    0    0  0.43428697158E+02 -0.55449785720E+01 -0.20043641338E+03  0.24028953875E+03  0.12509000000E+03 0.  0.
         25    1    3    3    0    0 -0.63699690657E+02 -0.64385208522E+02 -0.11503132774E+03  0.19256900095E+03  0.12509000000E+03 0.  0.
<mgrwt>
<rscale>  2 0.45047120E+03</rscale>
<asrwt>0</asrwt>
<pdfrwt beam="1">  1       21 0.11353904E-01 0.45047120E+03</pdfrwt>
<pdfrwt beam="2">  1       21 0.96629790E-01 0.45047120E+03</pdfrwt>
<totfact> 0.52940608E+04</totfact>
</mgrwt>
</event>
<event>
 7    0  0.4770865E-002  0.4492902E+03  0.7546771E-02  0.1027934E+00
         21   -1    0    0  502  501  0.00000000000E+00  0.00000000000E+00  0.69458961689E+03  0.69458961689E+03  0.00000000000E+00 0. -1.
         21   -1    0    0  501  502 -0.00000000000E+00 -0.00000000000E+00 -0.72655009909E+02  0.72655009909E+02  0.00000000000E+00 0. -1.
      99926    2    1    2    0    0  0.26645352591E-14  0.00000000000E+00  0.62193460698E+03  0.76724462680E+03  0.44929017571E+03 0.  0.
      99925    2    3    3    0    0  0.63100451691E+01  0.13359704685E+02  0.21102242556E+03  0.33746023048E+03  0.26292707104E+03 0.  0.
         25    1    3    3    0    0 -0.63100451691E+01 -0.13359704685E+02  0.41091218142E+03  0.42978439632E+03  0.12509000000E+03 0.  0.
         25    1    4    4    0    0 -0.14117299010E+02  0.29162528450E+02  0.14305357356E+03  0.19277340119E+03  0.12509000000E+03 0.  0.
         25    1    4    4    0    0  0.20427344179E+02 -0.15802823765E+02  0.67968852005E+02  0.14468682930E+03  0.12509000000E+03 0.  0.
<mgrwt>
<rscale>  2 0.44929018E+03</rscale>
<asrwt>0</asrwt>
<pdfrwt beam="1">  1       21 0.10214553E+00 0.44929018E+03</pdfrwt>
<pdfrwt beam="2">  1       21 0.10684561E-01 0.44929018E+03</pdfrwt>
<totfact> 0.51667178E+04</totfact>
</mgrwt>
</event>
<event>
 7    0  0.4770865E-002  0.4590782E+03  0.7546771E-02  0.1025049E+00
         21   -1    0    0  502  501  0.00000000000E+00  0.00000000000E+00  0.61958827322E+03  0.61958827322E+03  0.00000000000E+00 0. -1.
         21   -1    0    0  501  502 -0.00000000000E+00 -0.00000000000E+00 -0.85037449702E+02  0.85037449702E+02  0.00000000000E+00 0. -1.
      99926    2    1    2    0    0  0.00000000000E+00  0.00000000000E+00  0.53455082352E+03  0.70462572292E+03  0.45907823568E+03 0.  0.
      99925    2    3    3    0    0  0.10407700372E+03  0.32922048401E+02  0.39938433528E+03  0.49053842387E+03  0.26306693834E+03 0.  0.
         25    1    4    4    0    0  0.69323354616E+02  0.15471402266E+02  0.27265292455E+03  0.30827295884E+03  0.12509000000E+03 0.  0.
         25    1    3    3    0    0 -0.10407700372E+03 -0.32922048401E+02  0.13516648823E+03  0.21408729905E+03  0.12509000000E+03 0.  0.
         25    1    4    4    0    0  0.34753649106E+02  0.17450646135E+02  0.12673141073E+03  0.18226546503E+03  0.12509000000E+03 0.  0.
<mgrwt>
<rscale>  2 0.45907824E+03</rscale>
<asrwt>0</asrwt>
<pdfrwt beam="1">  1       21 0.91115920E-01 0.45907824E+03</pdfrwt>
<pdfrwt beam="2">  1       21 0.12505508E-01 0.45907824E+03</pdfrwt>
<totfact> 0.50996186E+04</totfact>
</mgrwt>
</event>
<event>
 7    0  0.4770865E-002  0.4526605E+03  0.7546771E-02  0.1026932E+00
         21   -1    0    0  502  501  0.00000000000E+00  0.00000000000E+00  0.17833413117E+03  0.17833413117E+03  0.00000000000E+00 0. -1.
         21   -1    0    0  501  502 -0.00000000000E+00 -0.00000000000E+00 -0.28724390168E+03  0.28724390168E+03  0.00000000000E+00 0. -1.
      99926    2    1    2    0    0  0.00000000000E+00  0.00000000000E+00 -0.10890977050E+03  0.46557803285E+03  0.45266054231E+03 0.  0.
      99925    2    3    3    0    0 -0.18030036181E+02  0.10935532277E+03 -0.62439677620E+02  0.29211147568E+03  0.26295766211E+03 0.  0.
         25    1    4    4    0    0 -0.29679031902E+02  0.18994184372E+02 -0.18702596706E+02  0.13129706470E+03  0.12509000000E+03 0.  0.
         25    1    3    3    0    0  0.18030036181E+02 -0.10935532277E+03 -0.46470092883E+02  0.17346655717E+03  0.12509000000E+03 0.  0.
         25    1    4    4    0    0  0.11648995721E+02  0.90361138400E+02 -0.43737080914E+02  0.16081441099E+03  0.12509000000E+03 0.  0.
<mgrwt>
<rscale>  2 0.45266054E+03</rscale>
<asrwt>0</asrwt>
<pdfrwt beam="1">  1       21 0.26225608E-01 0.45266054E+03</pdfrwt>
<pdfrwt beam="2">  1       21 0.42241750E-01 0.45266054E+03</pdfrwt>
<totfact> 0.69038474E+04</totfact>
</mgrwt>
</event>
<event>
 7    0  0.4770865E-002  0.4551133E+03  0.7546771E-02  0.1026208E+00
         21   -1    0    0  502  501  0.00000000000E+00  0.00000000000E+00  0.13526697349E+03  0.13526697349E+03  0.00000000000E+00 0. -1.
         21   -1    0    0  501  502 -0.00000000000E+00 -0.00000000000E+00 -0.38281350864E+03  0.38281350864E+03  0.00000000000E+00 0. -1.
      99926    2    1    2    0    0  0.00000000000E+00  0.00000000000E+00 -0.24754653515E+03  0.51808048213E+03  0.45511328139E+03 0.  0.
      99925    2    3    3    0    0  0.17764535591E+02  0.92245518809E+02 -0.22791277100E+03  0.36041689324E+03  0.26292830065E+03 0.  0.
         25    1    3    3    0    0 -0.17764535591E+02 -0.92245518809E+02 -0.19633764147E+02  0.15766358888E+03  0.12509000000E+03 0.  0.
         25    1    4    4    0    0  0.10747655609E+02  0.88911792205E+02 -0.12822398184E+03  0.20027410345E+03  0.12509000000E+03 0.  0.
         25    1    4    4    0    0  0.70168799822E+01  0.33337266047E+01 -0.99688789165E+02  0.16014278979E+03  0.12509000000E+03 0.  0.
<mgrwt>
<rscale>  2 0.45511328E+03</rscale>
<asrwt>0</asrwt>
<pdfrwt beam="1">  1       21 0.19892202E-01 0.45511328E+03</pdfrwt>
<pdfrwt beam="2">  1       21 0.56296104E-01 0.45511328E+03</pdfrwt>
<totfact> 0.63960733E+04</totfact>
</mgrwt>
</event>
<event>
 7    0  0.4770865E-002  0.4559561E+03  0.7546771E-02  0.1025961E+00
         21   -1    0    0  502  501  0.00000000000E+00  0.00000000000E+00  0.52636829891E+03  0.52636829891E+03  0.00000000000E+00 0.  1.
         21   -1    0    0  501  502 -0.00000000000E+00 -0.00000000000E+00 -0.98740712284E+02  0.98740712284E+02  0.00000000000E+00 0.  1.
      99926    2    1    2    0    0  0.00000000000E+00  0.00000000000E+00  0.42762758663E+03  0.62510901119E+03  0.45595605384E+03 0.  0.
      99925    2    3    3    0    0  0.75647893810E+02  0.31721790922E+02  0.16031992658E+03  0.31879255869E+03  0.26305387425E+03 0.  0.
         25    1    4    4    0    0  0.39621953787E+02  0.13215512464E+02  0.12714593396E+03  0.18318882503E+03  0.12509000000E+03 0.  0.
         25    1    4    4    0    0  0.36025940023E+02  0.18506278458E+02  0.33173992622E+02  0.13560373366E+03  0.12509000000E+03 0.  0.
         25    1    3    3    0    0 -0.75647893810E+02 -0.31721790922E+02  0.26730766004E+03  0.30631645251E+03  0.12509000000E+03 0.  0.
<mgrwt>
<rscale>  2 0.45595605E+03</rscale>
<asrwt>0</asrwt>
<pdfrwt beam="1">  1       21 0.77407102E-01 0.45595605E+03</pdfrwt>
<pdfrwt beam="2">  1       21 0.14520693E-01 0.45595605E+03</pdfrwt>
<totfact> 0.56729332E+04</totfact>
</mgrwt>
</event>
<event>
 7    0  0.4770865E-002  0.4490485E+03  0.7546771E-02  0.1028006E+00
         21   -1    0    0  502  501  0.00000000000E+00  0.00000000000E+00  0.31849338969E+03  0.31849338969E+03  0.00000000000E+00 0.  1.
         21   -1    0    0  501  502 -0.00000000000E+00 -0.00000000000E+00 -0.15828003861E+03  0.15828003861E+03  0.00000000000E+00 0.  1.
      99926    2    1    2    0    0  0.00000000000E+00  0.00000000000E+00  0.16021335108E+03  0.47677342831E+03  0.44904853198E+03 0.  0.
      99925    2    3    3    0    0  0.64353741617E+01 -0.10182038628E+03  0.13738608725E+03  0.31374767213E+03  0.26297121458E+03 0.  0.
         25    1    3    3    0    0 -0.64353741617E+01  0.10182038628E+03  0.22827263834E+02  0.16302575617E+03  0.12509000000E+03 0.  0.
         25    1    4    4    0    0  0.17941425109E+02 -0.10636873099E+02  0.59573459543E+02  0.14011260823E+03  0.12509000000E+03 0.  0.
         25    1    4    4    0    0 -0.11506050947E+02 -0.91183513178E+02  0.77812627706E+02  0.17363506390E+03  0.12509000000E+03 0.  0.
<mgrwt>
<rscale>  2 0.44904853E+03</rscale>
<asrwt>0</asrwt>
<pdfrwt beam="1">  1       21 0.46837263E-01 0.44904853E+03</pdfrwt>
<pdfrwt beam="2">  1       21 0.23276476E-01 0.44904853E+03</pdfrwt>
<totfact> 0.70193493E+04</totfact>
</mgrwt>
</event>
<event>
 7    0  0.4770865E-002  0.4554543E+03  0.7546771E-02  0.1026108E+00
         21   -1    0    0  502  501  0.00000000000E+00  0.00000000000E+00  0.12213684338E+04  0.12213684338E+04  0.00000000000E+00 0. -1.
         21   -1    0    0  501  502 -0.00000000000E+00 -0.00000000000E+00 -0.42460287328E+02  0.42460287328E+02  0.00000000000E+00 0. -1.
      99926    2    1    2    0    0  0.00000000000E+00  0.00000000000E+00  0.11789081465E+04  0.12638287211E+04  0.45545429905E+03 0.  0.
      99925    2    3    3    0    0 -0.36550866495E+02  0.10741740638E+03  0.73139584734E+03  0.78550954839E+03  0.26307964586E+03 0.  0.
         25    1    4    4    0    0  0.77801858207E+01  0.83884066434E+02  0.41730527010E+03  0.44372093082E+03  0.12509000000E+03 0.  0.
         25    1    3    3    0    0  0.36550866495E+02 -0.10741740638E+03  0.44751229911E+03  0.47831917272E+03  0.12509000000E+03 0.  0.
         25    1    4    4    0    0 -0.44331052316E+02  0.23533339949E+02  0.31409057724E+03  0.34178861757E+03  0.12509000000E+03 0.  0.
<mgrwt>
<rscale>  2 0.45545430E+03</rscale>
<asrwt>0</asrwt>
<pdfrwt beam="1">  1       21 0.17961298E+00 0.45545430E+03</pdfrwt>
<pdfrwt beam="2">  1       21 0.62441607E-02 0.45545430E+03</pdfrwt>
<totfact> 0.30077049E+04</totfact>
</mgrwt>
</event>
<event>
 7    0  0.4770865E-002  0.4515714E+03  0.7546771E-02  0.1027254E+00
         21   -1    0    0  502  501  0.00000000000E+00  0.00000000000E+00  0.14152255969E+03  0.14152255969E+03  0.00000000000E+00 0.  1.
         21   -1    0    0  501  502 -0.00000000000E+00 -0.00000000000E+00 -0.36021953600E+03  0.36021953600E+03  0.00000000000E+00 0.  1.
      99926    2    1    2    0    0  0.71054273576E-14  0.00000000000E+00 -0.21869697631E+03  0.50174209568E+03  0.45157143746E+03 0.  0.
      99925    2    3    3    0    0  0.55029195591E+02 -0.93609655931E+02 -0.11774303972E+03  0.30775708218E+03  0.26279272855E+03 0.  0.
         25    1    4    4    0    0  0.55651862054E+00 -0.65914111337E+02 -0.34475332161E+02  0.14553706199E+03  0.12509000000E+03 0.  0.
         25    1    4    4    0    0  0.54472676970E+02 -0.27695544593E+02 -0.83267707562E+02  0.16222002019E+03  0.12509000000E+03 0.  0.
         25    1    3    3    0    0 -0.55029195591E+02  0.93609655931E+02 -0.10095393659E+03  0.19398501350E+03  0.12509000000E+03 0.  0.
<mgrwt>
<rscale>  2 0.45157144E+03</rscale>
<asrwt>0</asrwt>
<pdfrwt beam="1">  1       21 0.20812141E-01 0.45157144E+03</pdfrwt>
<pdfrwt beam="2">  1       21 0.52973462E-01 0.45157144E+03</pdfrwt>
<totfact> 0.66952027E+04</totfact>
</mgrwt>
</event>
<event>
 7    0  0.4770865E-002  0.4620051E+03  0.7546771E-02  0.1024201E+00
         21   -1    0    0  502  501  0.00000000000E+00  0.00000000000E+00  0.26765020103E+02  0.26765020103E+02  0.00000000000E+00 0. -1.
         21   -1    0    0  501  502 -0.00000000000E+00 -0.00000000000E+00 -0.19937286191E+04  0.19937286191E+04  0.00000000000E+00 0. -1.
      99926    2    1    2    0    0  0.00000000000E+00  0.00000000000E+00 -0.19669635990E+04  0.20204936392E+04  0.46200513663E+03 0.  0.
      99925    2    3    3    0    0  0.70669681034E+02 -0.15575514020E+02 -0.81374821067E+03  0.85825870579E+03  0.26303052152E+03 0.  0.
         25    1    4    4    0    0  0.37977726076E+01 -0.43122670924E+01 -0.46586717282E+03  0.48240309860E+03  0.12509000000E+03 0.  0.
         25    1    4    4    0    0  0.66871908426E+02 -0.11263246927E+02 -0.34788103785E+03  0.37585560720E+03  0.12509000000E+03 0.  0.
         25    1    3    3    0    0 -0.70669681034E+02  0.15575514020E+02 -0.11532153883E+04  0.11622349334E+04  0.12509000000E+03 0.  0.
<mgrwt>
<rscale>  2 0.46200514E+03</rscale>
<asrwt>0</asrwt>
<pdfrwt beam="1">  1       21 0.39360322E-02 0.46200514E+03</pdfrwt>
<pdfrwt beam="2">  1       21 0.29319540E+00 0.46200514E+03</pdfrwt>
<totfact> 0.12674609E+04</totfact>
</mgrwt>
</event>
<event>
 7    0  0.4770865E-002  0.4539340E+03  0.7546771E-02  0.1026555E+00
         21   -1    0    0  502  501  0.00000000000E+00  0.00000000000E+00  0.12591855874E+03  0.12591855874E+03  0.00000000000E+00 0. -1.
         21   -1    0    0  501  502 -0.00000000000E+00 -0.00000000000E+00 -0.40910577306E+03  0.40910577306E+03  0.00000000000E+00 0. -1.
      99926    2    1    2    0    0  0.00000000000E+00 -0.13322676296E-14 -0.28318721432E+03  0.53502433181E+03  0.45393395695E+03 0.  0.
      99925    2    3    3    0    0  0.28294791651E+02  0.34897534433E+01 -0.30621521684E+03  0.40467644876E+03  0.26302565568E+03 0.  0.
         25    1    4    4    0    0  0.42196902713E+01  0.21002095550E+02 -0.20470161949E+03  0.24085089771E+03  0.12509000000E+03 0.  0.
         25    1    4    4    0    0  0.24075101379E+02 -0.17512342107E+02 -0.10151359735E+03  0.16382555106E+03  0.12509000000E+03 0.  0.
         25    1    3    3    0    0 -0.28294791651E+02 -0.34897534433E+01  0.23028002521E+02  0.13034788304E+03  0.12509000000E+03 0.  0.
<mgrwt>
<rscale>  2 0.45393396E+03</rscale>
<asrwt>0</asrwt>
<pdfrwt beam="1">  1       21 0.18517435E-01 0.45393396E+03</pdfrwt>
<pdfrwt beam="2">  1       21 0.60162613E-01 0.45393396E+03</pdfrwt>
<totfact> 0.63400353E+04</totfact>
</mgrwt>
</event>
<event>
 7    0  0.4770865E-002  0.4630588E+03  0.7546771E-02  0.1023898E+00
         21   -1    0    0  502  501  0.00000000000E+00  0.00000000000E+00  0.13806443344E+03  0.13806443344E+03  0.00000000000E+00 0.  1.
         21   -1    0    0  501  502 -0.00000000000E+00 -0.00000000000E+00 -0.38826697651E+03  0.38826697651E+03  0.00000000000E+00 0.  1.
      99926    2    1    2    0    0  0.00000000000E+00  0.00000000000E+00 -0.25020254307E+03  0.52633140995E+03  0.46305878735E+03 0.  0.
      99925    2    3    3    0    0  0.69602130475E+02 -0.73587225194E+02 -0.23055366781E+03  0.36417986763E+03  0.26308258392E+03 0.  0.
         25    1    4    4    0    0  0.54089620552E+02 -0.72377995638E+02 -0.14569870202E+03  0.21222601437E+03  0.12509000000E+03 0.  0.
         25    1    4    4    0    0  0.15512509922E+02 -0.12092295559E+01 -0.84854965795E+02  0.15195385326E+03  0.12509000000E+03 0.  0.
         25    1    3    3    0    0 -0.69602130475E+02  0.73587225194E+02 -0.19648875258E+02  0.16215154232E+03  0.12509000000E+03 0.  0.
<mgrwt>
<rscale>  2 0.46305879E+03</rscale>
<asrwt>0</asrwt>
<pdfrwt beam="1">  1       21 0.20303594E-01 0.46305879E+03</pdfrwt>
<pdfrwt beam="2">  1       21 0.57098083E-01 0.46305879E+03</pdfrwt>
<totfact> 0.59558061E+04</totfact>
</mgrwt>
</event>
<event>
 7    0  0.4770865E-002  0.4535167E+03  0.7546771E-02  0.1026678E+00
         21   -1    0    0  502  501  0.00000000000E+00  0.00000000000E+00  0.60871989432E+03  0.60871989432E+03  0.00000000000E+00 0. -1.
         21   -1    0    0  501  502 -0.00000000000E+00 -0.00000000000E+00 -0.84471279456E+02  0.84471279456E+02  0.00000000000E+00 0. -1.
      99926    2    1    2    0    0  0.00000000000E+00 -0.14210854715E-13  0.52424861486E+03  0.69319117377E+03  0.45351669563E+03 0.  0.
      99925    2    3    3    0    0 -0.69641363772E+02 -0.78985934039E+02  0.27461514855E+03  0.39477355880E+03  0.26333246209E+03 0.  0.
         25    1    3    3    0    0  0.69641363772E+02  0.78985934039E+02  0.24963346631E+03  0.29841761497E+03  0.12509000000E+03 0.  0.
         25    1    4    4    0    0 -0.29227714314E+02 -0.74944135282E+01  0.16519089864E+03  0.20939428505E+03  0.12509000000E+03 0.  0.
         25    1    4    4    0    0 -0.40413649458E+02 -0.71491520511E+02  0.10942424991E+03  0.18537927375E+03  0.12509000000E+03 0.  0.
<mgrwt>
<rscale>  2 0.45351670E+03</rscale>
<asrwt>0</asrwt>
<pdfrwt beam="1">  1       21 0.89517629E-01 0.45351670E+03</pdfrwt>
<pdfrwt beam="2">  1       21 0.12422247E-01 0.45351670E+03</pdfrwt>
<totfact> 0.53900810E+04</totfact>
</mgrwt>
</event>
<event>
 7    0  0.4770865E-002  0.4633514E+03  0.7546771E-02  0.1023814E+00
         21   -1    0    0  502  501  0.00000000000E+00  0.00000000000E+00  0.24780127180E+03  0.24780127180E+03  0.00000000000E+00 0. -1.
         21   -1    0    0  501  502 -0.00000000000E+00 -0.00000000000E+00 -0.21659951028E+03  0.21659951028E+03  0.00000000000E+00 0. -1.
      99926    2    1    2    0    0  0.00000000000E+00  0.71054273576E-14  0.31201761518E+02  0.46440078208E+03  0.46335141790E+03 0.  0.
      99925    2    3    3    0    0 -0.11187895697E+03  0.21765882870E+02 -0.20570465890E+02  0.28743037127E+03  0.26306352767E+03 0.  0.
         25    1    4    4    0    0 -0.55970916585E+02 -0.22288167037E+02 -0.33810523486E+02  0.14289914447E+03  0.12509000000E+03 0.  0.
         25    1    4    4    0    0 -0.55908040388E+02  0.44054049908E+02  0.13240057595E+02  0.14453122679E+03  0.12509000000E+03 0.  0.
         25    1    3    3    0    0  0.11187895697E+03 -0.21765882870E+02  0.51772227409E+02  0.17697041081E+03  0.12509000000E+03 0.  0.
<mgrwt>
<rscale>  2 0.46335142E+03</rscale>
<asrwt>0</asrwt>
<pdfrwt beam="1">  1       21 0.36441364E-01 0.46335142E+03</pdfrwt>
<pdfrwt beam="2">  1       21 0.31852869E-01 0.46335142E+03</pdfrwt>
<totfact> 0.63523045E+04</totfact>
</mgrwt>
</event>
<event>
 7    0  0.4770865E-002  0.4554782E+03  0.7546771E-02  0.1026101E+00
         21   -1    0    0  502  501  0.00000000000E+00  0.00000000000E+00  0.26146018039E+03  0.26146018039E+03  0.00000000000E+00 0.  1.
         21   -1    0    0  501  502 -0.00000000000E+00 -0.00000000000E+00 -0.19836705653E+03  0.19836705653E+03  0.00000000000E+00 0.  1.
      99926    2    1    2    0    0 -0.14210854715E-13 -0.35527136788E-14  0.63093123859E+02  0.45982723692E+03  0.45547815045E+03 0.  0.
      99925    2    3    3    0    0  0.10916340183E+03  0.28272630319E+02  0.26236595086E+02  0.28742682585E+03  0.26307761473E+03 0.  0.
         25    1    4    4    0    0  0.28372215017E+02 -0.19032070109E+02  0.18564543569E+02  0.13099371227E+03  0.12509000000E+03 0.  0.
         25    1    3    3    0    0 -0.10916340183E+03 -0.28272630319E+02  0.36856528772E+02  0.17240041107E+03  0.12509000000E+03 0.  0.
         25    1    4    4    0    0  0.80791186809E+02  0.47304700428E+02  0.76720515171E+01  0.15643311358E+03  0.12509000000E+03 0.  0.
<mgrwt>
<rscale>  2 0.45547815E+03</rscale>
<asrwt>0</asrwt>
<pdfrwt beam="1">  1       21 0.38450027E-01 0.45547815E+03</pdfrwt>
<pdfrwt beam="2">  1       21 0.29171626E-01 0.45547815E+03</pdfrwt>
<totfact> 0.67933755E+04</totfact>
</mgrwt>
</event>
<event>
 7    0  0.4770865E-002  0.4502544E+03  0.7546771E-02  0.1027646E+00
         21   -1    0    0  502  501  0.00000000000E+00  0.00000000000E+00  0.37735166953E+03  0.37735166953E+03  0.00000000000E+00 0.  1.
         21   -1    0    0  501  502 -0.00000000000E+00 -0.00000000000E+00 -0.13431040018E+03  0.13431040018E+03  0.00000000000E+00 0.  1.
      99926    2    1    2    0    0 -0.71054273576E-14  0.00000000000E+00  0.24304126935E+03  0.51166206971E+03  0.45025438917E+03 0.  0.
      99925    2    3    3    0    0 -0.44261894717E+02  0.51135942886E+02  0.25012952403E+03  0.36928316876E+03  0.26311837633E+03 0.  0.
         25    1    3    3    0    0  0.44261894717E+02 -0.51135942886E+02 -0.70882546764E+01  0.14237890094E+03  0.12509000000E+03 0.  0.
         25    1    4    4    0    0 -0.45490127246E+02  0.85041285912E+01  0.16462704253E+03  0.21187553684E+03  0.12509000000E+03 0.  0.
         25    1    4    4    0    0  0.12282325285E+01  0.42631814295E+02  0.85502481501E+02  0.15740763192E+03  0.12509000000E+03 0.  0.
<mgrwt>
<rscale>  2 0.45025439E+03</rscale>
<asrwt>0</asrwt>
<pdfrwt beam="1">  1       21 0.55492893E-01 0.45025439E+03</pdfrwt>
<pdfrwt beam="2">  1       21 0.19751529E-01 0.45025439E+03</pdfrwt>
<totfact> 0.66944556E+04</totfact>
</mgrwt>
</event>
<event>
 7    0  0.4770865E-002  0.4540326E+03  0.7546771E-02  0.1026526E+00
         21   -1    0    0  502  501  0.00000000000E+00  0.00000000000E+00  0.72758442826E+02  0.72758442826E+02  0.00000000000E+00 0.  1.
         21   -1    0    0  501  502 -0.00000000000E+00 -0.00000000000E+00 -0.70832177413E+03  0.70832177413E+03  0.00000000000E+00 0.  1.
      99926    2    1    2    0    0  0.14210854715E-13  0.71054273576E-14 -0.63556333130E+03  0.78108021696E+03  0.45403255084E+03 0.  0.
      99925    2    3    3    0    0 -0.65782470109E+02 -0.16910738241E+02 -0.24641649891E+03  0.36671797000E+03  0.26295944962E+03 0.  0.
         25    1    4    4    0    0 -0.76086437093E+01  0.24181820029E+02 -0.11748052535E+03  0.17346997958E+03  0.12509000000E+03 0.  0.
         25    1    4    4    0    0 -0.58173826400E+02 -0.41092558271E+02 -0.12893597356E+03  0.19324799042E+03  0.12509000000E+03 0.  0.
         25    1    3    3    0    0  0.65782470109E+02  0.16910738241E+02 -0.38914683239E+03  0.41436224695E+03  0.12509000000E+03 0.  0.
<mgrwt>
<rscale>  2 0.45403255E+03</rscale>
<asrwt>0</asrwt>
<pdfrwt beam="1">  1       21 0.10699772E-01 0.45403255E+03</pdfrwt>
<pdfrwt beam="2">  1       21 0.10416496E+00 0.45403255E+03</pdfrwt>
<totfact> 0.49065116E+04</totfact>
</mgrwt>
</event>
<event>
 7    0  0.4770865E-002  0.4507631E+03  0.7546771E-02  0.1027495E+00
         21   -1    0    0  502  501  0.00000000000E+00  0.00000000000E+00  0.57500349802E+02  0.57500349802E+02  0.00000000000E+00 0.  1.
         21   -1    0    0  501  502 -0.00000000000E+00 -0.00000000000E+00 -0.88341817257E+03  0.88341817257E+03  0.00000000000E+00 0.  1.
      99926    2    1    2    0    0  0.00000000000E+00 -0.17763568394E-14 -0.82591782277E+03  0.94091852237E+03  0.45076314820E+03 0.  0.
      99925    2    3    3    0    0  0.10453867447E+03 -0.87289003690E+01 -0.58493149724E+03  0.64984044804E+03  0.26295099029E+03 0.  0.
         25    1    4    4    0    0  0.39108476817E+02 -0.18856596174E+02 -0.36529594986E+03  0.38855332100E+03  0.12509000000E+03 0.  0.
         25    1    4    4    0    0  0.65430197649E+02  0.10127695805E+02 -0.21963554738E+03  0.26128712704E+03  0.12509000000E+03 0.  0.
         25    1    3    3    0    0 -0.10453867447E+03  0.87289003690E+01 -0.24098632554E+03  0.29107807433E+03  0.12509000000E+03 0.  0.
<mgrwt>
<rscale>  2 0.45076315E+03</rscale>
<asrwt>0</asrwt>
<pdfrwt beam="1">  1       21 0.84559337E-02 0.45076315E+03</pdfrwt>
<pdfrwt beam="2">  1       21 0.12991444E+00 0.45076315E+03</pdfrwt>
<totfact> 0.42915155E+04</totfact>
</mgrwt>
</event>
<event>
 7    0  0.4770865E-002  0.4540533E+03  0.7546771E-02  0.1026520E+00
         21   -1    0    0  502  501  0.00000000000E+00  0.00000000000E+00  0.11949728201E+04  0.11949728201E+04  0.00000000000E+00 0.  1.
         21   -1    0    0  501  502 -0.00000000000E+00 -0.00000000000E+00 -0.43131603692E+02  0.43131603692E+02  0.00000000000E+00 0.  1.
      99926    2    1    2    0    0  0.00000000000E+00 -0.14210854715E-13  0.11518412164E+04  0.12381044238E+04  0.45405327485E+03 0.  0.
      99925    2    3    3    0    0 -0.28730799915E+01 -0.11064947893E+03  0.77650208491E+03  0.82727777725E+03  0.26302370822E+03 0.  0.
         25    1    3    3    0    0  0.28730799915E+01  0.11064947893E+03  0.37533913153E+03  0.41082664657E+03  0.12509000000E+03 0.  0.
         25    1    4    4    0    0 -0.24581826120E+01 -0.71862579077E+02  0.51476227509E+03  0.53460076776E+03  0.12509000000E+03 0.  0.
         25    1    4    4    0    0 -0.41489737943E+00 -0.38786899856E+02  0.26173980982E+03  0.29267700949E+03  0.12509000000E+03 0.  0.
<mgrwt>
<rscale>  2 0.45405327E+03</rscale>
<asrwt>0</asrwt>
<pdfrwt beam="1">  1       21 0.17573127E+00 0.45405327E+03</pdfrwt>
<pdfrwt beam="2">  1       21 0.63428837E-02 0.45405327E+03</pdfrwt>
<totfact> 0.31195879E+04</totfact>
</mgrwt>
</event>
<event>
 7    0  0.4770865E-002  0.4635243E+03  0.7546771E-02  0.1023764E+00
         21   -1    0    0  502  501  0.00000000000E+00  0.00000000000E+00  0.48977074467E+02  0.48977074467E+02  0.00000000000E+00 0. -1.
         21   -1    0    0  501  502 -0.00000000000E+00 -0.00000000000E+00 -0.10967111870E+04  0.10967111870E+04  0.00000000000E+00 0. -1.
      99926    2    1    2    0    0  0.00000000000E+00  0.00000000000E+00 -0.10477341125E+04  0.11456882614E+04  0.46352434876E+03 0.  0.
      99925    2    3    3    0    0 -0.72218184058E+02  0.80531372751E+02 -0.78845082503E+03  0.83815598774E+03  0.26296385337E+03 0.  0.
         25    1    3    3    0    0  0.72218184058E+02 -0.80531372751E+02 -0.25928328749E+03  0.30753227371E+03  0.12509000000E+03 0.  0.
         25    1    4    4    0    0 -0.13011567477E+02  0.55048393105E+02 -0.47754506542E+03  0.49688673163E+03  0.12509000000E+03 0.  0.
         25    1    4    4    0    0 -0.59206616581E+02  0.25482979646E+02 -0.31090575961E+03  0.34126925610E+03  0.12509000000E+03 0.  0.
<mgrwt>
<rscale>  2 0.46352435E+03</rscale>
<asrwt>0</asrwt>
<pdfrwt beam="1">  1       21 0.72025108E-02 0.46352435E+03</pdfrwt>
<pdfrwt beam="2">  1       21 0.16128106E+00 0.46352435E+03</pdfrwt>
<totfact> 0.31763266E+04</totfact>
</mgrwt>
</event>
<event>
 6    0  0.4770865E-002  0.4568540E+03  0.7546771E-02  0.1025698E+00
         21   -1    0    0  502  501  0.00000000000E+00  0.00000000000E+00  0.47746805635E+02  0.47746805635E+02  0.00000000000E+00 0. -1.
         21   -1    0    0  501  502 -0.00000000000E+00 -0.00000000000E+00 -0.10928247175E+04  0.10928247175E+04  0.00000000000E+00 0. -1.
      99926    2    1    2    0    0  0.00000000000E+00 -0.14210854715E-13 -0.10450779119E+04  0.11405715231E+04  0.45685397833E+03 0.  0.
         25    1    3    3    0    0 -0.36158592311E+02  0.49907912756E+00 -0.27026963329E+03  0.30000145942E+03  0.12509000000E+03 0.  0.
         25    1    3    3    0    0  0.69198296017E+02 -0.88380960555E+02 -0.36154360549E+03  0.39869899063E+03  0.12509000000E+03 0.  0.
         25    1    3    3    0    0 -0.33039703706E+02  0.87881881428E+02 -0.41326467309E+03  0.44187107308E+03  0.12509000000E+03 0.  0.
<mgrwt>
<rscale>  2 0.45685398E+03</rscale>
<asrwt>0</asrwt>
<pdfrwt beam="1">  1       21 0.70215896E-02 0.45685398E+03</pdfrwt>
<pdfrwt beam="2">  1       21 0.16070951E+00 0.45685398E+03</pdfrwt>
<totfact> 0.33610404E+04</totfact>
</mgrwt>
</event>
<event>
 7    0  0.4770865E-002  0.4515303E+03  0.7546771E-02  0.1027267E+00
         21   -1    0    0  502  501  0.00000000000E+00  0.00000000000E+00  0.44460346911E+02  0.44460346911E+02  0.00000000000E+00 0.  1.
         21   -1    0    0  501  502 -0.00000000000E+00 -0.00000000000E+00 -0.11464123860E+04  0.11464123860E+04  0.00000000000E+00 0.  1.
      99926    2    1    2    0    0 -0.71054273576E-14  0.00000000000E+00 -0.11019520391E+04  0.11908727329E+04  0.45153025317E+03 0.  0.
      99925    2    3    3    0    0  0.53640555391E+02 -0.81497412478E+02 -0.56269113953E+03  0.62876156657E+03  0.26306016740E+03 0.  0.
         25    1    4    4    0    0  0.10747983049E+02 -0.63225809544E+01 -0.29881760236E+03  0.32418353097E+03  0.12509000000E+03 0.  0.
         25    1    4    4    0    0  0.42892572341E+02 -0.75174831524E+02 -0.26387353716E+03  0.30457803560E+03  0.12509000000E+03 0.  0.
         25    1    3    3    0    0 -0.53640555391E+02  0.81497412478E+02 -0.53926089953E+03  0.56211116631E+03  0.12509000000E+03 0.  0.
<mgrwt>
<rscale>  2 0.45153025E+03</rscale>
<asrwt>0</asrwt>
<pdfrwt beam="1">  1       21 0.65382859E-02 0.45153025E+03</pdfrwt>
<pdfrwt beam="2">  1       21 0.16859007E+00 0.45153025E+03</pdfrwt>
<totfact> 0.33338683E+04</totfact>
</mgrwt>
</event>
<event>
 7    0  0.4770865E-002  0.4545783E+03  0.7546771E-02  0.1026365E+00
         21   -1    0    0  502  501  0.00000000000E+00  0.00000000000E+00  0.31599562351E+03  0.31599562351E+03  0.00000000000E+00 0.  1.
         21   -1    0    0  501  502 -0.00000000000E+00 -0.00000000000E+00 -0.16348441047E+03  0.16348441047E+03  0.00000000000E+00 0.  1.
      99926    2    1    2    0    0  0.00000000000E+00 -0.71054273576E-14  0.15251121305E+03  0.47948003398E+03  0.45457830225E+03 0.  0.
      99925    2    3    3    0    0 -0.63748548903E+02  0.57061734641E+02  0.18365052467E+02  0.27708779217E+03  0.26290768412E+03 0.  0.
         25    1    3    3    0    0  0.63748548903E+02 -0.57061734641E+02  0.13414616058E+03  0.20239224181E+03  0.12509000000E+03 0.  0.
         25    1    4    4    0    0 -0.26960311168E+02  0.14692908292E+02  0.46854383161E+02  0.13706050217E+03  0.12509000000E+03 0.  0.
         25    1    4    4    0    0 -0.36788237735E+02  0.42368826348E+02 -0.28489330695E+02  0.14002729000E+03  0.12509000000E+03 0.  0.
<mgrwt>
<rscale>  2 0.45457830E+03</rscale>
<asrwt>0</asrwt>
<pdfrwt beam="1">  1       21 0.46469945E-01 0.45457830E+03</pdfrwt>
<pdfrwt beam="2">  1       21 0.24041825E-01 0.45457830E+03</pdfrwt>
<totfact> 0.66961818E+04</totfact>
</mgrwt>
</event>
<event>
 7    0  0.4770865E-002  0.4559793E+03  0.7546771E-02  0.1025954E+00
         21   -1    0    0  502  501  0.00000000000E+00  0.00000000000E+00  0.12153664378E+03  0.12153664378E+03  0.00000000000E+00 0.  1.
         21   -1    0    0  501  502 -0.00000000000E+00 -0.00000000000E+00 -0.42768410416E+03  0.42768410416E+03  0.00000000000E+00 0.  1.
      99926    2    1    2    0    0  0.00000000000E+00  0.00000000000E+00 -0.30614746038E+03  0.54922074794E+03  0.45597934435E+03 0.  0.
      99925    2    3    3    0    0  0.10652199974E+03 -0.37625134029E+02 -0.21213877657E+03  0.35622404365E+03  0.26292607631E+03 0.  0.
         25    1    4    4    0    0  0.94085895857E+02 -0.65254199736E+01 -0.11445856891E+03  0.19401806360E+03  0.12509000000E+03 0.  0.
         25    1    4    4    0    0  0.12436103883E+02 -0.31099714056E+02 -0.97680207667E+02  0.16220598005E+03  0.12509000000E+03 0.  0.
         25    1    3    3    0    0 -0.10652199974E+03  0.37625134029E+02 -0.94008683801E+02  0.19299670430E+03  0.12509000000E+03 0.  0.
<mgrwt>
<rscale>  2 0.45597934E+03</rscale>
<asrwt>0</asrwt>
<pdfrwt beam="1">  1       21 0.17873036E-01 0.45597934E+03</pdfrwt>
<pdfrwt beam="2">  1       21 0.62894722E-01 0.45597934E+03</pdfrwt>
<totfact> 0.61440568E+04</totfact>
</mgrwt>
</event>
<event>
 7    0  0.4770865E-002  0.4543494E+03  0.7546771E-02  0.1026433E+00
         21   -1    0    0  502  501  0.00000000000E+00  0.00000000000E+00  0.82087762316E+02  0.82087762316E+02  0.00000000000E+00 0.  1.
         21   -1    0    0  501  502 -0.00000000000E+00 -0.00000000000E+00 -0.62869720285E+03  0.62869720285E+03  0.00000000000E+00 0.  1.
      99926    2    1    2    0    0  0.17763568394E-14  0.00000000000E+00 -0.54660944053E+03  0.71078496517E+03  0.45434940984E+03 0.  0.
      99925    2    3    3    0    0 -0.35514714083E+01  0.77751212058E+02 -0.47133527268E+03  0.54534140267E+03  0.26302555440E+03 0.  0.
         25    1    4    4    0    0 -0.30256750304E+02  0.89498183285E+01 -0.21638505357E+03  0.25192373786E+03  0.12509000000E+03 0.  0.
         25    1    3    3    0    0  0.35514714083E+01 -0.77751212058E+02 -0.75274167857E+02  0.16544356250E+03  0.12509000000E+03 0.  0.
         25    1    4    4    0    0  0.26705278896E+02  0.68801393730E+02 -0.25495021911E+03  0.29341766481E+03  0.12509000000E+03 0.  0.
<mgrwt>
<rscale>  2 0.45434941E+03</rscale>
<asrwt>0</asrwt>
<pdfrwt beam="1">  1       21 0.12071730E-01 0.45434941E+03</pdfrwt>
<pdfrwt beam="2">  1       21 0.92455469E-01 0.45434941E+03</pdfrwt>
<totfact> 0.52589992E+04</totfact>
</mgrwt>
</event>
<event>
 7    0  0.4770865E-002  0.4461091E+03  0.7546771E-02  0.1028889E+00
         21   -1    0    0  502  501  0.00000000000E+00  0.00000000000E+00  0.28899972268E+03  0.28899972268E+03  0.00000000000E+00 0. -1.
         21   -1    0    0  501  502 -0.00000000000E+00 -0.00000000000E+00 -0.17215704682E+03  0.17215704682E+03  0.00000000000E+00 0. -1.
      99926    2    1    2    0    0  0.00000000000E+00 -0.71054273576E-14  0.11684267586E+03  0.46115676950E+03  0.44610912919E+03 0.  0.
      99925    2    3    3    0    0 -0.54142045331E+02 -0.48758033572E+02  0.15152578997E+03  0.31229732769E+03  0.26317455984E+03 0.  0.
         25    1    4    4    0    0 -0.22770053065E+02 -0.62881558956E+02  0.95399679310E+02  0.17094201557E+03  0.12509000000E+03 0.  0.
         25    1    3    3    0    0  0.54142045331E+02  0.48758033572E+02 -0.34683114111E+02  0.14885944181E+03  0.12509000000E+03 0.  0.
         25    1    4    4    0    0 -0.31371992266E+02  0.14123525384E+02  0.56126110664E+02  0.14135531213E+03  0.12509000000E+03 0.  0.
<mgrwt>
<rscale>  2 0.44610913E+03</rscale>
<asrwt>0</asrwt>
<pdfrwt beam="1">  1       21 0.42499959E-01 0.44610913E+03</pdfrwt>
<pdfrwt beam="2">  1       21 0.25317213E-01 0.44610913E+03</pdfrwt>
<totfact> 0.73121715E+04</totfact>
</mgrwt>
</event>
<event>
 7    0  0.4770865E-002  0.4577341E+03  0.7546771E-02  0.1025440E+00
         21   -1    0    0  502  501  0.00000000000E+00  0.00000000000E+00  0.49775968937E+02  0.49775968937E+02  0.00000000000E+00 0.  1.
         21   -1    0    0  501  502 -0.00000000000E+00 -0.00000000000E+00 -0.10523177228E+04  0.10523177228E+04  0.00000000000E+00 0.  1.
      99926    2    1    2    0    0  0.00000000000E+00  0.35527136788E-14 -0.10025417539E+04  0.11020936918E+04  0.45773413368E+03 0.  0.
      99925    2    3    3    0    0 -0.10342797302E+03  0.12976566303E+02 -0.50835561105E+03  0.58177341659E+03  0.26300027395E+03 0.  0.
         25    1    4    4    0    0 -0.56093293066E+02 -0.33342110039E+02 -0.24089808877E+03  0.27917297703E+03  0.12509000000E+03 0.  0.
         25    1    4    4    0    0 -0.47334679950E+02  0.46318676341E+02 -0.26745752228E+03  0.30260043957E+03  0.12509000000E+03 0.  0.
         25    1    3    3    0    0  0.10342797302E+03 -0.12976566303E+02 -0.49418614286E+03  0.52032027519E+03  0.12509000000E+03 0.  0.
<mgrwt>
<rscale>  2 0.45773413E+03</rscale>
<asrwt>0</asrwt>
<pdfrwt beam="1">  1       21 0.73199956E-02 0.45773413E+03</pdfrwt>
<pdfrwt beam="2">  1       21 0.15475260E+00 0.45773413E+03</pdfrwt>
<totfact> 0.34676179E+04</totfact>
</mgrwt>
</event>
<event>
 7    0  0.4770865E-002  0.4487150E+03  0.7546771E-02  0.1028106E+00
         21   -1    0    0  502  501  0.00000000000E+00  0.00000000000E+00  0.21335710539E+03  0.21335710539E+03  0.00000000000E+00 0.  1.
         21   -1    0    0  501  502 -0.00000000000E+00 -0.00000000000E+00 -0.23592505928E+03  0.23592505928E+03  0.00000000000E+00 0.  1.
      99926    2    1    2    0    0  0.14210854715E-13  0.17763568394E-14 -0.22567953881E+02  0.44928216467E+03  0.44871499969E+03 0.  0.
      99925    2    3    3    0    0 -0.65970532256E+02 -0.15704950086E+02  0.68722664015E+02  0.28022524645E+03  0.26306772439E+03 0.  0.
         25    1    4    4    0    0 -0.74584959094E+01 -0.21911232761E+02  0.32209246359E+01  0.12725413053E+03  0.12509000000E+03 0.  0.
         25    1    4    4    0    0 -0.58512036347E+02  0.62062826749E+01  0.65501739379E+02  0.15297111591E+03  0.12509000000E+03 0.  0.
         25    1    3    3    0    0  0.65970532256E+02  0.15704950086E+02 -0.91290617895E+02  0.16905691822E+03  0.12509000000E+03 0.  0.
<mgrwt>
<rscale>  2 0.44871500E+03</rscale>
<asrwt>0</asrwt>
<pdfrwt beam="1">  1       21 0.31376045E-01 0.44871500E+03</pdfrwt>
<pdfrwt beam="2">  1       21 0.34694861E-01 0.44871500E+03</pdfrwt>
<totfact> 0.72536573E+04</totfact>
</mgrwt>
</event>
<event>
 7    0  0.4770865E-002  0.4574993E+03  0.7546771E-02  0.1025509E+00
         21   -1    0    0  502  501  0.00000000000E+00  0.00000000000E+00  0.27923150908E+02  0.27923150908E+02  0.00000000000E+00 0.  1.
         21   -1    0    0  501  502 -0.00000000000E+00 -0.00000000000E+00 -0.18739437258E+04  0.18739437258E+04  0.00000000000E+00 0.  1.
      99926    2    1    2    0    0 -0.14210854715E-13 -0.14210854715E-13 -0.18460205749E+04  0.19018668767E+04  0.45749934841E+03 0.  0.
      99925    2    3    3    0    0 -0.66875436227E+02 -0.94019491595E+02 -0.11832133170E+04  0.12175621507E+04  0.26296739078E+03 0.  0.
         25    1    3    3    0    0  0.66875436227E+02  0.94019491595E+02 -0.66280725788E+03  0.68430472595E+03  0.12509000000E+03 0.  0.
         25    1    4    4    0    0  0.20212386050E+01 -0.25588029898E+02 -0.58188449107E+03  0.59573140066E+03  0.12509000000E+03 0.  0.
         25    1    4    4    0    0 -0.68896674831E+02 -0.68431461697E+02 -0.60132882592E+03  0.62183075007E+03  0.12509000000E+03 0.  0.
<mgrwt>
<rscale>  2 0.45749935E+03</rscale>
<asrwt>0</asrwt>
<pdfrwt beam="1">  1       21 0.41063461E-02 0.45749935E+03</pdfrwt>
<pdfrwt beam="2">  1       21 0.27557994E+00 0.45749935E+03</pdfrwt>
<totfact> 0.15084096E+04</totfact>
</mgrwt>
</event>
<event>
 7    0  0.4770865E-002  0.4571447E+03  0.7546771E-02  0.1025613E+00
         21   -1    0    0  502  501  0.00000000000E+00  0.00000000000E+00  0.10429477519E+04  0.10429477519E+04  0.00000000000E+00 0. -1.
         21   -1    0    0  501  502 -0.00000000000E+00 -0.00000000000E+00 -0.50093889118E+02  0.50093889118E+02  0.00000000000E+00 0. -1.
      99926    2    1    2    0    0 -0.14210854715E-13  0.71054273576E-14  0.99285386277E+03  0.10930416410E+04  0.45714465562E+03 0.  0.
      99925    2    3    3    0    0 -0.68460356542E+02  0.60805586792E+02  0.45635256586E+03  0.53459263752E+03  0.26295909174E+03 0.  0.
         25    1    3    3    0    0  0.68460356542E+02 -0.60805586792E+02  0.53650129692E+03  0.55844900349E+03  0.12509000000E+03 0.  0.
         25    1    4    4    0    0 -0.38710875964E+02  0.70490760771E+02  0.22424997041E+03  0.26907812360E+03  0.12509000000E+03 0.  0.
         25    1    4    4    0    0 -0.29749480579E+02 -0.96851739792E+01  0.23210259545E+03  0.26551451392E+03  0.12509000000E+03 0.  0.
<mgrwt>
<rscale>  2 0.45714466E+03</rscale>
<asrwt>0</asrwt>
<pdfrwt beam="1">  1       21 0.15337466E+00 0.45714466E+03</pdfrwt>
<pdfrwt beam="2">  1       21 0.73667491E-02 0.45714466E+03</pdfrwt>
<totfact> 0.35144756E+04</totfact>
</mgrwt>
</event>
<event>
 7    0  0.4770865E-002  0.4523114E+03  0.7546771E-02  0.1027035E+00
         21   -1    0    0  502  501  0.00000000000E+00  0.00000000000E+00  0.13264972973E+03  0.13264972973E+03  0.00000000000E+00 0. -1.
         21   -1    0    0  501  502 -0.00000000000E+00 -0.00000000000E+00 -0.38557489319E+03  0.38557489319E+03  0.00000000000E+00 0. -1.
      99926    2    1    2    0    0  0.14210854715E-13 -0.17763568394E-14 -0.25292516345E+03  0.51822462292E+03  0.45231142092E+03 0.  0.
      99925    2    3    3    0    0  0.10912162151E+03 -0.73081834662E+01 -0.14080654970E+03  0.31777754892E+03  0.26304970696E+03 0.  0.
         25    1    4    4    0    0  0.34628517193E+02 -0.28425238455E+02 -0.96231502480E+02  0.16405833887E+03  0.12509000000E+03 0.  0.
         25    1    3    3    0    0 -0.10912162151E+03  0.73081834662E+01 -0.11211861375E+03  0.20044707400E+03  0.12509000000E+03 0.  0.
         25    1    4    4    0    0  0.74493104319E+02  0.21117054989E+02 -0.44575047225E+02  0.15371921005E+03  0.12509000000E+03 0.  0.
<mgrwt>
<rscale>  2 0.45231142E+03</rscale>
<asrwt>0</asrwt>
<pdfrwt beam="1">  1       21 0.19507313E-01 0.45231142E+03</pdfrwt>
<pdfrwt beam="2">  1       21 0.56702190E-01 0.45231142E+03</pdfrwt>
<totfact> 0.65392155E+04</totfact>
</mgrwt>
</event>
<event>
 7    0  0.4770865E-002  0.4483432E+03  0.7546771E-02  0.1028217E+00
         21   -1    0    0  502  501  0.00000000000E+00  0.00000000000E+00  0.10482223961E+03  0.10482223961E+03  0.00000000000E+00 0.  1.
         21   -1    0    0  501  502 -0.00000000000E+00 -0.00000000000E+00 -0.47941076769E+03  0.47941076769E+03  0.00000000000E+00 0.  1.
      99926    2    1    2    0    0  0.00000000000E+00  0.17763568394E-14 -0.37458852808E+03  0.58423300729E+03  0.44834321835E+03 0.  0.
      99925    2    3    3    0    0 -0.10116764435E+03 -0.11233509088E+02 -0.27991473745E+03  0.39722573812E+03  0.26282112319E+03 0.  0.
         25    1    4    4    0    0 -0.27636263207E+02 -0.22181384764E+02 -0.90679103807E+02  0.15851178140E+03  0.12509000000E+03 0.  0.
         25    1    3    3    0    0  0.10116764435E+03  0.11233509088E+02 -0.94673790626E+02  0.18700726917E+03  0.12509000000E+03 0.  0.
         25    1    4    4    0    0 -0.73531381146E+02  0.10947875676E+02 -0.18923563365E+03  0.23871395673E+03  0.12509000000E+03 0.  0.
<mgrwt>
<rscale>  2 0.44834322E+03</rscale>
<asrwt>0</asrwt>
<pdfrwt beam="1">  1       21 0.15415036E-01 0.44834322E+03</pdfrwt>
<pdfrwt beam="2">  1       21 0.70501582E-01 0.44834322E+03</pdfrwt>
<totfact> 0.62904637E+04</totfact>
</mgrwt>
</event>
<event>
 7    0  0.4770865E-002  0.4557732E+03  0.7546771E-02  0.1026014E+00
         21   -1    0    0  502  501  0.00000000000E+00  0.00000000000E+00  0.93316567526E+03  0.93316567526E+03  0.00000000000E+00 0. -1.
         21   -1    0    0  501  502 -0.00000000000E+00 -0.00000000000E+00 -0.55651745061E+02  0.55651745061E+02  0.00000000000E+00 0. -1.
      99926    2    1    2    0    0  0.00000000000E+00 -0.14210854715E-13  0.87751393019E+03  0.98881742032E+03  0.45577318157E+03 0.  0.
      99925    2    3    3    0    0  0.67714538530E+02  0.66397541594E+02  0.41750881182E+03  0.50276587029E+03  0.26356407213E+03 0.  0.
         25    1    4    4    0    0  0.45259825147E+02  0.60477692272E+02  0.16776697434E+03  0.22248431139E+03  0.12509000000E+03 0.  0.
         25    1    4    4    0    0  0.22454713383E+02  0.59198493229E+01  0.24974183749E+03  0.28028155890E+03  0.12509000000E+03 0.  0.
         25    1    3    3    0    0 -0.67714538530E+02 -0.66397541594E+02  0.46000511837E+03  0.48605155003E+03  0.12509000000E+03 0.  0.
<mgrwt>
<rscale>  2 0.45577318E+03</rscale>
<asrwt>0</asrwt>
<pdfrwt beam="1">  1       21 0.13723024E+00 0.45577318E+03</pdfrwt>
<pdfrwt beam="2">  1       21 0.81840807E-02 0.45577318E+03</pdfrwt>
<totfact> 0.39366224E+04</totfact>
</mgrwt>
</event>
<event>
 7    0  0.4770865E-002  0.4593036E+03  0.7546771E-02  0.1024983E+00
         21   -1    0    0  502  501  0.00000000000E+00  0.00000000000E+00  0.76391167496E+02  0.76391167496E+02  0.00000000000E+00 0. -1.
         21   -1    0    0  501  502 -0.00000000000E+00 -0.00000000000E+00 -0.69039336969E+03  0.69039336969E+03  0.00000000000E+00 0. -1.
      99926    2    1    2    0    0  0.00000000000E+00  0.14210854715E-13 -0.61400220219E+03  0.76678453718E+03  0.45930362743E+03 0.  0.
      99925    2    3    3    0    0 -0.63986572515E+02 -0.97087331610E+02 -0.36246348225E+03  0.46274594235E+03  0.26312316464E+03 0.  0.
         25    1    3    3    0    0  0.63986572515E+02  0.97087331610E+02 -0.25153871994E+03  0.30403859484E+03  0.12509000000E+03 0.  0.
         25    1    4    4    0    0 -0.29244188067E+02 -0.80030132782E+02 -0.23826343245E+03  0.28227117464E+03  0.12509000000E+03 0.  0.
         25    1    4    4    0    0 -0.34742384447E+02 -0.17057198828E+02 -0.12420004980E+03  0.18047476771E+03  0.12509000000E+03 0.  0.
<mgrwt>
<rscale>  2 0.45930363E+03</rscale>
<asrwt>0</asrwt>
<pdfrwt beam="1">  1       21 0.11233996E-01 0.45930363E+03</pdfrwt>
<pdfrwt beam="2">  1       21 0.10152843E+00 0.45930363E+03</pdfrwt>
<totfact> 0.47778446E+04</totfact>
</mgrwt>
</event>
<event>
 7    0  0.4770865E-002  0.4560514E+03  0.7546771E-02  0.1025933E+00
         21   -1    0    0  502  501  0.00000000000E+00  0.00000000000E+00  0.41305342478E+03  0.41305342478E+03  0.00000000000E+00 0. -1.
         21   -1    0    0  501  502 -0.00000000000E+00 -0.00000000000E+00 -0.12588136007E+03  0.12588136007E+03  0.00000000000E+00 0. -1.
      99926    2    1    2    0    0  0.00000000000E+00  0.14210854715E-13  0.28717206471E+03  0.53893478485E+03  0.45605143084E+03 0.  0.
      99925    2    3    3    0    0 -0.74687243198E+02 -0.85253640331E+02  0.19358273054E+03  0.34592483937E+03  0.26333126180E+03 0.  0.
         25    1    3    3    0    0  0.74687243198E+02  0.85253640331E+02  0.93589334172E+02  0.19300994549E+03  0.12509000000E+03 0.  0.
         25    1    4    4    0    0 -0.58014528094E+02 -0.15165317843E+02  0.12228665846E+03  0.18492486927E+03  0.12509000000E+03 0.  0.
         25    1    4    4    0    0 -0.16672715104E+02 -0.70088322488E+02  0.71296072079E+02  0.16099997010E+03  0.12509000000E+03 0.  0.
<mgrwt>
<rscale>  2 0.45605143E+03</rscale>
<asrwt>0</asrwt>
<pdfrwt beam="1">  1       21 0.60743150E-01 0.45605143E+03</pdfrwt>
<pdfrwt beam="2">  1       21 0.18511965E-01 0.45605143E+03</pdfrwt>
<totfact> 0.62085446E+04</totfact>
</mgrwt>
</event>
<event>
 7    0  0.4770865E-002  0.4629534E+03  0.7546771E-02  0.1023928E+00
         21   -1    0    0  502  501  0.00000000000E+00  0.00000000000E+00  0.11970440998E+04  0.11970440998E+04  0.00000000000E+00 0. -1.
         21   -1    0    0  501  502 -0.00000000000E+00 -0.00000000000E+00 -0.44761482779E+02  0.44761482779E+02  0.00000000000E+00 0. -1.
      99926    2    1    2    0    0  0.00000000000E+00  0.00000000000E+00  0.11522826171E+04  0.12418055826E+04  0.46295342686E+03 0.  0.
      99925    2    3    3    0    0 -0.51007440147E+02 -0.76286844814E+02  0.51080181773E+03  0.58183091216E+03  0.26303473478E+03 0.  0.
         25    1    4    4    0    0 -0.41457601451E+02 -0.56595709357E+02  0.33985143766E+03  0.36887438894E+03  0.12509000000E+03 0.  0.
         25    1    4    4    0    0 -0.95498386954E+01 -0.19691135457E+02  0.17095038007E+03  0.21295652322E+03  0.12509000000E+03 0.  0.
         25    1    3    3    0    0  0.51007440147E+02  0.76286844814E+02  0.64148079933E+03  0.65997467047E+03  0.12509000000E+03 0.  0.
<mgrwt>
<rscale>  2 0.46295343E+03</rscale>
<asrwt>0</asrwt>
<pdfrwt beam="1">  1       21 0.17603588E+00 0.46295343E+03</pdfrwt>
<pdfrwt beam="2">  1       21 0.65825718E-02 0.46295343E+03</pdfrwt>
<totfact> 0.29014177E+04</totfact>
</mgrwt>
</event>
<event>
 7    0  0.4770865E-002  0.4605970E+03  0.7546771E-02  0.1024608E+00
         21   -1    0    0  502  501  0.00000000000E+00  0.00000000000E+00  0.15908823534E+03  0.15908823534E+03  0.00000000000E+00 0. -1.
         21   -1    0    0  501  502 -0.00000000000E+00 -0.00000000000E+00 -0.33338348397E+03  0.33338348397E+03  0.00000000000E+00 0. -1.
      99926    2    1    2    0    0  0.00000000000E+00  0.00000000000E+00 -0.17429524863E+03  0.49247171932E+03  0.46059696116E+03 0.  0.
      99925    2    3    3    0    0  0.10560354758E+03 -0.36948920909E+02 -0.67778411772E+02  0.29369879195E+03  0.26295956966E+03 0.  0.
         25    1    4    4    0    0  0.77280479392E+02 -0.43160021083E+02 -0.12027584105E+02  0.15371151809E+03  0.12509000000E+03 0.  0.
         25    1    4    4    0    0  0.28323068191E+02  0.62111001748E+01 -0.55750827667E+02  0.13998727386E+03  0.12509000000E+03 0.  0.
         25    1    3    3    0    0 -0.10560354758E+03  0.36948920909E+02 -0.10651683686E+03  0.19877292736E+03  0.12509000000E+03 0.  0.
<mgrwt>
<rscale>  2 0.46059696E+03</rscale>
<asrwt>0</asrwt>
<pdfrwt beam="1">  1       21 0.23395329E-01 0.46059696E+03</pdfrwt>
<pdfrwt beam="2">  1       21 0.49026983E-01 0.46059696E+03</pdfrwt>
<totfact> 0.62958609E+04</totfact>
</mgrwt>
</event>
<event>
 7    0  0.4770865E-002  0.4564075E+03  0.7546771E-02  0.1025828E+00
         21   -1    0    0  502  501  0.00000000000E+00  0.00000000000E+00  0.61110239080E+02  0.61110239080E+02  0.00000000000E+00 0. -1.
         21   -1    0    0  501  502 -0.00000000000E+00 -0.00000000000E+00 -0.85218059795E+03  0.85218059795E+03  0.00000000000E+00 0. -1.
      99926    2    1    2    0    0  0.71054273576E-14 -0.28421709430E-13 -0.79107035887E+03  0.91329083703E+03  0.45640753754E+03 0.  0.
      99925    2    3    3    0    0  0.52997143334E+02 -0.98228187358E+02 -0.54814488126E+03  0.61813364202E+03  0.26299983756E+03 0.  0.
         25    1    4    4    0    0  0.63272181108E+01 -0.15746040050E+02 -0.28569781763E+03  0.31234391713E+03  0.12509000000E+03 0.  0.
         25    1    3    3    0    0 -0.52997143334E+02  0.98228187358E+02 -0.24292547761E+03  0.29515719501E+03  0.12509000000E+03 0.  0.
         25    1    4    4    0    0  0.46669925223E+02 -0.82482147308E+02 -0.26244706363E+03  0.30578972490E+03  0.12509000000E+03 0.  0.
<mgrwt>
<rscale>  2 0.45640754E+03</rscale>
<asrwt>0</asrwt>
<pdfrwt beam="1">  1       21 0.89868008E-02 0.45640754E+03</pdfrwt>
<pdfrwt beam="2">  1       21 0.12532066E+00 0.45640754E+03</pdfrwt>
<totfact> 0.42197246E+04</totfact>
</mgrwt>
</event>
<event>
 7    0  0.4770865E-002  0.4469666E+03  0.7546771E-02  0.1028631E+00
         21   -1    0    0  502  501  0.00000000000E+00  0.00000000000E+00  0.15705970097E+03  0.15705970097E+03  0.00000000000E+00 0. -1.
         21   -1    0    0  501  502 -0.00000000000E+00 -0.00000000000E+00 -0.31799868968E+03  0.31799868968E+03  0.00000000000E+00 0. -1.
      99926    2    1    2    0    0  0.00000000000E+00  0.35527136788E-14 -0.16093898871E+03  0.47505839064E+03  0.44696657194E+03 0.  0.
      99925    2    3    3    0    0  0.96909613130E+02 -0.16573077505E+02 -0.61632749488E+02  0.28750739154E+03  0.26305087791E+03 0.  0.
         25    1    4    4    0    0  0.46055577161E+02 -0.29489228895E+02  0.45015155992E+01  0.13659612934E+03  0.12509000000E+03 0.  0.
         25    1    4    4    0    0  0.50854035969E+02  0.12916151390E+02 -0.66134265088E+02  0.15091126220E+03  0.12509000000E+03 0.  0.
         25    1    3    3    0    0 -0.96909613130E+02  0.16573077505E+02 -0.99306239220E+02  0.18755099910E+03  0.12509000000E+03 0.  0.
<mgrwt>
<rscale>  2 0.44696657E+03</rscale>
<asrwt>0</asrwt>
<pdfrwt beam="1">  1       21 0.23097015E-01 0.44696657E+03</pdfrwt>
<pdfrwt beam="2">  1       21 0.46764513E-01 0.44696657E+03</pdfrwt>
<totfact> 0.71513979E+04</totfact>
</mgrwt>
</event>
<event>
 7    0  0.4770865E-002  0.4563342E+03  0.7546771E-02  0.1025850E+00
         21   -1    0    0  502  501  0.00000000000E+00  0.00000000000E+00  0.14963408423E+03  0.14963408423E+03  0.00000000000E+00 0.  1.
         21   -1    0    0  501  502 -0.00000000000E+00 -0.00000000000E+00 -0.34791686671E+03  0.34791686671E+03  0.00000000000E+00 0.  1.
      99926    2    1    2    0    0  0.14210854715E-13 -0.71054273576E-14 -0.19828278248E+03  0.49755095095E+03  0.45633418342E+03 0.  0.
      99925    2    3    3    0    0  0.10131543672E+03 -0.31204174408E+02 -0.77758388222E+02  0.29405118207E+03  0.26302321670E+03 0.  0.
         25    1    4    4    0    0  0.27687735818E+02 -0.46894294638E+02 -0.24307925374E+02  0.13857874628E+03  0.12509000000E+03 0.  0.
         25    1    4    4    0    0  0.73627700905E+02  0.15690120230E+02 -0.53450462848E+02  0.15547243579E+03  0.12509000000E+03 0.  0.
         25    1    3    3    0    0 -0.10131543672E+03  0.31204174408E+02 -0.12052439426E+03  0.20349976887E+03  0.12509000000E+03 0.  0.
<mgrwt>
<rscale>  2 0.45633418E+03</rscale>
<asrwt>0</asrwt>
<pdfrwt beam="1">  1       21 0.22005012E-01 0.45633418E+03</pdfrwt>
<pdfrwt beam="2">  1       21 0.51164245E-01 0.45633418E+03</pdfrwt>
<totfact> 0.64754501E+04</totfact>
</mgrwt>
</event>
<event>
 7    0  0.4770865E-002  0.4554483E+03  0.7546771E-02  0.1026110E+00
         21   -1    0    0  502  501  0.00000000000E+00  0.00000000000E+00  0.11299313577E+04  0.11299313577E+04  0.00000000000E+00 0.  1.
         21   -1    0    0  501  502 -0.00000000000E+00 -0.00000000000E+00 -0.45895082566E+02  0.45895082566E+02  0.00000000000E+00 0.  1.
      99926    2    1    2    0    0  0.00000000000E+00 -0.17763568394E-14  0.10840362752E+04  0.11758264403E+04  0.45544831960E+03 0.  0.
      99925    2    3    3    0    0 -0.10591505542E+03 -0.12484815984E+02  0.78346572345E+03  0.83324209411E+03  0.26286874668E+03 0.  0.
         25    1    3    3    0    0  0.10591505542E+03  0.12484815984E+02  0.30057055173E+03  0.34258434620E+03  0.12509000000E+03 0.  0.
         25    1    4    4    0    0 -0.39384117890E+02 -0.43535469382E+02  0.40580755572E+03  0.42868837891E+03  0.12509000000E+03 0.  0.
         25    1    4    4    0    0 -0.66530937533E+02  0.31050653398E+02  0.37765816773E+03  0.40455371520E+03  0.12509000000E+03 0.  0.
<mgrwt>
<rscale>  2 0.45544832E+03</rscale>
<asrwt>0</asrwt>
<pdfrwt beam="1">  1       21 0.16616636E+00 0.45544832E+03</pdfrwt>
<pdfrwt beam="2">  1       21 0.67492776E-02 0.45544832E+03</pdfrwt>
<totfact> 0.32816898E+04</totfact>
</mgrwt>
</event>
<event>
 7    0  0.4770865E-002  0.4577520E+03  0.7546771E-02  0.1025435E+00
         21   -1    0    0  502  501  0.00000000000E+00  0.00000000000E+00  0.33472060320E+03  0.33472060320E+03  0.00000000000E+00 0. -1.
         21   -1    0    0  501  502 -0.00000000000E+00 -0.00000000000E+00 -0.15650132216E+03  0.15650132216E+03  0.00000000000E+00 0. -1.
      99926    2    1    2    0    0 -0.71054273576E-14  0.14210854715E-13  0.17821928104E+03  0.49122192537E+03  0.45775197195E+03 0.  0.
      99925    2    3    3    0    0  0.59210122886E+02 -0.91990701078E+02  0.15245880537E+03  0.32305760708E+03  0.26297224648E+03 0.  0.
         25    1    4    4    0    0  0.13994650683E+02 -0.36849456061E+02  0.31202312524E+02  0.13481403883E+03  0.12509000000E+03 0.  0.
         25    1    4    4    0    0  0.45215472203E+02 -0.55141245017E+02  0.12125649285E+03  0.18824356825E+03  0.12509000000E+03 0.  0.
         25    1    3    3    0    0 -0.59210122886E+02  0.91990701078E+02  0.25760475671E+02  0.16816431828E+03  0.12509000000E+03 0.  0.
<mgrwt>
<rscale>  2 0.45775197E+03</rscale>
<asrwt>0</asrwt>
<pdfrwt beam="1">  1       21 0.49223618E-01 0.45775197E+03</pdfrwt>
<pdfrwt beam="2">  1       21 0.23014900E-01 0.45775197E+03</pdfrwt>
<totfact> 0.64471784E+04</totfact>
</mgrwt>
</event>
<event>
 7    0  0.4770865E-002  0.4558462E+03  0.7546771E-02  0.1025993E+00
         21   -1    0    0  502  501  0.00000000000E+00  0.00000000000E+00  0.40440000140E+03  0.40440000140E+03  0.00000000000E+00 0. -1.
         21   -1    0    0  501  502 -0.00000000000E+00 -0.00000000000E+00 -0.12845928796E+03  0.12845928796E+03  0.00000000000E+00 0. -1.
      99926    2    1    2    0    0 -0.71054273576E-14 -0.35527136788E-14  0.27594071344E+03  0.53285928935E+03  0.45584618559E+03 0.  0.
      99925    2    3    3    0    0 -0.39113076619E+02  0.23393947060E+02  0.51471570042E+02  0.27187842040E+03  0.26304266466E+03 0.  0.
         25    1    4    4    0    0 -0.37202837755E+02  0.36992797073E+02  0.54029274056E+02  0.14601091989E+03  0.12509000000E+03 0.  0.
         25    1    4    4    0    0 -0.19102388643E+01 -0.13598850013E+02 -0.25577040141E+01  0.12586750051E+03  0.12509000000E+03 0.  0.
         25    1    3    3    0    0  0.39113076619E+02 -0.23393947060E+02  0.22446914340E+03  0.26098086895E+03  0.12509000000E+03 0.  0.
<mgrwt>
<rscale>  2 0.45584619E+03</rscale>
<asrwt>0</asrwt>
<pdfrwt beam="1">  1       21 0.59470588E-01 0.45584619E+03</pdfrwt>
<pdfrwt beam="2">  1       21 0.18891072E-01 0.45584619E+03</pdfrwt>
<totfact> 0.62592524E+04</totfact>
</mgrwt>
</event>
<event>
 7    0  0.4770865E-002  0.4610909E+03  0.7546771E-02  0.1024465E+00
         21   -1    0    0  502  501  0.00000000000E+00  0.00000000000E+00  0.34157644493E+02  0.34157644493E+02  0.00000000000E+00 0. -1.
         21   -1    0    0  501  502 -0.00000000000E+00 -0.00000000000E+00 -0.15560560679E+04  0.15560560679E+04  0.00000000000E+00 0. -1.
      99926    2    1    2    0    0  0.00000000000E+00 -0.35527136788E-14 -0.15218984234E+04  0.15902137124E+04  0.46109092369E+03 0.  0.
      99925    2    3    3    0    0  0.10946047880E+03  0.18578703052E+02 -0.10979835258E+04  0.11344965708E+04  0.26303589414E+03 0.  0.
         25    1    3    3    0    0 -0.10946047880E+03 -0.18578703052E+02 -0.42391489760E+03  0.45571714159E+03  0.12509000000E+03 0.  0.
         25    1    4    4    0    0  0.86649706911E+02  0.38078125036E+02 -0.59941685248E+03  0.61960163529E+03  0.12509000000E+03 0.  0.
         25    1    4    4    0    0  0.22810771888E+02 -0.19499421984E+02 -0.49856667329E+03  0.51489493548E+03  0.12509000000E+03 0.  0.
<mgrwt>
<rscale>  2 0.46109092E+03</rscale>
<asrwt>0</asrwt>
<pdfrwt beam="1">  1       21 0.50231852E-02 0.46109092E+03</pdfrwt>
<pdfrwt beam="2">  1       21 0.22883168E+00 0.46109092E+03</pdfrwt>
<totfact> 0.20657415E+04</totfact>
</mgrwt>
</event>
<event>
 7    0  0.4770865E-002  0.4685325E+03  0.7546771E-02  0.1022335E+00
         21   -1    0    0  502  501  0.00000000000E+00  0.00000000000E+00  0.18442075154E+04  0.18442075154E+04  0.00000000000E+00 0. -1.
         21   -1    0    0  501  502 -0.00000000000E+00 -0.00000000000E+00 -0.29758399918E+02  0.29758399918E+02  0.00000000000E+00 0. -1.
      99926    2    1    2    0    0  0.71054273576E-14  0.14210854715E-13  0.18144491155E+04  0.18739659153E+04  0.46853245256E+03 0.  0.
      99925    2    3    3    0    0  0.48659176314E+02  0.94324049170E+02  0.13955970363E+04  0.14241333754E+04  0.26305900729E+03 0.  0.
         25    1    3    3    0    0 -0.48659176314E+02 -0.94324049170E+02  0.41885207911E+03  0.44983253992E+03  0.12509000000E+03 0.  0.
         25    1    4    4    0    0  0.34203236073E+02  0.69349454796E+01  0.68329828976E+03  0.69553002503E+03  0.12509000000E+03 0.  0.
         25    1    4    4    0    0  0.14455940241E+02  0.87389103691E+02  0.71229874659E+03  0.72860335035E+03  0.12509000000E+03 0.  0.
<mgrwt>
<rscale>  2 0.46853245E+03</rscale>
<asrwt>0</asrwt>
<pdfrwt beam="1">  1       21 0.27120691E+00 0.46853245E+03</pdfrwt>
<pdfrwt beam="2">  1       21 0.43762365E-02 0.46853245E+03</pdfrwt>
<totfact> 0.14314957E+04</totfact>
</mgrwt>
</event>
<event>
 7    0  0.4770865E-002  0.4517849E+03  0.7546771E-02  0.1027191E+00
         21   -1    0    0  502  501  0.00000000000E+00  0.00000000000E+00  0.96167918461E+02  0.96167918461E+02  0.00000000000E+00 0. -1.
         21   -1    0    0  501  502 -0.00000000000E+00 -0.00000000000E+00 -0.53060729302E+03  0.53060729302E+03  0.00000000000E+00 0. -1.
      99926    2    1    2    0    0  0.00000000000E+00  0.00000000000E+00 -0.43443937456E+03  0.62677521148E+03  0.45178489966E+03 0.  0.
      99925    2    3    3    0    0  0.52092996304E+02 -0.54275041513E+02 -0.38581821653E+03  0.47292143186E+03  0.26294395622E+03 0.  0.
         25    1    4    4    0    0  0.26829312754E+02  0.14088537097E+02 -0.18382530687E+03  0.22440488062E+03  0.12509000000E+03 0.  0.
         25    1    4    4    0    0  0.25263683550E+02 -0.68363578611E+02 -0.20199290966E+03  0.24851655124E+03  0.12509000000E+03 0.  0.
         25    1    3    3    0    0 -0.52092996304E+02  0.54275041513E+02 -0.48621158027E+02  0.15385377962E+03  0.12509000000E+03 0.  0.
<mgrwt>
<rscale>  2 0.45178490E+03</rscale>
<asrwt>0</asrwt>
<pdfrwt beam="1">  1       21 0.14142341E-01 0.45178490E+03</pdfrwt>
<pdfrwt beam="2">  1       21 0.78030483E-01 0.45178490E+03</pdfrwt>
<totfact> 0.58531288E+04</totfact>
</mgrwt>
</event>
<event>
 7    0  0.4770865E-002  0.4608087E+03  0.7546771E-02  0.1024547E+00
         21   -1    0    0  502  501  0.00000000000E+00  0.00000000000E+00  0.35662431084E+02  0.35662431084E+02  0.00000000000E+00 0. -1.
         21   -1    0    0  501  502 -0.00000000000E+00 -0.00000000000E+00 -0.14885736747E+04  0.14885736747E+04  0.00000000000E+00 0. -1.
      99926    2    1    2    0    0 -0.35527136788E-14  0.00000000000E+00 -0.14529112437E+04  0.15242361058E+04  0.46080866350E+03 0.  0.
      99925    2    3    3    0    0 -0.26707963363E+02 -0.10261804501E+03 -0.72940976233E+03  0.78238323629E+03  0.26237596796E+03 0.  0.
         25    1    3    3    0    0  0.26707963363E+02  0.10261804501E+03 -0.72350148133E+03  0.74185286955E+03  0.12509000000E+03 0.  0.
         25    1    4    4    0    0 -0.19443072972E+02 -0.42080671032E+02 -0.46277202260E+03  0.48161630886E+03  0.12509000000E+03 0.  0.
         25    1    4    4    0    0 -0.72648903913E+01 -0.60537373979E+02 -0.26663773974E+03  0.30076692743E+03  0.12509000000E+03 0.  0.
<mgrwt>
<rscale>  2 0.46080866E+03</rscale>
<asrwt>0</asrwt>
<pdfrwt beam="1">  1       21 0.52444749E-02 0.46080866E+03</pdfrwt>
<pdfrwt beam="2">  1       21 0.21890791E+00 0.46080866E+03</pdfrwt>
<totfact> 0.22173972E+04</totfact>
</mgrwt>
</event>
<event>
 7    0  0.4770865E-002  0.4510558E+03  0.7546771E-02  0.1027408E+00
         21   -1    0    0  502  501  0.00000000000E+00  0.00000000000E+00  0.23979058971E+03  0.23979058971E+03  0.00000000000E+00 0.  1.
         21   -1    0    0  501  502 -0.00000000000E+00 -0.00000000000E+00 -0.21211353596E+03  0.21211353596E+03  0.00000000000E+00 0.  1.
      99926    2    1    2    0    0  0.00000000000E+00  0.35527136788E-14  0.27677053750E+02  0.45190412566E+03  0.45105578312E+03 0.  0.
      99925    2    3    3    0    0  0.80957618841E+02  0.23127259065E+02 -0.53403630902E+02  0.28070076213E+03  0.26239657755E+03 0.  0.
         25    1    4    4    0    0  0.34565032558E+02 -0.26840857698E+02 -0.34863219044E+02  0.13703329982E+03  0.12509000000E+03 0.  0.
         25    1    3    3    0    0 -0.80957618841E+02 -0.23127259065E+02  0.81080684652E+02  0.17120336353E+03  0.12509000000E+03 0.  0.
         25    1    4    4    0    0  0.46392586283E+02  0.49968116763E+02 -0.18540411857E+02  0.14366746231E+03  0.12509000000E+03 0.  0.
<mgrwt>
<rscale>  2 0.45105578E+03</rscale>
<asrwt>0</asrwt>
<pdfrwt beam="1">  1       21 0.35263322E-01 0.45105578E+03</pdfrwt>
<pdfrwt beam="2">  1       21 0.31193167E-01 0.45105578E+03</pdfrwt>
<totfact> 0.70980840E+04</totfact>
</mgrwt>
</event>
<event>
 7    0  0.4770865E-002  0.4912769E+03  0.7546771E-02  0.1016081E+00
         21   -1    0    0  502  501  0.00000000000E+00  0.00000000000E+00  0.26145888053E+03  0.26145888053E+03  0.00000000000E+00 0. -1.
         21   -1    0    0  501  502 -0.00000000000E+00 -0.00000000000E+00 -0.23077526932E+03  0.23077526932E+03  0.00000000000E+00 0. -1.
      99926    2    1    2    0    0  0.00000000000E+00  0.00000000000E+00  0.30683611214E+02  0.49223414985E+03  0.49127688149E+03 0.  0.
      99925    2    3    3    0    0 -0.27937874698E+02  0.10210056493E+03 -0.79859851908E+02  0.29456671313E+03  0.26303403266E+03 0.  0.
         25    1    4    4    0    0 -0.49520475694E+02  0.35104360204E+02 -0.51417002973E+02  0.14824240255E+03  0.12509000000E+03 0.  0.
         25    1    4    4    0    0  0.21582600996E+02  0.66996204723E+02 -0.28442848935E+02  0.14632431059E+03  0.12509000000E+03 0.  0.
         25    1    3    3    0    0  0.27937874698E+02 -0.10210056493E+03  0.11054346312E+03  0.19766743672E+03  0.12509000000E+03 0.  0.
<mgrwt>
<rscale>  2 0.49127688E+03</rscale>
<asrwt>0</asrwt>
<pdfrwt beam="1">  1       21 0.38449836E-01 0.49127688E+03</pdfrwt>
<pdfrwt beam="2">  1       21 0.33937539E-01 0.49127688E+03</pdfrwt>
<totfact> 0.49836065E+04</totfact>
</mgrwt>
</event>
<event>
 7    0  0.4770865E-002  0.4553067E+03  0.7546771E-02  0.1026151E+00
         21   -1    0    0  502  501  0.00000000000E+00  0.00000000000E+00  0.34519489677E+03  0.34519489677E+03  0.00000000000E+00 0. -1.
         21   -1    0    0  501  502 -0.00000000000E+00 -0.00000000000E+00 -0.15013558190E+03  0.15013558190E+03  0.00000000000E+00 0. -1.
      99926    2    1    2    0    0  0.14210854715E-13  0.00000000000E+00  0.19505931486E+03  0.49533047867E+03  0.45530665137E+03 0.  0.
      99925    2    3    3    0    0  0.10944110793E+03 -0.26080175787E+02  0.10524651913E+03  0.30461766303E+03  0.26278804989E+03 0.  0.
         25    1    4    4    0    0  0.20111964617E+02  0.11822843893E+02  0.53797610833E+02  0.13815195181E+03  0.12509000000E+03 0.  0.
         25    1    3    3    0    0 -0.10944110793E+03  0.26080175787E+02  0.89812795735E+02  0.19071281564E+03  0.12509000000E+03 0.  0.
         25    1    4    4    0    0  0.89329143309E+02 -0.37903019680E+02  0.51448908294E+02  0.16646571121E+03  0.12509000000E+03 0.  0.
<mgrwt>
<rscale>  2 0.45530665E+03</rscale>
<asrwt>0</asrwt>
<pdfrwt beam="1">  1       21 0.50763955E-01 0.45530665E+03</pdfrwt>
<pdfrwt beam="2">  1       21 0.22078762E-01 0.45530665E+03</pdfrwt>
<totfact> 0.65440514E+04</totfact>
</mgrwt>
</event>
<event>
 7    0  0.4770865E-002  0.4977554E+03  0.7546771E-02  0.1014366E+00
         21   -1    0    0  502  501  0.00000000000E+00  0.00000000000E+00  0.43146805120E+03  0.43146805120E+03  0.00000000000E+00 0. -1.
         21   -1    0    0  501  502 -0.00000000000E+00 -0.00000000000E+00 -0.14355666280E+03  0.14355666280E+03  0.00000000000E+00 0. -1.
      99926    2    1    2    0    0  0.00000000000E+00  0.71054273576E-14  0.28791138840E+03  0.57502471399E+03  0.49775541598E+03 0.  0.
      99925    2    3    3    0    0  0.13902085338E+03  0.55546862240E+02  0.17239598730E+03  0.34830116522E+03  0.26302295275E+03 0.  0.
         25    1    3    3    0    0 -0.13902085338E+03 -0.55546862240E+02  0.11551540110E+03  0.22672354878E+03  0.12509000000E+03 0.  0.
         25    1    4    4    0    0  0.34427437502E+02  0.40059504359E+02  0.53670044887E+02  0.14600682916E+03  0.12509000000E+03 0.  0.
         25    1    4    4    0    0  0.10459341588E+03  0.15487357881E+02  0.11872594241E+03  0.20229433606E+03  0.12509000000E+03 0.  0.
<mgrwt>
<rscale>  2 0.49775542E+03</rscale>
<asrwt>0</asrwt>
<pdfrwt beam="1">  1       21 0.63451184E-01 0.49775542E+03</pdfrwt>
<pdfrwt beam="2">  1       21 0.21111274E-01 0.49775542E+03</pdfrwt>
<totfact> 0.43535115E+04</totfact>
</mgrwt>
</event>
<event>
 7    0  0.4770865E-002  0.4655561E+03  0.7546771E-02  0.1023182E+00
         21   -1    0    0  502  501  0.00000000000E+00  0.00000000000E+00  0.14093320966E+04  0.14093320966E+04  0.00000000000E+00 0.  1.
         21   -1    0    0  501  502 -0.00000000000E+00 -0.00000000000E+00 -0.38447725108E+02  0.38447725108E+02  0.00000000000E+00 0.  1.
      99926    2    1    2    0    0  0.00000000000E+00  0.00000000000E+00  0.13708843715E+04  0.14477798217E+04  0.46555606767E+03 0.  0.
      99925    2    3    3    0    0 -0.99540599458E+02  0.69748982951E+02  0.80022980755E+03  0.85106599498E+03  0.26300633330E+03 0.  0.
         25    1    4    4    0    0 -0.63167546172E+02  0.73597195469E+02  0.47579193708E+03  0.50143011633E+03  0.12509000000E+03 0.  0.
         25    1    3    3    0    0  0.99540599458E+02 -0.69748982951E+02  0.57065456395E+03  0.59671382674E+03  0.12509000000E+03 0.  0.
         25    1    4    4    0    0 -0.36373053286E+02 -0.38482125182E+01  0.32443787047E+03  0.34963587865E+03  0.12509000000E+03 0.  0.
<mgrwt>
<rscale>  2 0.46555607E+03</rscale>
<asrwt>0</asrwt>
<pdfrwt beam="1">  1       21 0.20725469E+00 0.46555607E+03</pdfrwt>
<pdfrwt beam="2">  1       21 0.56540781E-02 0.46555607E+03</pdfrwt>
<totfact> 0.23130108E+04</totfact>
</mgrwt>
</event>
<event>
 7    0  0.4770865E-002  0.4565347E+03  0.7546771E-02  0.1025791E+00
         21   -1    0    0  502  501  0.00000000000E+00  0.00000000000E+00  0.16905100430E+03  0.16905100430E+03  0.00000000000E+00 0.  1.
         21   -1    0    0  501  502 -0.00000000000E+00 -0.00000000000E+00 -0.30822644544E+03  0.30822644544E+03  0.00000000000E+00 0.  1.
      99926    2    1    2    0    0  0.00000000000E+00  0.00000000000E+00 -0.13917544113E+03  0.47727744974E+03  0.45653473101E+03 0.  0.
      99925    2    3    3    0    0 -0.34014255833E+02 -0.56888808291E+02 -0.18489044509E+03  0.32851362418E+03  0.26333138530E+03 0.  0.
         25    1    4    4    0    0 -0.42520082636E+02 -0.60487234617E+02 -0.86568469828E+02  0.16913979735E+03  0.12509000000E+03 0.  0.
         25    1    4    4    0    0  0.85058268027E+01  0.35984263264E+01 -0.98321975257E+02  0.15937382684E+03  0.12509000000E+03 0.  0.
         25    1    3    3    0    0  0.34014255833E+02  0.56888808291E+02  0.45715003952E+02  0.14876382556E+03  0.12509000000E+03 0.  0.
<mgrwt>
<rscale>  2 0.45653473E+03</rscale>
<asrwt>0</asrwt>
<pdfrwt beam="1">  1       21 0.24860442E-01 0.45653473E+03</pdfrwt>
<pdfrwt beam="2">  1       21 0.45327418E-01 0.45653473E+03</pdfrwt>
<totfact> 0.66090155E+04</totfact>
</mgrwt>
</event>
<event>
 7    0  0.4770865E-002  0.4552189E+03  0.7546771E-02  0.1026177E+00
         21   -1    0    0  502  501  0.00000000000E+00  0.00000000000E+00  0.15782285504E+03  0.15782285504E+03  0.00000000000E+00 0.  1.
         21   -1    0    0  501  502 -0.00000000000E+00 -0.00000000000E+00 -0.32825446800E+03  0.32825446800E+03  0.00000000000E+00 0.  1.
      99926    2    1    2    0    0  0.00000000000E+00  0.14210854715E-13 -0.17043161296E+03  0.48607732304E+03  0.45521888062E+03 0.  0.
      99925    2    3    3    0    0 -0.33887942895E+02  0.10032442989E+03 -0.15044104593E+03  0.32096973757E+03  0.26301269975E+03 0.  0.
         25    1    4    4    0    0 -0.72840223779E+01  0.47387234668E+02 -0.29518610949E+02  0.13717676000E+03  0.12509000000E+03 0.  0.
         25    1    3    3    0    0  0.33887942895E+02 -0.10032442989E+03 -0.19990567038E+02  0.16510758546E+03  0.12509000000E+03 0.  0.
         25    1    4    4    0    0 -0.26603920517E+02  0.52937195226E+02 -0.12092243498E+03  0.18379297757E+03  0.12509000000E+03 0.  0.
<mgrwt>
<rscale>  2 0.45521888E+03</rscale>
<asrwt>0</asrwt>
<pdfrwt beam="1">  1       21 0.23209244E-01 0.45521888E+03</pdfrwt>
<pdfrwt beam="2">  1       21 0.48272715E-01 0.45521888E+03</pdfrwt>
<totfact> 0.66145303E+04</totfact>
</mgrwt>
</event>
<event>
 7    0  0.4770865E-002  0.4524867E+03  0.7546771E-02  0.1026983E+00
         21   -1    0    0  502  501  0.00000000000E+00  0.00000000000E+00  0.17515739768E+03  0.17515739768E+03  0.00000000000E+00 0. -1.
         21   -1    0    0  501  502 -0.00000000000E+00 -0.00000000000E+00 -0.29222883471E+03  0.29222883471E+03  0.00000000000E+00 0. -1.
      99926    2    1    2    0    0  0.00000000000E+00  0.00000000000E+00 -0.11707143703E+03  0.46738623239E+03  0.45248665048E+03 0.  0.
      99925    2    3    3    0    0  0.10037210442E+03  0.42312711004E+02 -0.53344650488E+02  0.28969679466E+03  0.26308488411E+03 0.  0.
         25    1    3    3    0    0 -0.10037210442E+03 -0.42312711004E+02 -0.63726786541E+02  0.17768943773E+03  0.12509000000E+03 0.  0.
         25    1    4    4    0    0  0.37953855650E+02 -0.15453574700E+02 -0.84057779678E+01  0.13189948193E+03  0.12509000000E+03 0.  0.
         25    1    4    4    0    0  0.62418248767E+02  0.57766285704E+02 -0.44938872520E+02  0.15779731274E+03  0.12509000000E+03 0.  0.
<mgrwt>
<rscale>  2 0.45248665E+03</rscale>
<asrwt>0</asrwt>
<pdfrwt beam="1">  1       21 0.25758441E-01 0.45248665E+03</pdfrwt>
<pdfrwt beam="2">  1       21 0.42974828E-01 0.45248665E+03</pdfrwt>
<totfact> 0.68996033E+04</totfact>
</mgrwt>
</event>
<event>
 7    0  0.4770865E-002  0.4531689E+03  0.7546771E-02  0.1026781E+00
         21   -1    0    0  502  501  0.00000000000E+00  0.00000000000E+00  0.12499781049E+03  0.12499781049E+03  0.00000000000E+00 0. -1.
         21   -1    0    0  501  502 -0.00000000000E+00 -0.00000000000E+00 -0.41073130713E+03  0.41073130713E+03  0.00000000000E+00 0. -1.
      99926    2    1    2    0    0  0.00000000000E+00  0.00000000000E+00 -0.28573349664E+03  0.53572911763E+03  0.45316890491E+03 0.  0.
      99925    2    3    3    0    0  0.67921085795E+02 -0.20628446148E+02 -0.78248999275E+02  0.28326895952E+03  0.26282996567E+03 0.  0.
         25    1    4    4    0    0  0.48494935575E+02 -0.34252601504E+02 -0.71337140019E+02  0.15576101930E+03  0.12509000000E+03 0.  0.
         25    1    4    4    0    0  0.19426150220E+02  0.13624155356E+02 -0.69118592564E+01  0.12750794022E+03  0.12509000000E+03 0.  0.
         25    1    3    3    0    0 -0.67921085795E+02  0.20628446148E+02 -0.20748449736E+03  0.25246015811E+03  0.12509000000E+03 0.  0.
<mgrwt>
<rscale>  2 0.45316890E+03</rscale>
<asrwt>0</asrwt>
<pdfrwt beam="1">  1       21 0.18382031E-01 0.45316890E+03</pdfrwt>
<pdfrwt beam="2">  1       21 0.60401663E-01 0.45316890E+03</pdfrwt>
<totfact> 0.63738235E+04</totfact>
</mgrwt>
</event>
<event>
 7    0  0.4770865E-002  0.4491942E+03  0.7546771E-02  0.1027963E+00
         21   -1    0    0  502  501  0.00000000000E+00  0.00000000000E+00  0.84077516994E+03  0.84077516994E+03  0.00000000000E+00 0.  1.
         21   -1    0    0  501  502 -0.00000000000E+00 -0.00000000000E+00 -0.59996853704E+02  0.59996853704E+02  0.00000000000E+00 0.  1.
      99926    2    1    2    0    0  0.00000000000E+00  0.00000000000E+00  0.78077831623E+03  0.90077202364E+03  0.44919423357E+03 0.  0.
      99925    2    3    3    0    0  0.65099958410E+02  0.85344225567E+02  0.47375998870E+03  0.55230480429E+03  0.26281253494E+03 0.  0.
         25    1    3    3    0    0 -0.65099958410E+02 -0.85344225567E+02  0.30701832753E+03  0.34846721935E+03  0.12509000000E+03 0.  0.
         25    1    4    4    0    0  0.55370393573E+02  0.79310439903E+02  0.27289792530E+03  0.31539944847E+03  0.12509000000E+03 0.  0.
         25    1    4    4    0    0  0.97295648367E+01  0.60337856636E+01  0.20086206340E+03  0.23690535581E+03  0.12509000000E+03 0.  0.
<mgrwt>
<rscale>  2 0.44919423E+03</rscale>
<asrwt>0</asrwt>
<pdfrwt beam="1">  1       21 0.12364340E+00 0.44919423E+03</pdfrwt>
<pdfrwt beam="2">  1       21 0.88230672E-02 0.44919423E+03</pdfrwt>
<totfact> 0.45220665E+04</totfact>
</mgrwt>
</event>
<event>
 7    0  0.4770865E-002  0.4538665E+03  0.7546771E-02  0.1026575E+00
         21   -1    0    0  502  501  0.00000000000E+00  0.00000000000E+00  0.19200271062E+03  0.19200271062E+03  0.00000000000E+00 0. -1.
         21   -1    0    0  501  502 -0.00000000000E+00 -0.00000000000E+00 -0.26821866736E+03  0.26821866736E+03  0.00000000000E+00 0. -1.
      99926    2    1    2    0    0 -0.14210854715E-13  0.00000000000E+00 -0.76215956739E+02  0.46022137799E+03  0.45386654943E+03 0.  0.
      99925    2    3    3    0    0 -0.58476527585E+02  0.75272962735E+02 -0.10794512996E+03  0.29978518590E+03  0.26293246929E+03 0.  0.
         25    1    4    4    0    0 -0.68548278087E+02  0.45832580102E+02 -0.70315771461E+02  0.16550319527E+03  0.12509000000E+03 0.  0.
         25    1    4    4    0    0  0.10071750502E+02  0.29440382634E+02 -0.37629358502E+02  0.13428199064E+03  0.12509000000E+03 0.  0.
         25    1    3    3    0    0  0.58476527585E+02 -0.75272962735E+02  0.31729173224E+02  0.16043619209E+03  0.12509000000E+03 0.  0.
<mgrwt>
<rscale>  2 0.45386655E+03</rscale>
<asrwt>0</asrwt>
<pdfrwt beam="1">  1       21 0.28235693E-01 0.45386655E+03</pdfrwt>
<pdfrwt beam="2">  1       21 0.39443922E-01 0.45386655E+03</pdfrwt>
<totfact> 0.68783952E+04</totfact>
</mgrwt>
</event>
<event>
 6    0  0.4770865E-002  0.4557638E+03  0.7546771E-02  0.1026017E+00
         21   -1    0    0  502  501  0.00000000000E+00  0.00000000000E+00  0.17485972976E+03  0.17485972976E+03  0.00000000000E+00 0. -1.
         21   -1    0    0  501  502 -0.00000000000E+00 -0.00000000000E+00 -0.29698184293E+03  0.29698184293E+03  0.00000000000E+00 0. -1.
      99926    2    1    2    0    0  0.00000000000E+00 -0.71054273576E-14 -0.12212211317E+03  0.47184157269E+03  0.45576381954E+03 0.  0.
         25    1    3    3    0    0  0.36844160030E+01 -0.41491578721E+02 -0.15304361411E+03  0.20200243055E+03  0.12509000000E+03 0.  0.
         25    1    3    3    0    0  0.24874437379E+02  0.45194408245E+02 -0.84532636933E+01  0.13557373617E+03  0.12509000000E+03 0.  0.
         25    1    3    3    0    0 -0.28558853382E+02 -0.37028295239E+01  0.39374764637E+02  0.13426540598E+03  0.12509000000E+03 0.  0.
<mgrwt>
<rscale>  2 0.45576382E+03</rscale>
<asrwt>0</asrwt>
<pdfrwt beam="1">  1       21 0.25714667E-01 0.45576382E+03</pdfrwt>
<pdfrwt beam="2">  1       21 0.43673799E-01 0.45576382E+03</pdfrwt>
<totfact> 0.66892727E+04</totfact>
</mgrwt>
</event>
<event>
 7    0  0.4770865E-002  0.4584718E+03  0.7546771E-02  0.1025225E+00
         21   -1    0    0  502  501  0.00000000000E+00  0.00000000000E+00  0.36130945027E+02  0.36130945027E+02  0.00000000000E+00 0.  1.
         21   -1    0    0  501  502 -0.00000000000E+00 -0.00000000000E+00 -0.14544071270E+04  0.14544071270E+04  0.00000000000E+00 0.  1.
      99926    2    1    2    0    0  0.14210854715E-13  0.35527136788E-14 -0.14182761819E+04  0.14905380720E+04  0.45847182662E+03 0.  0.
      99925    2    3    3    0    0  0.11240390545E+03  0.29429551693E+02 -0.90994415508E+03  0.95430146927E+03  0.26304408833E+03 0.  0.
         25    1    4    4    0    0  0.12563194162E+02  0.98885140225E+01 -0.41789959021E+03  0.43651253378E+03  0.12509000000E+03 0.  0.
         25    1    3    3    0    0 -0.11240390545E+03 -0.29429551693E+02 -0.50833202686E+03  0.53623660273E+03  0.12509000000E+03 0.  0.
         25    1    4    4    0    0  0.99840711289E+02  0.19541037671E+02 -0.49204456488E+03  0.51778893548E+03  0.12509000000E+03 0.  0.
<mgrwt>
<rscale>  2 0.45847183E+03</rscale>
<asrwt>0</asrwt>
<pdfrwt beam="1">  1       21 0.53133760E-02 0.45847183E+03</pdfrwt>
<pdfrwt beam="2">  1       21 0.21388333E+00 0.45847183E+03</pdfrwt>
<totfact> 0.23375235E+04</totfact>
</mgrwt>
</event>
<event>
 7    0  0.4770865E-002  0.4553876E+03  0.7546771E-02  0.1026127E+00
         21   -1    0    0  502  501  0.00000000000E+00  0.00000000000E+00  0.12303258274E+04  0.12303258274E+04  0.00000000000E+00 0. -1.
         21   -1    0    0  501  502 -0.00000000000E+00 -0.00000000000E+00 -0.42138809975E+02  0.42138809975E+02  0.00000000000E+00 0. -1.
      99926    2    1    2    0    0  0.00000000000E+00  0.00000000000E+00  0.11881870175E+04  0.12724646374E+04  0.45538759864E+03 0.  0.
      99925    2    3    3    0    0 -0.32435184135E+02  0.10854212178E+03  0.72770683293E+03  0.78203325402E+03  0.26303106723E+03 0.  0.
         25    1    3    3    0    0  0.32435184135E+02 -0.10854212178E+03  0.46048018453E+03  0.49043138339E+03  0.12509000000E+03 0.  0.
         25    1    4    4    0    0 -0.56932361203E+02  0.53269440509E+02  0.38234745821E+03  0.40977556533E+03  0.12509000000E+03 0.  0.
         25    1    4    4    0    0  0.24497177069E+02  0.55272681270E+02  0.34535937472E+03  0.37225768869E+03  0.12509000000E+03 0.  0.
<mgrwt>
<rscale>  2 0.45538760E+03</rscale>
<asrwt>0</asrwt>
<pdfrwt beam="1">  1       21 0.18093024E+00 0.45538760E+03</pdfrwt>
<pdfrwt beam="2">  1       21 0.61968846E-02 0.45538760E+03</pdfrwt>
<totfact> 0.29834917E+04</totfact>
</mgrwt>
</event>
<event>
 7    0  0.4770865E-002  0.4258826E+03  0.7546771E-02  0.1035169E+00
         21   -1    0    0  502  501  0.00000000000E+00  0.00000000000E+00  0.89736750546E+02  0.89736750546E+02  0.00000000000E+00 0.  1.
         21   -1    0    0  501  502 -0.00000000000E+00 -0.00000000000E+00 -0.50530030855E+03  0.50530030855E+03  0.00000000000E+00 0.  1.
      99926    2    1    2    0    0  0.00000000000E+00  0.00000000000E+00 -0.41556355801E+03  0.59503705910E+03  0.42588264928E+03 0.  0.
      99925    2    3    3    0    0 -0.20873092197E+02 -0.78877757886E+02 -0.29067289030E+03  0.40035122590E+03  0.26293152770E+03 0.  0.
         25    1    4    4    0    0 -0.31439212998E+02 -0.39810917039E+01 -0.14106200261E+03  0.19118124878E+03  0.12509000000E+03 0.  0.
         25    1    3    3    0    0  0.20873092197E+02  0.78877757886E+02 -0.12489066771E+03  0.19468583320E+03  0.12509000000E+03 0.  0.
         25    1    4    4    0    0  0.10566120801E+02 -0.74896666182E+02 -0.14961088769E+03  0.20916997712E+03  0.12509000000E+03 0.  0.
<mgrwt>
<rscale>  2 0.42588265E+03</rscale>
<asrwt>0</asrwt>
<pdfrwt beam="1">  1       21 0.13196581E-01 0.42588265E+03</pdfrwt>
<pdfrwt beam="2">  1       21 0.74308867E-01 0.42588265E+03</pdfrwt>
<totfact> 0.74755366E+04</totfact>
</mgrwt>
</event>
<event>
 7    0  0.4770865E-002  0.4616535E+03  0.7546771E-02  0.1024303E+00
         21   -1    0    0  502  501  0.00000000000E+00  0.00000000000E+00  0.23759547779E+04  0.23759547779E+04  0.00000000000E+00 0.  1.
         21   -1    0    0  501  502 -0.00000000000E+00 -0.00000000000E+00 -0.22425083277E+02  0.22425083277E+02  0.00000000000E+00 0.  1.
      99926    2    1    2    0    0  0.00000000000E+00  0.14210854715E-13  0.23535296947E+04  0.23983798612E+04  0.46165347938E+03 0.  0.
      99925    2    3    3    0    0  0.75112546278E+02  0.92254782852E+02  0.15179346266E+04  0.15451392941E+04  0.26301533768E+03 0.  0.
         25    1    3    3    0    0 -0.75112546278E+02 -0.92254782852E+02  0.83559506802E+03  0.85324056711E+03  0.12509000000E+03 0.  0.
         25    1    4    4    0    0  0.33564732932E+02  0.72434706195E+02  0.96639152723E+03  0.97771850242E+03  0.12509000000E+03 0.  0.
         25    1    4    4    0    0  0.41547813347E+02  0.19820076657E+02  0.55154309940E+03  0.56742079168E+03  0.12509000000E+03 0.  0.
<mgrwt>
<rscale>  2 0.46165348E+03</rscale>
<asrwt>0</asrwt>
<pdfrwt beam="1">  1       21 0.34940494E+00 0.46165348E+03</pdfrwt>
<pdfrwt beam="2">  1       21 0.32978080E-02 0.46165348E+03</pdfrwt>
<totfact> 0.78160828E+03</totfact>
</mgrwt>
</event>
<event>
 7    0  0.4770865E-002  0.4502199E+03  0.7546771E-02  0.1027656E+00
         21   -1    0    0  502  501  0.00000000000E+00  0.00000000000E+00  0.90551975988E+02  0.90551975988E+02  0.00000000000E+00 0.  1.
         21   -1    0    0  501  502 -0.00000000000E+00 -0.00000000000E+00 -0.55961764557E+03  0.55961764557E+03  0.00000000000E+00 0.  1.
      99926    2    1    2    0    0  0.00000000000E+00  0.00000000000E+00 -0.46906566958E+03  0.65016962155E+03  0.45021987341E+03 0.  0.
      99925    2    3    3    0    0  0.48680709548E+02 -0.54264472510E+02 -0.41274382760E+03  0.49481807685E+03  0.26300763771E+03 0.  0.
         25    1    4    4    0    0  0.62957502973E+02 -0.27324176008E+02 -0.19105315062E+03  0.23845140435E+03  0.12509000000E+03 0.  0.
         25    1    3    3    0    0 -0.48680709548E+02  0.54264472510E+02 -0.56321841975E+02  0.15535154471E+03  0.12509000000E+03 0.  0.
         25    1    4    4    0    0 -0.14276793426E+02 -0.26940296503E+02 -0.22169067698E+03  0.25636667250E+03  0.12509000000E+03 0.  0.
<mgrwt>
<rscale>  2 0.45021987E+03</rscale>
<asrwt>0</asrwt>
<pdfrwt beam="1">  1       21 0.13316467E-01 0.45021987E+03</pdfrwt>
<pdfrwt beam="2">  1       21 0.82296715E-01 0.45021987E+03</pdfrwt>
<totfact> 0.57842194E+04</totfact>
</mgrwt>
</event>
<event>
 7    0  0.4770865E-002  0.4534401E+03  0.7546771E-02  0.1026701E+00
         21   -1    0    0  502  501  0.00000000000E+00  0.00000000000E+00  0.48008822725E+03  0.48008822725E+03  0.00000000000E+00 0. -1.
         21   -1    0    0  501  502 -0.00000000000E+00 -0.00000000000E+00 -0.10706776782E+03  0.10706776782E+03  0.00000000000E+00 0. -1.
      99926    2    1    2    0    0 -0.35527136788E-14  0.00000000000E+00  0.37302045942E+03  0.58715599507E+03  0.45344007255E+03 0.  0.
      99925    2    3    3    0    0  0.23683195417E+02  0.53777413768E+02  0.11234955194E+03  0.29211407587E+03  0.26316403159E+03 0.  0.
         25    1    4    4    0    0 -0.38102632386E+01  0.61547659454E+02  0.41327091955E+02  0.14545813528E+03  0.12509000000E+03 0.  0.
         25    1    4    4    0    0  0.27493458655E+02 -0.77702456862E+01  0.71022459986E+02  0.14665594059E+03  0.12509000000E+03 0.  0.
         25    1    3    3    0    0 -0.23683195417E+02 -0.53777413768E+02  0.26067090748E+03  0.29504191920E+03  0.12509000000E+03 0.  0.
<mgrwt>
<rscale>  2 0.45344007E+03</rscale>
<asrwt>0</asrwt>
<pdfrwt beam="1">  1       21 0.70601209E-01 0.45344007E+03</pdfrwt>
<pdfrwt beam="2">  1       21 0.15745260E-01 0.45344007E+03</pdfrwt>
<totfact> 0.60214907E+04</totfact>
</mgrwt>
</event>
<event>
 7    0  0.4770865E-002  0.4466508E+03  0.7546771E-02  0.1028726E+00
         21   -1    0    0  502  501  0.00000000000E+00  0.00000000000E+00  0.10025414760E+04  0.10025414760E+04  0.00000000000E+00 0. -1.
         21   -1    0    0  501  502 -0.00000000000E+00 -0.00000000000E+00 -0.49747799896E+02  0.49747799896E+02  0.00000000000E+00 0. -1.
      99926    2    1    2    0    0  0.00000000000E+00 -0.14210854715E-13  0.95279367612E+03  0.10522892759E+04  0.44665079306E+03 0.  0.
      99925    2    3    3    0    0  0.21833523092E+02  0.96338020472E+02  0.68841607263E+03  0.74358109292E+03  0.26313197406E+03 0.  0.
         25    1    3    3    0    0 -0.21833523092E+02 -0.96338020472E+02  0.26437760349E+03  0.30870818299E+03  0.12509000000E+03 0.  0.
         25    1    4    4    0    0  0.90511468350E+01  0.18232108110E+02  0.24065455889E+03  0.27198613538E+03  0.12509000000E+03 0.  0.
         25    1    4    4    0    0  0.12782376257E+02  0.78105912363E+02  0.44776151374E+03  0.47159495754E+03  0.12509000000E+03 0.  0.
<mgrwt>
<rscale>  2 0.44665079E+03</rscale>
<asrwt>0</asrwt>
<pdfrwt beam="1">  1       21 0.14743256E+00 0.44665079E+03</pdfrwt>
<pdfrwt beam="2">  1       21 0.73158536E-02 0.44665079E+03</pdfrwt>
<totfact> 0.39719392E+04</totfact>
</mgrwt>
</event>
<event>
 7    0  0.4770865E-002  0.4774562E+03  0.7546771E-02  0.1019837E+00
         21   -1    0    0  502  501  0.00000000000E+00  0.00000000000E+00  0.70817069186E+03  0.70817069186E+03  0.00000000000E+00 0. -1.
         21   -1    0    0  501  502 -0.00000000000E+00 -0.00000000000E+00 -0.80476517847E+02  0.80476517847E+02  0.00000000000E+00 0. -1.
      99926    2    1    2    0    0  0.71054273576E-14  0.00000000000E+00  0.62769417401E+03  0.78864720971E+03  0.47745622343E+03 0.  0.
      99925    2    3    3    0    0 -0.59852382058E+02  0.49675583913E+02  0.20884719391E+03  0.34465366007E+03  0.26290497090E+03 0.  0.
         25    1    4    4    0    0 -0.27675300154E+02  0.57343900089E+02  0.77751930809E+02  0.16045907877E+03  0.12509000000E+03 0.  0.
         25    1    3    3    0    0  0.59852382058E+02 -0.49675583913E+02  0.41884698010E+03  0.44399354963E+03  0.12509000000E+03 0.  0.
         25    1    4    4    0    0 -0.32177081904E+02 -0.76683161758E+01  0.13109526310E+03  0.18419458130E+03  0.12509000000E+03 0.  0.
<mgrwt>
<rscale>  2 0.47745622E+03</rscale>
<asrwt>0</asrwt>
<pdfrwt beam="1">  1       21 0.10414275E+00 0.47745622E+03</pdfrwt>
<pdfrwt beam="2">  1       21 0.11834782E-01 0.47745622E+03</pdfrwt>
<totfact> 0.40664136E+04</totfact>
</mgrwt>
</event>
<event>
 7    0  0.4770865E-002  0.4561970E+03  0.7546771E-02  0.1025890E+00
         21   -1    0    0  502  501  0.00000000000E+00  0.00000000000E+00  0.14090431371E+03  0.14090431371E+03  0.00000000000E+00 0.  1.
         21   -1    0    0  501  502 -0.00000000000E+00 -0.00000000000E+00 -0.36925003005E+03  0.36925003005E+03  0.00000000000E+00 0.  1.
      99926    2    1    2    0    0 -0.88817841970E-15  0.00000000000E+00 -0.22834571635E+03  0.51015434376E+03  0.45619698408E+03 0.  0.
      99925    2    3    3    0    0  0.23207915313E+01  0.97587734141E+02 -0.76872853086E+02  0.29079097323E+03  0.26290911479E+03 0.  0.
         25    1    3    3    0    0 -0.23207915313E+01 -0.97587734141E+02 -0.15147286326E+03  0.21936337053E+03  0.12509000000E+03 0.  0.
         25    1    4    4    0    0 -0.44735569582E+01  0.83786038289E+02 -0.65490604002E+02  0.16424567037E+03  0.12509000000E+03 0.  0.
         25    1    4    4    0    0  0.67943484895E+01  0.13801695851E+02 -0.11382249084E+02  0.12654530285E+03  0.12509000000E+03 0.  0.
<mgrwt>
<rscale>  2 0.45619698E+03</rscale>
<asrwt>0</asrwt>
<pdfrwt beam="1">  1       21 0.20721223E-01 0.45619698E+03</pdfrwt>
<pdfrwt beam="2">  1       21 0.54301475E-01 0.45619698E+03</pdfrwt>
<totfact> 0.63953310E+04</totfact>
</mgrwt>
</event>
<event>
 7    0  0.4770865E-002  0.4566904E+03  0.7546771E-02  0.1025745E+00
         21   -1    0    0  502  501  0.00000000000E+00  0.00000000000E+00  0.28398135318E+03  0.28398135318E+03  0.00000000000E+00 0.  1.
         21   -1    0    0  501  502 -0.00000000000E+00 -0.00000000000E+00 -0.18360900836E+03  0.18360900836E+03  0.00000000000E+00 0.  1.
      99926    2    1    2    0    0  0.71054273576E-14  0.00000000000E+00  0.10037234481E+03  0.46759036154E+03  0.45669041878E+03 0.  0.
      99925    2    3    3    0    0  0.46657806752E+02  0.37431495342E+02 -0.37325204250E+02  0.27217748865E+03  0.26288656619E+03 0.  0.
         25    1    3    3    0    0 -0.46657806752E+02 -0.37431495342E+02  0.13769754906E+03  0.19541287289E+03  0.12509000000E+03 0.  0.
         25    1    4    4    0    0 -0.16282953570E+01 -0.32499632332E+01 -0.41929601043E+02  0.13198035138E+03  0.12509000000E+03 0.  0.
         25    1    4    4    0    0  0.48286102109E+02  0.40681458575E+02  0.46043967933E+01  0.14019713727E+03  0.12509000000E+03 0.  0.
<mgrwt>
<rscale>  2 0.45669042E+03</rscale>
<asrwt>0</asrwt>
<pdfrwt beam="1">  1       21 0.41761964E-01 0.45669042E+03</pdfrwt>
<pdfrwt beam="2">  1       21 0.27001325E-01 0.45669042E+03</pdfrwt>
<totfact> 0.66716719E+04</totfact>
</mgrwt>
</event>
<event>
 7    0  0.4770865E-002  0.4551707E+03  0.7546771E-02  0.1026191E+00
         21   -1    0    0  502  501  0.00000000000E+00  0.00000000000E+00  0.66212920076E+03  0.66212920076E+03  0.00000000000E+00 0.  1.
         21   -1    0    0  501  502 -0.00000000000E+00 -0.00000000000E+00 -0.78225064285E+02  0.78225064285E+02  0.00000000000E+00 0.  1.
      99926    2    1    2    0    0  0.00000000000E+00  0.00000000000E+00  0.58390413647E+03  0.74035426504E+03  0.45517073410E+03 0.  0.
      99925    2    3    3    0    0 -0.86042647177E+02  0.36583960667E+02  0.47158176868E+03  0.54798600956E+03  0.26297828582E+03 0.  0.
         25    1    4    4    0    0 -0.18379632383E+02  0.45758174063E+02  0.26283203719E+03  0.29522840184E+03  0.12509000000E+03 0.  0.
         25    1    4    4    0    0 -0.67663014794E+02 -0.91742133964E+01  0.20874973149E+03  0.25275760772E+03  0.12509000000E+03 0.  0.
         25    1    3    3    0    0  0.86042647177E+02 -0.36583960667E+02  0.11232236779E+03  0.19236825548E+03  0.12509000000E+03 0.  0.
<mgrwt>
<rscale>  2 0.45517073E+03</rscale>
<asrwt>0</asrwt>
<pdfrwt beam="1">  1       21 0.97371938E-01 0.45517073E+03</pdfrwt>
<pdfrwt beam="2">  1       21 0.11503686E-01 0.45517073E+03</pdfrwt>
<totfact> 0.50698062E+04</totfact>
</mgrwt>
</event>
<event>
 7    0  0.4770865E-002  0.4483651E+03  0.7546771E-02  0.1028211E+00
         21   -1    0    0  502  501  0.00000000000E+00  0.00000000000E+00  0.36914282840E+02  0.36914282840E+02  0.00000000000E+00 0. -1.
         21   -1    0    0  501  502 -0.00000000000E+00 -0.00000000000E+00 -0.13614736712E+04  0.13614736712E+04  0.00000000000E+00 0. -1.
      99926    2    1    2    0    0  0.00000000000E+00 -0.35527136788E-14 -0.13245593883E+04  0.13983879540E+04  0.44836513770E+03 0.  0.
      99925    2    3    3    0    0 -0.10397216747E+03  0.22035809613E+02 -0.84225784507E+03  0.88891952982E+03  0.26359792185E+03 0.  0.
         25    1    3    3    0    0  0.10397216747E+03 -0.22035809613E+02 -0.48230154326E+03  0.50946842419E+03  0.12509000000E+03 0.  0.
         25    1    4    4    0    0 -0.44743134270E+02  0.35629868200E+02 -0.52103729708E+03  0.53888663801E+03  0.12509000000E+03 0.  0.
         25    1    4    4    0    0 -0.59229033199E+02 -0.13594058587E+02 -0.32122054799E+03  0.35003289182E+03  0.12509000000E+03 0.  0.
<mgrwt>
<rscale>  2 0.44836514E+03</rscale>
<asrwt>0</asrwt>
<pdfrwt beam="1">  1       21 0.54285715E-02 0.44836514E+03</pdfrwt>
<pdfrwt beam="2">  1       21 0.20021670E+00 0.44836514E+03</pdfrwt>
<totfact> 0.27780001E+04</totfact>
</mgrwt>
</event>
<event>
 7    0  0.4770865E-002  0.4573026E+03  0.7546771E-02  0.1025566E+00
         21   -1    0    0  502  501  0.00000000000E+00  0.00000000000E+00  0.61388159007E+03  0.61388159007E+03  0.00000000000E+00 0. -1.
         21   -1    0    0  501  502 -0.00000000000E+00 -0.00000000000E+00 -0.85165297895E+02  0.85165297895E+02  0.00000000000E+00 0. -1.
      99926    2    1    2    0    0  0.00000000000E+00 -0.13322676296E-14  0.52871629217E+03  0.69904688796E+03  0.45730256282E+03 0.  0.
      99925    2    3    3    0    0  0.23155604889E+02  0.36393808230E+01  0.50461161394E+03  0.56951708157E+03  0.26299695463E+03 0.  0.
         25    1    3    3    0    0 -0.23155604889E+02 -0.36393808230E+01  0.24104678227E+02  0.12952980639E+03  0.12509000000E+03 0.  0.
         25    1    4    4    0    0  0.28589658983E+02  0.33379923598E+02  0.29706108996E+03  0.32530660486E+03  0.12509000000E+03 0.  0.
         25    1    4    4    0    0 -0.54340540936E+01 -0.29740542775E+02  0.20755052399E+03  0.24421047671E+03  0.12509000000E+03 0.  0.
<mgrwt>
<rscale>  2 0.45730256E+03</rscale>
<asrwt>0</asrwt>
<pdfrwt beam="1">  1       21 0.90276702E-01 0.45730256E+03</pdfrwt>
<pdfrwt beam="2">  1       21 0.12524309E-01 0.45730256E+03</pdfrwt>
<totfact> 0.52005897E+04</totfact>
</mgrwt>
</event>
<event>
 7    0  0.4770865E-002  0.4763557E+03  0.7546771E-02  0.1020142E+00
         21   -1    0    0  502  501  0.00000000000E+00  0.00000000000E+00  0.50276985790E+02  0.50276985790E+02  0.00000000000E+00 0.  1.
         21   -1    0    0  501  502 -0.00000000000E+00 -0.00000000000E+00 -0.11283232762E+04  0.11283232762E+04  0.00000000000E+00 0.  1.
      99926    2    1    2    0    0  0.14210854715E-13 -0.71054273576E-14 -0.10780462904E+04  0.11786002620E+04  0.47635572139E+03 0.  0.
      99925    2    3    3    0    0  0.12542062536E+03 -0.41627085761E+02 -0.65376437961E+03  0.71694476764E+03  0.26294255696E+03 0.  0.
         25    1    4    4    0    0  0.49598635913E+02 -0.78514246806E+01 -0.22080364564E+03  0.25869562730E+03  0.12509000000E+03 0.  0.
         25    1    4    4    0    0  0.75821989448E+02 -0.33775661080E+02 -0.43296073397E+03  0.45824914034E+03  0.12509000000E+03 0.  0.
         25    1    3    3    0    0 -0.12542062536E+03  0.41627085761E+02 -0.42428191082E+03  0.46165549437E+03  0.12509000000E+03 0.  0.
<mgrwt>
<rscale>  2 0.47635572E+03</rscale>
<asrwt>0</asrwt>
<pdfrwt beam="1">  1       21 0.73936746E-02 0.47635572E+03</pdfrwt>
<pdfrwt beam="2">  1       21 0.16592989E+00 0.47635572E+03</pdfrwt>
<totfact> 0.27901660E+04</totfact>
</mgrwt>
</event>
<event>
 7    0  0.4770865E-002  0.4690606E+03  0.7546771E-02  0.1022186E+00
         21   -1    0    0  502  501  0.00000000000E+00  0.00000000000E+00  0.34679101970E+02  0.34679101970E+02  0.00000000000E+00 0. -1.
         21   -1    0    0  501  502 -0.00000000000E+00 -0.00000000000E+00 -0.15860983001E+04  0.15860983001E+04  0.00000000000E+00 0. -1.
      99926    2    1    2    0    0  0.71054273576E-14  0.00000000000E+00 -0.15514191981E+04  0.16207774021E+04  0.46906061307E+03 0.  0.
      99925    2    3    3    0    0 -0.63951364770E+02 -0.96741823275E+02 -0.11336948953E+04  0.11695680730E+04  0.26301445619E+03 0.  0.
         25    1    4    4    0    0 -0.19500275886E+02 -0.80092393037E+01 -0.45600909394E+03  0.47332463545E+03  0.12509000000E+03 0.  0.
         25    1    3    3    0    0  0.63951364770E+02  0.96741823275E+02 -0.41772430281E+03  0.45120932912E+03  0.12509000000E+03 0.  0.
         25    1    4    4    0    0 -0.44451088884E+02 -0.88732583971E+02 -0.67768580139E+03  0.69624343750E+03  0.12509000000E+03 0.  0.
<mgrwt>
<rscale>  2 0.46906061E+03</rscale>
<asrwt>0</asrwt>
<pdfrwt beam="1">  1       21 0.50998680E-02 0.46906061E+03</pdfrwt>
<pdfrwt beam="2">  1       21 0.23324975E+00 0.46906061E+03</pdfrwt>
<totfact> 0.18823854E+04</totfact>
</mgrwt>
</event>
<event>
 7    0  0.4770865E-002  0.4571386E+03  0.7546771E-02  0.1025614E+00
         21   -1    0    0  502  501  0.00000000000E+00  0.00000000000E+00  0.17308270397E+03  0.17308270397E+03  0.00000000000E+00 0. -1.
         21   -1    0    0  501  502 -0.00000000000E+00 -0.00000000000E+00 -0.30184372599E+03  0.30184372599E+03  0.00000000000E+00 0. -1.
      99926    2    1    2    0    0  0.00000000000E+00 -0.22204460493E-15 -0.12876102202E+03  0.47492642996E+03  0.45713861474E+03 0.  0.
      99925    2    3    3    0    0  0.77967941176E+02 -0.87382917631E+00 -0.16856095006E+03  0.32224602585E+03  0.26334377505E+03 0.  0.
         25    1    4    4    0    0  0.48729059495E+02  0.25190640515E+01 -0.39129752414E+02  0.13985532720E+03  0.12509000000E+03 0.  0.
         25    1    3    3    0    0 -0.77967941176E+02  0.87382917631E+00  0.39799928049E+02  0.15268040412E+03  0.12509000000E+03 0.  0.
         25    1    4    4    0    0  0.29238881681E+02 -0.33928932278E+01 -0.12943119765E+03  0.18239069864E+03  0.12509000000E+03 0.  0.
<mgrwt>
<rscale>  2 0.45713861E+03</rscale>
<asrwt>0</asrwt>
<pdfrwt beam="1">  1       21 0.25453339E-01 0.45713861E+03</pdfrwt>
<pdfrwt beam="2">  1       21 0.44388783E-01 0.45713861E+03</pdfrwt>
<totfact> 0.65945096E+04</totfact>
</mgrwt>
</event>
<event>
 7    0  0.4770865E-002  0.4299099E+03  0.7546771E-02  0.1033888E+00
         21   -1    0    0  502  501  0.00000000000E+00  0.00000000000E+00  0.19678111835E+03  0.19678111835E+03  0.00000000000E+00 0.  1.
         21   -1    0    0  501  502 -0.00000000000E+00 -0.00000000000E+00 -0.23480725793E+03  0.23480725793E+03  0.00000000000E+00 0.  1.
      99926    2    1    2    0    0 -0.71054273576E-14  0.00000000000E+00 -0.38026139585E+02  0.43158837628E+03  0.42990991993E+03 0.  0.
      99925    2    3    3    0    0 -0.44395335660E+02 -0.64963927313E+02 -0.63716391018E+02  0.28159252701E+03  0.26276094669E+03 0.  0.
         25    1    4    4    0    0  0.11074407428E+01 -0.48768915023E+01 -0.50363344257E+02  0.13494067230E+03  0.12509000000E+03 0.  0.
         25    1    3    3    0    0  0.44395335660E+02  0.64963927313E+02  0.25690251433E+02  0.14999584927E+03  0.12509000000E+03 0.  0.
         25    1    4    4    0    0 -0.45502776403E+02 -0.60087035810E+02 -0.13353046761E+02  0.14665185471E+03  0.12509000000E+03 0.  0.
<mgrwt>
<rscale>  2 0.42990992E+03</rscale>
<asrwt>0</asrwt>
<pdfrwt beam="1">  1       21 0.28938400E-01 0.42990992E+03</pdfrwt>
<pdfrwt beam="2">  1       21 0.34530479E-01 0.42990992E+03</pdfrwt>
<totfact> 0.86325534E+04</totfact>
</mgrwt>
</event>
<event>
 7    0  0.4770865E-002  0.4648513E+03  0.7546771E-02  0.1023384E+00
         21   -1    0    0  502  501  0.00000000000E+00  0.00000000000E+00  0.21348570517E+03  0.21348570517E+03  0.00000000000E+00 0. -1.
         21   -1    0    0  501  502 -0.00000000000E+00 -0.00000000000E+00 -0.25304589465E+03  0.25304589465E+03  0.00000000000E+00 0. -1.
      99926    2    1    2    0    0 -0.35527136788E-14  0.00000000000E+00 -0.39560189478E+02  0.46653159982E+03  0.46485129347E+03 0.  0.
      99925    2    3    3    0    0  0.31709218835E+02  0.10887823418E+03 -0.70336159671E+02  0.29490813732E+03  0.26298990411E+03 0.  0.
         25    1    3    3    0    0 -0.31709218835E+02 -0.10887823418E+03  0.30775970193E+02  0.17162346249E+03  0.12509000000E+03 0.  0.
         25    1    4    4    0    0  0.53484537087E+02  0.48268255279E+02 -0.49906942468E+02  0.15273713099E+03  0.12509000000E+03 0.  0.
         25    1    4    4    0    0 -0.21775318252E+02  0.60609978901E+02 -0.20429217204E+02  0.14217100634E+03  0.12509000000E+03 0.  0.
<mgrwt>
<rscale>  2 0.46485129E+03</rscale>
<asrwt>0</asrwt>
<pdfrwt beam="1">  1       21 0.31394957E-01 0.46485129E+03</pdfrwt>
<pdfrwt beam="2">  1       21 0.37212631E-01 0.46485129E+03</pdfrwt>
<totfact> 0.62639009E+04</totfact>
</mgrwt>
</event>
<event>
 7    0  0.4770865E-002  0.4522754E+03  0.7546771E-02  0.1027046E+00
         21   -1    0    0  502  501  0.00000000000E+00  0.00000000000E+00  0.24317538058E+03  0.24317538058E+03  0.00000000000E+00 0.  1.
         21   -1    0    0  501  502 -0.00000000000E+00 -0.00000000000E+00 -0.21029376990E+03  0.21029376990E+03  0.00000000000E+00 0.  1.
      99926    2    1    2    0    0  0.00000000000E+00  0.00000000000E+00  0.32881610681E+02  0.45346915048E+03  0.45227543611E+03 0.  0.
      99925    2    3    3    0    0  0.12586698384E+02  0.57993029785E+02  0.11429635360E+03  0.29285319565E+03  0.26301657985E+03 0.  0.
         25    1    4    4    0    0 -0.88279166058E+00  0.38308481466E+02  0.15628410808E+02  0.13175763506E+03  0.12509000000E+03 0.  0.
         25    1    4    4    0    0  0.13469490045E+02  0.19684548319E+02  0.98667942796E+02  0.16109556058E+03  0.12509000000E+03 0.  0.
         25    1    3    3    0    0 -0.12586698384E+02 -0.57993029785E+02 -0.81414742922E+02  0.16061595483E+03  0.12509000000E+03 0.  0.
<mgrwt>
<rscale>  2 0.45227544E+03</rscale>
<asrwt>0</asrwt>
<pdfrwt beam="1">  1       21 0.35761086E-01 0.45227544E+03</pdfrwt>
<pdfrwt beam="2">  1       21 0.30925554E-01 0.45227544E+03</pdfrwt>
<totfact> 0.70171185E+04</totfact>
</mgrwt>
</event>
<event>
 7    0  0.4770865E-002  0.4561841E+03  0.7546771E-02  0.1025894E+00
         21   -1    0    0  502  501  0.00000000000E+00  0.00000000000E+00  0.16427858205E+04  0.16427858205E+04  0.00000000000E+00 0.  1.
         21   -1    0    0  501  502 -0.00000000000E+00 -0.00000000000E+00 -0.31669358334E+02  0.31669358334E+02  0.00000000000E+00 0.  1.
      99926    2    1    2    0    0  0.00000000000E+00  0.00000000000E+00  0.16111164622E+04  0.16744551788E+04  0.45618405415E+03 0.  0.
      99925    2    3    3    0    0  0.59237724160E+02 -0.47229132402E+02  0.13272766104E+04  0.13551555258E+04  0.26276148790E+03 0.  0.
         25    1    3    3    0    0 -0.59237724160E+02  0.47229132402E+02  0.28383985172E+03  0.31929965305E+03  0.12509000000E+03 0.  0.
         25    1    4    4    0    0  0.11561832016E+02 -0.59398912440E+02  0.65750966587E+03  0.67203301672E+03  0.12509000000E+03 0.  0.
         25    1    4    4    0    0  0.47675892144E+02  0.12169780038E+02  0.66976694458E+03  0.68312250906E+03  0.12509000000E+03 0.  0.
<mgrwt>
<rscale>  2 0.45618405E+03</rscale>
<asrwt>0</asrwt>
<pdfrwt beam="1">  1       21 0.24158609E+00 0.45618405E+03</pdfrwt>
<pdfrwt beam="2">  1       21 0.46572597E-02 0.45618405E+03</pdfrwt>
<totfact> 0.19617482E+04</totfact>
</mgrwt>
</event>
<event>
 7    0  0.4770865E-002  0.4523813E+03  0.7546771E-02  0.1027014E+00
         21   -1    0    0  502  501  0.00000000000E+00  0.00000000000E+00  0.38476819861E+03  0.38476819861E+03  0.00000000000E+00 0.  1.
         21   -1    0    0  501  502 -0.00000000000E+00 -0.00000000000E+00 -0.13296891445E+03  0.13296891445E+03  0.00000000000E+00 0.  1.
      99926    2    1    2    0    0  0.00000000000E+00  0.00000000000E+00  0.25179928417E+03  0.51773711306E+03  0.45238129795E+03 0.  0.
      99925    2    3    3    0    0 -0.78958626501E+02 -0.62830769397E+02  0.10724070491E+03  0.30157314470E+03  0.26317982926E+03 0.  0.
         25    1    4    4    0    0 -0.15631029107E+02 -0.55765323236E+02  0.77266093647E+02  0.15802423129E+03  0.12509000000E+03 0.  0.
         25    1    4    4    0    0 -0.63327597394E+02 -0.70654461614E+01  0.29974611264E+02  0.14354891341E+03  0.12509000000E+03 0.  0.
         25    1    3    3    0    0  0.78958626501E+02  0.62830769397E+02  0.14455857926E+03  0.21616396836E+03  0.12509000000E+03 0.  0.
<mgrwt>
<rscale>  2 0.45238130E+03</rscale>
<asrwt>0</asrwt>
<pdfrwt beam="1">  1       21 0.56583558E-01 0.45238130E+03</pdfrwt>
<pdfrwt beam="2">  1       21 0.19554252E-01 0.45238130E+03</pdfrwt>
<totfact> 0.65389762E+04</totfact>
</mgrwt>
</event>
<event>
 6    0  0.4770865E-002  0.4513457E+03  0.7546771E-02  0.1027322E+00
         21   -1    0    0  502  501  0.00000000000E+00  0.00000000000E+00  0.10053136712E+03  0.10053136712E+03  0.00000000000E+00 0. -1.
         21   -1    0    0  501  502 -0.00000000000E+00 -0.00000000000E+00 -0.50659040413E+03  0.50659040413E+03  0.00000000000E+00 0. -1.
      99926    2    1    2    0    0 -0.35527136788E-14  0.00000000000E+00 -0.40605903701E+03  0.60712177125E+03  0.45134565866E+03 0.  0.
         25    1    3    3    0    0 -0.64786024972E+01 -0.12290731215E+02 -0.23621269971E+03  0.26765085834E+03  0.12509000000E+03 0.  0.
         25    1    3    3    0    0  0.22639805356E+02 -0.46765519552E+02 -0.23549982826E+02  0.13748339680E+03  0.12509000000E+03 0.  0.
         25    1    3    3    0    0 -0.16161202859E+02  0.59056250766E+02 -0.14629635447E+03  0.20198751611E+03  0.12509000000E+03 0.  0.
<mgrwt>
<rscale>  2 0.45134566E+03</rscale>
<asrwt>0</asrwt>
<pdfrwt beam="1">  1       21 0.14784024E-01 0.45134566E+03</pdfrwt>
<pdfrwt beam="2">  1       21 0.74498590E-01 0.45134566E+03</pdfrwt>
<totfact> 0.59954091E+04</totfact>
</mgrwt>
</event>
<event>
 7    0  0.4770865E-002  0.4545339E+03  0.7546771E-02  0.1026379E+00
         21   -1    0    0  502  501  0.00000000000E+00  0.00000000000E+00  0.11244800862E+03  0.11244800862E+03  0.00000000000E+00 0. -1.
         21   -1    0    0  501  502 -0.00000000000E+00 -0.00000000000E+00 -0.45932583897E+03  0.45932583897E+03  0.00000000000E+00 0. -1.
      99926    2    1    2    0    0  0.00000000000E+00  0.00000000000E+00 -0.34687783034E+03  0.57177384759E+03  0.45453394110E+03 0.  0.
      99925    2    3    3    0    0  0.65232265259E+02 -0.91534482825E+02 -0.22449644438E+03  0.36378701698E+03  0.26326513292E+03 0.  0.
         25    1    3    3    0    0 -0.65232265259E+02  0.91534482825E+02 -0.12238138596E+03  0.20798683061E+03  0.12509000000E+03 0.  0.
         25    1    4    4    0    0  0.60380717340E+02 -0.80276841692E+02 -0.13144424560E+03  0.20740130216E+03  0.12509000000E+03 0.  0.
         25    1    4    4    0    0  0.48515479191E+01 -0.11257641133E+02 -0.93052198780E+02  0.15638571482E+03  0.12509000000E+03 0.  0.
<mgrwt>
<rscale>  2 0.45453394E+03</rscale>
<asrwt>0</asrwt>
<pdfrwt beam="1">  1       21 0.16536472E-01 0.45453394E+03</pdfrwt>
<pdfrwt beam="2">  1       21 0.67547917E-01 0.45453394E+03</pdfrwt>
<totfact> 0.60673487E+04</totfact>
</mgrwt>
</event>
<event>
 6    0  0.4770865E-002  0.4546453E+03  0.7546771E-02  0.1026346E+00
         21   -1    0    0  502  501  0.00000000000E+00  0.00000000000E+00  0.42213381020E+03  0.42213381020E+03  0.00000000000E+00 0. -1.
         21   -1    0    0  501  502 -0.00000000000E+00 -0.00000000000E+00 -0.12241520070E+03  0.12241520070E+03  0.00000000000E+00 0. -1.
      99926    2    1    2    0    0  0.00000000000E+00  0.00000000000E+00  0.29971860951E+03  0.54454901090E+03  0.45464533472E+03 0.  0.
         25    1    3    3    0    0 -0.25707291858E+02 -0.24686777300E+02  0.86915750013E+02  0.15643579363E+03  0.12509000000E+03 0.  0.
         25    1    3    3    0    0  0.95687882480E+02  0.32024586602E+02  0.17919711684E+03  0.24070907707E+03  0.12509000000E+03 0.  0.
         25    1    3    3    0    0 -0.69980590622E+02 -0.73378093012E+01  0.33605742659E+02  0.14740414020E+03  0.12509000000E+03 0.  0.
<mgrwt>
<rscale>  2 0.45464533E+03</rscale>
<asrwt>0</asrwt>
<pdfrwt beam="1">  1       21 0.62078501E-01 0.45464533E+03</pdfrwt>
<pdfrwt beam="2">  1       21 0.18002236E-01 0.45464533E+03</pdfrwt>
<totfact> 0.62403110E+04</totfact>
</mgrwt>
</event>
<event>
 7    0  0.4770865E-002  0.4557869E+03  0.7546771E-02  0.1026010E+00
         21   -1    0    0  502  501  0.00000000000E+00  0.00000000000E+00  0.18868995660E+03  0.18868995660E+03  0.00000000000E+00 0.  1.
         21   -1    0    0  501  502 -0.00000000000E+00 -0.00000000000E+00 -0.27524211694E+03  0.27524211694E+03  0.00000000000E+00 0.  1.
      99926    2    1    2    0    0  0.00000000000E+00  0.00000000000E+00 -0.86552160342E+02  0.46393207353E+03  0.45578689362E+03 0.  0.
      99925    2    3    3    0    0 -0.10533191836E+03  0.40113096312E+02 -0.71995705958E+02  0.29492535182E+03  0.26285682024E+03 0.  0.
         25    1    3    3    0    0  0.10533191836E+03 -0.40113096312E+02 -0.14556454384E+02  0.16900672172E+03  0.12509000000E+03 0.  0.
         25    1    4    4    0    0 -0.46569212944E+02  0.26729170935E+02 -0.76213285964E+02  0.15600997798E+03  0.12509000000E+03 0.  0.
         25    1    4    4    0    0 -0.58762705415E+02  0.13383925377E+02  0.42175800067E+01  0.13891537383E+03  0.12509000000E+03 0.  0.
<mgrwt>
<rscale>  2 0.45578689E+03</rscale>
<asrwt>0</asrwt>
<pdfrwt beam="1">  1       21 0.27748523E-01 0.45578689E+03</pdfrwt>
<pdfrwt beam="2">  1       21 0.40476781E-01 0.45578689E+03</pdfrwt>
<totfact> 0.67466513E+04</totfact>
</mgrwt>
</event>
<event>
 7    0  0.4770865E-002  0.4517530E+03  0.7546771E-02  0.1027201E+00
         21   -1    0    0  502  501  0.00000000000E+00  0.00000000000E+00  0.97124651318E+02  0.97124651318E+02  0.00000000000E+00 0. -1.
         21   -1    0    0  501  502 -0.00000000000E+00 -0.00000000000E+00 -0.52530635017E+03  0.52530635017E+03  0.00000000000E+00 0. -1.
      99926    2    1    2    0    0  0.00000000000E+00  0.00000000000E+00 -0.42818169885E+03  0.62243100149E+03  0.45175301259E+03 0.  0.
      99925    2    3    3    0    0 -0.81954422910E+02  0.41273562710E+02 -0.35396769836E+03  0.45045640923E+03  0.26305476753E+03 0.  0.
         25    1    4    4    0    0 -0.56280565665E+02  0.16640403189E+02 -0.24281609971E+03  0.27937711335E+03  0.12509000000E+03 0.  0.
         25    1    3    3    0    0  0.81954422910E+02 -0.41273562710E+02 -0.74214000490E+02  0.17197459226E+03  0.12509000000E+03 0.  0.
         25    1    4    4    0    0 -0.25673857245E+02  0.24633159521E+02 -0.11115159866E+03  0.17107929588E+03  0.12509000000E+03 0.  0.
<mgrwt>
<rscale>  2 0.45175301E+03</rscale>
<asrwt>0</asrwt>
<pdfrwt beam="1">  1       21 0.14283037E-01 0.45175301E+03</pdfrwt>
<pdfrwt beam="2">  1       21 0.77250935E-01 0.45175301E+03</pdfrwt>
<totfact> 0.58811737E+04</totfact>
</mgrwt>
</event>
<event>
 7    0  0.4770865E-002  0.4416159E+03  0.7546771E-02  0.1030252E+00
         21   -1    0    0  502  501  0.00000000000E+00  0.00000000000E+00  0.20903343850E+03  0.20903343850E+03  0.00000000000E+00 0. -1.
         21   -1    0    0  501  502 -0.00000000000E+00 -0.00000000000E+00 -0.23324572466E+03  0.23324572466E+03  0.00000000000E+00 0. -1.
      99926    2    1    2    0    0  0.00000000000E+00  0.00000000000E+00 -0.24212286161E+02  0.44227916315E+03  0.44161592290E+03 0.  0.
      99925    2    3    3    0    0  0.24248213658E+02 -0.65852640170E+02 -0.84763098297E+02  0.28659212120E+03  0.26462372346E+03 0.  0.
         25    1    3    3    0    0 -0.24248213658E+02  0.65852640170E+02  0.60550812136E+02  0.15568704196E+03  0.12509000000E+03 0.  0.
         25    1    4    4    0    0  0.54453566936E+02 -0.34917407033E+02 -0.34266222631E+02  0.14493480734E+03  0.12509000000E+03 0.  0.
         25    1    4    4    0    0 -0.30205353279E+02 -0.30935233137E+02 -0.50496875666E+02  0.14165731385E+03  0.12509000000E+03 0.  0.
<mgrwt>
<rscale>  2 0.44161592E+03</rscale>
<asrwt>0</asrwt>
<pdfrwt beam="1">  1       21 0.30740212E-01 0.44161592E+03</pdfrwt>
<pdfrwt beam="2">  1       21 0.34300842E-01 0.44161592E+03</pdfrwt>
<totfact> 0.77432400E+04</totfact>
</mgrwt>
</event>
<event>
 7    0  0.4770865E-002  0.4533750E+03  0.7546771E-02  0.1026720E+00
         21   -1    0    0  502  501  0.00000000000E+00  0.00000000000E+00  0.27822586407E+02  0.27822586407E+02  0.00000000000E+00 0.  1.
         21   -1    0    0  501  502 -0.00000000000E+00 -0.00000000000E+00 -0.18469605894E+04  0.18469605894E+04  0.00000000000E+00 0.  1.
      99926    2    1    2    0    0 -0.71054273576E-14  0.00000000000E+00 -0.18191380030E+04  0.18747831758E+04  0.45337499089E+03 0.  0.
      99925    2    3    3    0    0  0.43391180476E+02  0.10251970319E+03 -0.11087952091E+04  0.11449698592E+04  0.26293740470E+03 0.  0.
         25    1    4    4    0    0  0.57192582680E+02  0.41429100391E+02 -0.62913269434E+03  0.64532380791E+03  0.12509000000E+03 0.  0.
         25    1    3    3    0    0 -0.43391180476E+02 -0.10251970319E+03 -0.71034279394E+03  0.72981331660E+03  0.12509000000E+03 0.  0.
         25    1    4    4    0    0 -0.13801402204E+02  0.61090602800E+02 -0.47966251475E+03  0.49964605133E+03  0.12509000000E+03 0.  0.
<mgrwt>
<rscale>  2 0.45337499E+03</rscale>
<asrwt>0</asrwt>
<pdfrwt beam="1">  1       21 0.40915557E-02 0.45337499E+03</pdfrwt>
<pdfrwt beam="2">  1       21 0.27161193E+00 0.45337499E+03</pdfrwt>
<totfact> 0.16065468E+04</totfact>
</mgrwt>
</event>
<event>
 7    0  0.4770865E-002  0.4500087E+03  0.7546771E-02  0.1027719E+00
         21   -1    0    0  502  501  0.00000000000E+00  0.00000000000E+00  0.56459098844E+03  0.56459098844E+03  0.00000000000E+00 0.  1.
         21   -1    0    0  501  502 -0.00000000000E+00 -0.00000000000E+00 -0.89670152579E+02  0.89670152579E+02  0.00000000000E+00 0.  1.
      99926    2    1    2    0    0  0.14210854715E-13  0.00000000000E+00  0.47492083586E+03  0.65426114102E+03  0.45000871137E+03 0.  0.
      99925    2    3    3    0    0 -0.10222548455E+03 -0.25579045185E+02  0.26348090895E+03  0.38694356203E+03  0.26305663567E+03 0.  0.
         25    1    3    3    0    0  0.10222548455E+03  0.25579045185E+02  0.21143992692E+03  0.26731757899E+03  0.12509000000E+03 0.  0.
         25    1    4    4    0    0 -0.10651653051E+02 -0.12430855906E+00  0.10328872619E+03  0.16257165258E+03  0.12509000000E+03 0.  0.
         25    1    4    4    0    0 -0.91573831499E+02 -0.25454736626E+02  0.16019218276E+03  0.22437190945E+03  0.12509000000E+03 0.  0.
<mgrwt>
<rscale>  2 0.45000871E+03</rscale>
<asrwt>0</asrwt>
<pdfrwt beam="1">  1       21 0.83028084E-01 0.45000871E+03</pdfrwt>
<pdfrwt beam="2">  1       21 0.13186787E-01 0.45000871E+03</pdfrwt>
<totfact> 0.57694712E+04</totfact>
</mgrwt>
</event>
<event>
 7    0  0.4770865E-002  0.4540344E+03  0.7546771E-02  0.1026526E+00
         21   -1    0    0  502  501  0.00000000000E+00  0.00000000000E+00  0.76358684638E+03  0.76358684638E+03  0.00000000000E+00 0.  1.
         21   -1    0    0  501  502 -0.00000000000E+00 -0.00000000000E+00 -0.67493063998E+02  0.67493063998E+02  0.00000000000E+00 0.  1.
      99926    2    1    2    0    0  0.00000000000E+00  0.00000000000E+00  0.69609378238E+03  0.83107991037E+03  0.45403442993E+03 0.  0.
      99925    2    3    3    0    0 -0.53304458273E+02  0.72838832964E+02  0.56044091302E+03  0.62566309041E+03  0.26308444434E+03 0.  0.
         25    1    4    4    0    0 -0.25662546209E+02  0.72165559813E+01  0.19832720852E+03  0.23599117504E+03  0.12509000000E+03 0.  0.
         25    1    4    4    0    0 -0.27641912063E+02  0.65622276983E+02  0.36211370450E+03  0.38967191537E+03  0.12509000000E+03 0.  0.
         25    1    3    3    0    0  0.53304458273E+02 -0.72838832964E+02  0.13565286936E+03  0.20541681996E+03  0.12509000000E+03 0.  0.
<mgrwt>
<rscale>  2 0.45403443E+03</rscale>
<asrwt>0</asrwt>
<pdfrwt beam="1">  1       21 0.11229218E+00 0.45403443E+03</pdfrwt>
<pdfrwt beam="2">  1       21 0.99254510E-02 0.45403443E+03</pdfrwt>
<totfact> 0.46650378E+04</totfact>
</mgrwt>
</event>
<event>
 7    0  0.4770865E-002  0.4547981E+03  0.7546771E-02  0.1026301E+00
         21   -1    0    0  502  501  0.00000000000E+00  0.00000000000E+00  0.16905050719E+03  0.16905050719E+03  0.00000000000E+00 0.  1.
         21   -1    0    0  501  502 -0.00000000000E+00 -0.00000000000E+00 -0.30588691312E+03  0.30588691312E+03  0.00000000000E+00 0.  1.
      99926    2    1    2    0    0  0.71054273576E-14  0.00000000000E+00 -0.13683640593E+03  0.47493742032E+03  0.45479814339E+03 0.  0.
      99925    2    3    3    0    0  0.49171203295E+02 -0.91449188920E+02 -0.39570610998E+02  0.28549374966E+03  0.26298305355E+03 0.  0.
         25    1    4    4    0    0  0.37359064956E+02 -0.76386233582E+02 -0.47941908350E+02  0.15867101528E+03  0.12509000000E+03 0.  0.
         25    1    3    3    0    0 -0.49171203295E+02  0.91449188920E+02 -0.97265794930E+02  0.18944367065E+03  0.12509000000E+03 0.  0.
         25    1    4    4    0    0  0.11812138339E+02 -0.15062955338E+02  0.83712973516E+01  0.12682273438E+03  0.12509000000E+03 0.  0.
<mgrwt>
<rscale>  2 0.45479814E+03</rscale>
<asrwt>0</asrwt>
<pdfrwt beam="1">  1       21 0.24860369E-01 0.45479814E+03</pdfrwt>
<pdfrwt beam="2">  1       21 0.44983369E-01 0.45479814E+03</pdfrwt>
<totfact> 0.67178059E+04</totfact>
</mgrwt>
</event>
<event>
 7    0  0.4770865E-002  0.4536989E+03  0.7546771E-02  0.1026625E+00
         21   -1    0    0  502  501  0.00000000000E+00  0.00000000000E+00  0.52399706720E+03  0.52399706720E+03  0.00000000000E+00 0. -1.
         21   -1    0    0  501  502 -0.00000000000E+00 -0.00000000000E+00 -0.98207928905E+02  0.98207928905E+02  0.00000000000E+00 0. -1.
      99926    2    1    2    0    0  0.00000000000E+00  0.00000000000E+00  0.42578913830E+03  0.62220499611E+03  0.45369887248E+03 0.  0.
      99925    2    3    3    0    0 -0.22000595695E+02 -0.37007971400E+02  0.40995646228E+03  0.48896912298E+03  0.26300738793E+03 0.  0.
         25    1    3    3    0    0  0.22000595695E+02  0.37007971400E+02  0.15832676020E+02  0.13323587313E+03  0.12509000000E+03 0.  0.
         25    1    4    4    0    0  0.11050693567E+02  0.13062989449E+02  0.22147801391E+03  0.25493681230E+03  0.12509000000E+03 0.  0.
         25    1    4    4    0    0 -0.33051289262E+02 -0.50070960849E+02  0.18847844837E+03  0.23403231068E+03  0.12509000000E+03 0.  0.
<mgrwt>
<rscale>  2 0.45369887E+03</rscale>
<asrwt>0</asrwt>
<pdfrwt beam="1">  1       21 0.77058391E-01 0.45369887E+03</pdfrwt>
<pdfrwt beam="2">  1       21 0.14442343E-01 0.45369887E+03</pdfrwt>
<totfact> 0.57924700E+04</totfact>
</mgrwt>
</event>
<event>
 7    0  0.4770865E-002  0.4519978E+03  0.7546771E-02  0.1027128E+00
         21   -1    0    0  502  501  0.00000000000E+00  0.00000000000E+00  0.44606833807E+03  0.44606833807E+03  0.00000000000E+00 0.  1.
         21   -1    0    0  501  502 -0.00000000000E+00 -0.00000000000E+00 -0.11450152403E+03  0.11450152403E+03  0.00000000000E+00 0.  1.
      99926    2    1    2    0    0 -0.71054273576E-14 -0.17763568394E-14  0.33156681404E+03  0.56056986209E+03  0.45199780764E+03 0.  0.
      99925    2    3    3    0    0  0.39114582287E+02  0.14947454610E+02  0.82493940883E+02  0.27872206418E+03  0.26292082806E+03 0.  0.
         25    1    3    3    0    0 -0.39114582287E+02 -0.14947454610E+02  0.24907287316E+03  0.28184779792E+03  0.12509000000E+03 0.  0.
         25    1    4    4    0    0  0.45479084904E+01 -0.88337389796E+01  0.75826335823E+02  0.14661466407E+03  0.12509000000E+03 0.  0.
         25    1    4    4    0    0  0.34566673796E+02  0.23781193589E+02  0.66676050594E+01  0.13210740011E+03  0.12509000000E+03 0.  0.
<mgrwt>
<rscale>  2 0.45199781E+03</rscale>
<asrwt>0</asrwt>
<pdfrwt beam="1">  1       21 0.65598285E-01 0.45199781E+03</pdfrwt>
<pdfrwt beam="2">  1       21 0.16838459E-01 0.45199781E+03</pdfrwt>
<totfact> 0.62647870E+04</totfact>
</mgrwt>
</event>
<event>
 7    0  0.4770865E-002  0.4354631E+03  0.7546771E-02  0.1032148E+00
         21   -1    0    0  502  501  0.00000000000E+00  0.00000000000E+00  0.12305356464E+03  0.12305356464E+03  0.00000000000E+00 0.  1.
         21   -1    0    0  501  502 -0.00000000000E+00 -0.00000000000E+00 -0.38525519953E+03  0.38525519953E+03  0.00000000000E+00 0.  1.
      99926    2    1    2    0    0  0.00000000000E+00  0.00000000000E+00 -0.26220163490E+03  0.50830876417E+03  0.43546308958E+03 0.  0.
      99925    2    3    3    0    0  0.78511398395E+02  0.22395362458E+02 -0.11436083391E+03  0.29814215770E+03  0.26295390077E+03 0.  0.
         25    1    4    4    0    0  0.12072380724E+02  0.11070607205E+02 -0.20406947654E+02  0.12779770081E+03  0.12509000000E+03 0.  0.
         25    1    3    3    0    0 -0.78511398395E+02 -0.22395362458E+02 -0.14784080099E+03  0.21016660647E+03  0.12509000000E+03 0.  0.
         25    1    4    4    0    0  0.66439017671E+02  0.11324755253E+02 -0.93953886259E+02  0.17034445689E+03  0.12509000000E+03 0.  0.
<mgrwt>
<rscale>  2 0.43546309E+03</rscale>
<asrwt>0</asrwt>
<pdfrwt beam="1">  1       21 0.18096112E-01 0.43546309E+03</pdfrwt>
<pdfrwt beam="2">  1       21 0.56655177E-01 0.43546309E+03</pdfrwt>
<totfact> 0.75767933E+04</totfact>
</mgrwt>
</event>
<event>
 7    0  0.4770865E-002  0.4477943E+03  0.7546771E-02  0.1028382E+00
         21   -1    0    0  502  501  0.00000000000E+00  0.00000000000E+00  0.82765725322E+02  0.82765725322E+02  0.00000000000E+00 0.  1.
         21   -1    0    0  501  502 -0.00000000000E+00 -0.00000000000E+00 -0.60568473611E+03  0.60568473611E+03  0.00000000000E+00 0.  1.
      99926    2    1    2    0    0  0.00000000000E+00  0.00000000000E+00 -0.52291901079E+03  0.68845046144E+03  0.44779431216E+03 0.  0.
      99925    2    3    3    0    0 -0.85929823230E+02  0.57183140465E+02 -0.29262051898E+03  0.40677911127E+03  0.26303731896E+03 0.  0.
         25    1    4    4    0    0 -0.59810156929E+02  0.65395445827E+02 -0.14059221974E+03  0.20800841223E+03  0.12509000000E+03 0.  0.
         25    1    3    3    0    0  0.85929823230E+02 -0.57183140465E+02 -0.23029849181E+03  0.28167135016E+03  0.12509000000E+03 0.  0.
         25    1    4    4    0    0 -0.26119666300E+02 -0.82123053618E+01 -0.15202829924E+03  0.19877069904E+03  0.12509000000E+03 0.  0.
<mgrwt>
<rscale>  2 0.44779431E+03</rscale>
<asrwt>0</asrwt>
<pdfrwt beam="1">  1       21 0.12171430E-01 0.44779431E+03</pdfrwt>
<pdfrwt beam="2">  1       21 0.89071286E-01 0.44779431E+03</pdfrwt>
<totfact> 0.56682124E+04</totfact>
</mgrwt>
</event>
<event>
 7    0  0.4770865E-002  0.4700030E+03  0.7546771E-02  0.1021919E+00
         21   -1    0    0  502  501  0.00000000000E+00  0.00000000000E+00  0.16496198601E+03  0.16496198601E+03  0.00000000000E+00 0. -1.
         21   -1    0    0  501  502 -0.00000000000E+00 -0.00000000000E+00 -0.33477839052E+03  0.33477839052E+03  0.00000000000E+00 0. -1.
      99926    2    1    2    0    0  0.00000000000E+00 -0.14210854715E-13 -0.16981640451E+03  0.49974037653E+03  0.47000301349E+03 0.  0.
      99925    2    3    3    0    0  0.21436678594E+02 -0.10369137993E+03 -0.17947179238E+03  0.33556922171E+03  0.26303069181E+03 0.  0.
         25    1    4    4    0    0 -0.10639497634E+02 -0.22731150014E+02 -0.55635225982E+02  0.13918581307E+03  0.12509000000E+03 0.  0.
         25    1    4    4    0    0  0.32076176228E+02 -0.80960229918E+02 -0.12383656639E+03  0.19638340863E+03  0.12509000000E+03 0.  0.
         25    1    3    3    0    0 -0.21436678594E+02  0.10369137993E+03  0.96553878656E+01  0.16417115482E+03  0.12509000000E+03 0.  0.
<mgrwt>
<rscale>  2 0.47000301E+03</rscale>
<asrwt>0</asrwt>
<pdfrwt beam="1">  1       21 0.24259116E-01 0.47000301E+03</pdfrwt>
<pdfrwt beam="2">  1       21 0.49232116E-01 0.47000301E+03</pdfrwt>
<totfact> 0.58059609E+04</totfact>
</mgrwt>
</event>
<event>
 7    0  0.4770865E-002  0.4098127E+03  0.7546771E-02  0.1040434E+00
         21   -1    0    0  502  501  0.00000000000E+00  0.00000000000E+00  0.62943761456E+02  0.62943761456E+02  0.00000000000E+00 0.  1.
         21   -1    0    0  501  502 -0.00000000000E+00 -0.00000000000E+00 -0.66704974191E+03  0.66704974191E+03  0.00000000000E+00 0.  1.
      99926    2    1    2    0    0  0.00000000000E+00  0.17763568394E-14 -0.60410598045E+03  0.72999350336E+03  0.40981273691E+03 0.  0.
      99925    2    3    3    0    0  0.13793684643E+02 -0.55891303131E+01 -0.50555032989E+03  0.57004904903E+03  0.26297010883E+03 0.  0.
         25    1    3    3    0    0 -0.13793684643E+02  0.55891303131E+01 -0.98555650561E+02  0.15994445433E+03  0.12509000000E+03 0.  0.
         25    1    4    4    0    0  0.23929767936E+02  0.23821945122E+02 -0.19855020038E+03  0.23708607938E+03  0.12509000000E+03 0.  0.
         25    1    4    4    0    0 -0.10136083293E+02 -0.29411075435E+02 -0.30700012951E+03  0.33296296965E+03  0.12509000000E+03 0.  0.
<mgrwt>
<rscale>  2 0.40981274E+03</rscale>
<asrwt>0</asrwt>
<pdfrwt beam="1">  1       21 0.92564348E-02 0.40981274E+03</pdfrwt>
<pdfrwt beam="2">  1       21 0.98095557E-01 0.40981274E+03</pdfrwt>
<totfact> 0.74432895E+04</totfact>
</mgrwt>
</event>
<event>
 7    0  0.4770865E-002  0.4277840E+03  0.7546771E-02  0.1034562E+00
         21   -1    0    0  502  501  0.00000000000E+00  0.00000000000E+00  0.11140777700E+03  0.11140777700E+03  0.00000000000E+00 0.  1.
         21   -1    0    0  501  502 -0.00000000000E+00 -0.00000000000E+00 -0.41065156021E+03  0.41065156021E+03  0.00000000000E+00 0.  1.
      99926    2    1    2    0    0  0.00000000000E+00  0.35527136788E-14 -0.29924378321E+03  0.52205933721E+03  0.42778395222E+03 0.  0.
      99925    2    3    3    0    0  0.80965242942E+02  0.26260367648E+02 -0.19361763300E+03  0.33753462563E+03  0.26305295706E+03 0.  0.
         25    1    4    4    0    0  0.82279150043E+01 -0.61663022848E+01 -0.65549023608E+02  0.14159768524E+03  0.12509000000E+03 0.  0.
         25    1    3    3    0    0 -0.80965242942E+02 -0.26260367648E+02 -0.10562615021E+03  0.18452471157E+03  0.12509000000E+03 0.  0.
         25    1    4    4    0    0  0.72737327938E+02  0.32426669932E+02 -0.12806860940E+03  0.19593694039E+03  0.12509000000E+03 0.  0.
<mgrwt>
<rscale>  2 0.42778395E+03</rscale>
<asrwt>0</asrwt>
<pdfrwt beam="1">  1       21 0.16383497E-01 0.42778395E+03</pdfrwt>
<pdfrwt beam="2">  1       21 0.60389934E-01 0.42778395E+03</pdfrwt>
<totfact> 0.79558339E+04</totfact>
</mgrwt>
</event>
<event>
 7    0  0.4770865E-002  0.4532158E+03  0.7546771E-02  0.1026767E+00
         21   -1    0    0  502  501  0.00000000000E+00  0.00000000000E+00  0.63272161013E+03  0.63272161013E+03  0.00000000000E+00 0.  1.
         21   -1    0    0  501  502 -0.00000000000E+00 -0.00000000000E+00 -0.81159142294E+02  0.81159142294E+02  0.00000000000E+00 0.  1.
      99926    2    1    2    0    0  0.00000000000E+00  0.00000000000E+00  0.55156246783E+03  0.71388075242E+03  0.45321581256E+03 0.  0.
      99925    2    3    3    0    0 -0.10685599902E+03  0.24310817044E+02  0.37942889502E+03  0.47453436046E+03  0.26307290346E+03 0.  0.
         25    1    4    4    0    0 -0.81911384473E+02  0.43838833573E+02  0.21465215391E+03  0.26524398865E+03  0.12509000000E+03 0.  0.
         25    1    4    4    0    0 -0.24944614550E+02 -0.19528016529E+02  0.16477674111E+03  0.20929037182E+03  0.12509000000E+03 0.  0.
         25    1    3    3    0    0  0.10685599902E+03 -0.24310817044E+02  0.17213357281E+03  0.23934639196E+03  0.12509000000E+03 0.  0.
<mgrwt>
<rscale>  2 0.45321581E+03</rscale>
<asrwt>0</asrwt>
<pdfrwt beam="1">  1       21 0.93047293E-01 0.45321581E+03</pdfrwt>
<pdfrwt beam="2">  1       21 0.11935168E-01 0.45321581E+03</pdfrwt>
<totfact> 0.52894337E+04</totfact>
</mgrwt>
</event>
<event>
 7    0  0.4770865E-002  0.4570981E+03  0.7546771E-02  0.1025626E+00
         21   -1    0    0  502  501  0.00000000000E+00  0.00000000000E+00  0.27446629053E+02  0.27446629053E+02  0.00000000000E+00 0. -1.
         21   -1    0    0  501  502 -0.00000000000E+00 -0.00000000000E+00 -0.19031363820E+04  0.19031363820E+04  0.00000000000E+00 0. -1.
      99926    2    1    2    0    0  0.00000000000E+00  0.00000000000E+00 -0.18756897529E+04  0.19305830110E+04  0.45709814401E+03 0.  0.
      99925    2    3    3    0    0  0.56199277741E+02  0.85990897600E+02 -0.13917013937E+04  0.14202448553E+04  0.26402629855E+03 0.  0.
         25    1    3    3    0    0 -0.56199277741E+02 -0.85990897600E+02 -0.48398835919E+03  0.51033815576E+03  0.12509000000E+03 0.  0.
         25    1    4    4    0    0  0.48939134526E+02  0.80796618501E+02 -0.83600015235E+03  0.85056857177E+03  0.12509000000E+03 0.  0.
         25    1    4    4    0    0  0.72601432145E+01  0.51942790989E+01 -0.55570124138E+03  0.56967628350E+03  0.12509000000E+03 0.  0.
<mgrwt>
<rscale>  2 0.45709814E+03</rscale>
<asrwt>0</asrwt>
<pdfrwt beam="1">  1       21 0.40362702E-02 0.45709814E+03</pdfrwt>
<pdfrwt beam="2">  1       21 0.27987291E+00 0.45709814E+03</pdfrwt>
<totfact> 0.14636652E+04</totfact>
</mgrwt>
</event>
<event>
 7    0  0.4770865E-002  0.4663659E+03  0.7546771E-02  0.1022951E+00
         21   -1    0    0  502  501  0.00000000000E+00  0.00000000000E+00  0.73015938237E+02  0.73015938237E+02  0.00000000000E+00 0.  1.
         21   -1    0    0  501  502 -0.00000000000E+00 -0.00000000000E+00 -0.74469082060E+03  0.74469082060E+03  0.00000000000E+00 0.  1.
      99926    2    1    2    0    0 -0.35527136788E-14  0.00000000000E+00 -0.67167488236E+03  0.81770675883E+03  0.46636594628E+03 0.  0.
      99925    2    3    3    0    0  0.26934032633E+02  0.11764908407E+03 -0.46485263405E+03  0.54754069954E+03  0.26295645491E+03 0.  0.
         25    1    3    3    0    0 -0.26934032633E+02 -0.11764908407E+03 -0.20682224831E+03  0.27016605929E+03  0.12509000000E+03 0.  0.
         25    1    4    4    0    0 -0.15164588314E+02  0.85745738492E+02 -0.26989849185E+03  0.30995967546E+03  0.12509000000E+03 0.  0.
         25    1    4    4    0    0  0.42098620948E+02  0.31903345576E+02 -0.19495414220E+03  0.23758102409E+03  0.12509000000E+03 0.  0.
<mgrwt>
<rscale>  2 0.46636595E+03</rscale>
<asrwt>0</asrwt>
<pdfrwt beam="1">  1       21 0.10737639E-01 0.46636595E+03</pdfrwt>
<pdfrwt beam="2">  1       21 0.10951335E+00 0.46636595E+03</pdfrwt>
<totfact> 0.42958829E+04</totfact>
</mgrwt>
</event>
<event>
 7    0  0.4770865E-002  0.4542148E+03  0.7546771E-02  0.1026473E+00
         21   -1    0    0  502  501  0.00000000000E+00  0.00000000000E+00  0.10901853791E+04  0.10901853791E+04  0.00000000000E+00 0.  1.
         21   -1    0    0  501  502 -0.00000000000E+00 -0.00000000000E+00 -0.47311000949E+02  0.47311000949E+02  0.00000000000E+00 0.  1.
      99926    2    1    2    0    0  0.71054273576E-14  0.17763568394E-14  0.10428743782E+04  0.11374963801E+04  0.45421475760E+03 0.  0.
      99925    2    3    3    0    0  0.58775082566E+02  0.15783863487E+02  0.89348990543E+03  0.93337173807E+03  0.26297328692E+03 0.  0.
         25    1    4    4    0    0  0.40734258472E+01 -0.24351591509E+01  0.53201928847E+03  0.54654785170E+03  0.12509000000E+03 0.  0.
         25    1    4    4    0    0  0.54701656719E+02  0.18219022638E+02  0.36147061696E+03  0.38682388636E+03  0.12509000000E+03 0.  0.
         25    1    3    3    0    0 -0.58775082566E+02 -0.15783863487E+02  0.14938447274E+03  0.20412464200E+03  0.12509000000E+03 0.  0.
<mgrwt>
<rscale>  2 0.45421476E+03</rscale>
<asrwt>0</asrwt>
<pdfrwt beam="1">  1       21 0.16032136E+00 0.45421476E+03</pdfrwt>
<pdfrwt beam="2">  1       21 0.69575008E-02 0.45421476E+03</pdfrwt>
<totfact> 0.34412743E+04</totfact>
</mgrwt>
</event>
<event>
 7    0  0.4770865E-002  0.4553352E+03  0.7546771E-02  0.1026143E+00
         21   -1    0    0  502  501  0.00000000000E+00  0.00000000000E+00  0.97399816882E+03  0.97399816882E+03  0.00000000000E+00 0.  1.
         21   -1    0    0  501  502 -0.00000000000E+00 -0.00000000000E+00 -0.53216250349E+02  0.53216250349E+02  0.00000000000E+00 0.  1.
      99926    2    1    2    0    0  0.00000000000E+00 -0.88817841970E-15  0.92078191847E+03  0.10272144192E+04  0.45533517497E+03 0.  0.
      99925    2    3    3    0    0 -0.91031461632E+02 -0.43532641459E+01  0.73174183877E+03  0.78290040453E+03  0.26302328204E+03 0.  0.
         25    1    3    3    0    0  0.91031461632E+02  0.43532641459E+01  0.18904007971E+03  0.24431401464E+03  0.12509000000E+03 0.  0.
         25    1    4    4    0    0 -0.11937200370E+02  0.20812534441E+02  0.36691949132E+03  0.38839809417E+03  0.12509000000E+03 0.  0.
         25    1    4    4    0    0 -0.79094261262E+02 -0.25165798587E+02  0.36482234744E+03  0.39450231036E+03  0.12509000000E+03 0.  0.
<mgrwt>
<rscale>  2 0.45533517E+03</rscale>
<asrwt>0</asrwt>
<pdfrwt beam="1">  1       21 0.14323501E+00 0.45533517E+03</pdfrwt>
<pdfrwt beam="2">  1       21 0.78259198E-02 0.45533517E+03</pdfrwt>
<totfact> 0.38025135E+04</totfact>
</mgrwt>
</event>
<event>
 7    0  0.4770865E-002  0.4565224E+03  0.7546771E-02  0.1025795E+00
         21   -1    0    0  502  501  0.00000000000E+00  0.00000000000E+00  0.20783395885E+03  0.20783395885E+03  0.00000000000E+00 0. -1.
         21   -1    0    0  501  502 -0.00000000000E+00 -0.00000000000E+00 -0.25069613999E+03  0.25069613999E+03  0.00000000000E+00 0. -1.
      99926    2    1    2    0    0  0.00000000000E+00  0.71054273576E-14 -0.42862181145E+02  0.45853009884E+03  0.45652238167E+03 0.  0.
      99925    2    3    3    0    0  0.10303416486E+03  0.49701498001E+02 -0.33110276518E+02  0.28873938715E+03  0.26303586305E+03 0.  0.
         25    1    4    4    0    0  0.39166926937E+02 -0.11885894546E+02  0.10487050017E+01  0.13162040319E+03  0.12509000000E+03 0.  0.
         25    1    4    4    0    0  0.63867237923E+02  0.61587392547E+02 -0.34158981519E+02  0.15711898396E+03  0.12509000000E+03 0.  0.
         25    1    3    3    0    0 -0.10303416486E+03 -0.49701498001E+02 -0.97519046273E+01  0.16979071169E+03  0.12509000000E+03 0.  0.
<mgrwt>
<rscale>  2 0.45652238E+03</rscale>
<asrwt>0</asrwt>
<pdfrwt beam="1">  1       21 0.30563818E-01 0.45652238E+03</pdfrwt>
<pdfrwt beam="2">  1       21 0.36867079E-01 0.45652238E+03</pdfrwt>
<totfact> 0.67464768E+04</totfact>
</mgrwt>
</event>
<event>
 7    0  0.4770865E-002  0.4512505E+03  0.7546771E-02  0.1027350E+00
         21   -1    0    0  502  501  0.00000000000E+00  0.00000000000E+00  0.51537646057E+03  0.51537646057E+03  0.00000000000E+00 0.  1.
         21   -1    0    0  501  502 -0.00000000000E+00 -0.00000000000E+00 -0.98775850691E+02  0.98775850691E+02  0.00000000000E+00 0.  1.
      99926    2    1    2    0    0  0.88817841970E-15  0.17763568394E-14  0.41660060988E+03  0.61415231126E+03  0.45125047731E+03 0.  0.
      99925    2    3    3    0    0  0.75574998276E+01  0.11839754196E+02  0.11475864020E+03  0.28711503764E+03  0.26280830229E+03 0.  0.
         25    1    3    3    0    0 -0.75574998276E+01 -0.11839754196E+02  0.30184196967E+03  0.32703727362E+03  0.12509000000E+03 0.  0.
         25    1    4    4    0    0  0.39925249882E+01  0.11926028418E+02  0.10091147836E+03  0.16121043693E+03  0.12509000000E+03 0.  0.
         25    1    4    4    0    0  0.35649748395E+01 -0.86274221927E-01  0.13847161848E+02  0.12590460071E+03  0.12509000000E+03 0.  0.
<mgrwt>
<rscale>  2 0.45125048E+03</rscale>
<asrwt>0</asrwt>
<pdfrwt beam="1">  1       21 0.75790655E-01 0.45125048E+03</pdfrwt>
<pdfrwt beam="2">  1       21 0.14525861E-01 0.45125048E+03</pdfrwt>
<totfact> 0.59559741E+04</totfact>
</mgrwt>
</event>
<event>
 7    0  0.4770865E-002  0.4541644E+03  0.7546771E-02  0.1026487E+00
         21   -1    0    0  502  501  0.00000000000E+00  0.00000000000E+00  0.11557359273E+04  0.11557359273E+04  0.00000000000E+00 0.  1.
         21   -1    0    0  501  502 -0.00000000000E+00 -0.00000000000E+00 -0.44617738003E+02  0.44617738003E+02  0.00000000000E+00 0.  1.
      99926    2    1    2    0    0 -0.35527136788E-14  0.00000000000E+00  0.11111181893E+04  0.12003536653E+04  0.45416438789E+03 0.  0.
      99925    2    3    3    0    0  0.22175458092E+02  0.35358060158E+02  0.42366889148E+03  0.50037081657E+03  0.26293284523E+03 0.  0.
         25    1    3    3    0    0 -0.22175458092E+02 -0.35358060158E+02  0.68744929786E+03  0.69998284878E+03  0.12509000000E+03 0.  0.
         25    1    4    4    0    0  0.46346429092E+02  0.19427008778E+02  0.17930055597E+03  0.22432475929E+03  0.12509000000E+03 0.  0.
         25    1    4    4    0    0 -0.24170971000E+02  0.15931051380E+02  0.24436833551E+03  0.27604605727E+03  0.12509000000E+03 0.  0.
<mgrwt>
<rscale>  2 0.45416439E+03</rscale>
<asrwt>0</asrwt>
<pdfrwt beam="1">  1       21 0.16996115E+00 0.45416439E+03</pdfrwt>
<pdfrwt beam="2">  1       21 0.65614328E-02 0.45416439E+03</pdfrwt>
<totfact> 0.32354838E+04</totfact>
</mgrwt>
</event>
<event>
 7    0  0.4770865E-002  0.4727161E+03  0.7546771E-02  0.1021156E+00
         21   -1    0    0  502  501  0.00000000000E+00  0.00000000000E+00  0.34167047141E+03  0.34167047141E+03  0.00000000000E+00 0. -1.
         21   -1    0    0  501  502 -0.00000000000E+00 -0.00000000000E+00 -0.16350586813E+03  0.16350586813E+03  0.00000000000E+00 0. -1.
      99926    2    1    2    0    0  0.00000000000E+00  0.00000000000E+00  0.17816460327E+03  0.50517633954E+03  0.47271609680E+03 0.  0.
      99925    2    3    3    0    0 -0.55211551332E+02 -0.23128164903E+02  0.23259334802E+03  0.35620243657E+03  0.26305376421E+03 0.  0.
         25    1    4    4    0    0 -0.71307579977E+01  0.13412914850E+02  0.14446983398E+03  0.19170236051E+03  0.12509000000E+03 0.  0.
         25    1    4    4    0    0 -0.48080793334E+02 -0.36541079753E+02  0.88123514039E+02  0.16450007606E+03  0.12509000000E+03 0.  0.
         25    1    3    3    0    0  0.55211551332E+02  0.23128164903E+02 -0.54428744747E+02  0.14897390297E+03  0.12509000000E+03 0.  0.
<mgrwt>
<rscale>  2 0.47271610E+03</rscale>
<asrwt>0</asrwt>
<pdfrwt beam="1">  1       21 0.50245657E-01 0.47271610E+03</pdfrwt>
<pdfrwt beam="2">  1       21 0.24044981E-01 0.47271610E+03</pdfrwt>
<totfact> 0.56530097E+04</totfact>
</mgrwt>
</event>
<event>
 7    0  0.4770865E-002  0.4359138E+03  0.7546771E-02  0.1032008E+00
         21   -1    0    0  502  501  0.00000000000E+00  0.00000000000E+00  0.28095207012E+03  0.28095207012E+03  0.00000000000E+00 0.  1.
         21   -1    0    0  501  502 -0.00000000000E+00 -0.00000000000E+00 -0.16908655215E+03  0.16908655215E+03  0.00000000000E+00 0.  1.
      99926    2    1    2    0    0  0.00000000000E+00  0.00000000000E+00  0.11186551797E+03  0.45003862228E+03  0.43591383028E+03 0.  0.
      99925    2    3    3    0    0  0.49366110720E+02  0.78869610092E+02  0.86908531328E+02  0.29215326017E+03  0.26295057773E+03 0.  0.
         25    1    4    4    0    0  0.47436820501E+02  0.49452454880E+02  0.11374373377E+02  0.14308277920E+03  0.12509000000E+03 0.  0.
         25    1    3    3    0    0 -0.49366110720E+02 -0.78869610092E+02  0.24956986638E+02  0.15788536210E+03  0.12509000000E+03 0.  0.
         25    1    4    4    0    0  0.19292902191E+01  0.29417155212E+02  0.75534157951E+02  0.14907048098E+03  0.12509000000E+03 0.  0.
<mgrwt>
<rscale>  2 0.43591383E+03</rscale>
<asrwt>0</asrwt>
<pdfrwt beam="1">  1       21 0.41316481E-01 0.43591383E+03</pdfrwt>
<pdfrwt beam="2">  1       21 0.24865669E-01 0.43591383E+03</pdfrwt>
<totfact> 0.80457486E+04</totfact>
</mgrwt>
</event>
<event>
 7    0  0.4770865E-002  0.4534527E+03  0.7546771E-02  0.1026697E+00
         21   -1    0    0  502  501  0.00000000000E+00  0.00000000000E+00  0.10159172105E+03  0.10159172105E+03  0.00000000000E+00 0. -1.
         21   -1    0    0  501  502 -0.00000000000E+00 -0.00000000000E+00 -0.50599438922E+03  0.50599438922E+03  0.00000000000E+00 0. -1.
      99926    2    1    2    0    0  0.00000000000E+00 -0.14210854715E-13 -0.40440266817E+03  0.60758611026E+03  0.45345271348E+03 0.  0.
      99925    2    3    3    0    0 -0.16527320417E+02 -0.71412265234E+02 -0.36766432510E+03  0.45801981092E+03  0.26312017654E+03 0.  0.
         25    1    4    4    0    0  0.15777606542E+02 -0.62003228894E+02 -0.22551128830E+03  0.26569942136E+03  0.12509000000E+03 0.  0.
         25    1    4    4    0    0 -0.32304926959E+02 -0.94090363397E+01 -0.14215303680E+03  0.19232038956E+03  0.12509000000E+03 0.  0.
         25    1    3    3    0    0  0.16527320417E+02  0.71412265234E+02 -0.36738343074E+02  0.14956629934E+03  0.12509000000E+03 0.  0.
<mgrwt>
<rscale>  2 0.45345271E+03</rscale>
<asrwt>0</asrwt>
<pdfrwt beam="1">  1       21 0.14939959E-01 0.45345271E+03</pdfrwt>
<pdfrwt beam="2">  1       21 0.74410940E-01 0.45345271E+03</pdfrwt>
<totfact> 0.58930733E+04</totfact>
</mgrwt>
</event>
<event>
 7    0  0.4770865E-002  0.4532519E+03  0.7546771E-02  0.1026757E+00
         21   -1    0    0  502  501  0.00000000000E+00  0.00000000000E+00  0.66969940278E+02  0.66969940278E+02  0.00000000000E+00 0. -1.
         21   -1    0    0  501  502 -0.00000000000E+00 -0.00000000000E+00 -0.76690121925E+03  0.76690121925E+03  0.00000000000E+00 0. -1.
      99926    2    1    2    0    0 -0.71054273576E-14  0.00000000000E+00 -0.69993127897E+03  0.83387115953E+03  0.45325193371E+03 0.  0.
      99925    2    3    3    0    0  0.50623620856E+02 -0.49413857013E+02 -0.28171284006E+03  0.39165102091E+03  0.26272403330E+03 0.  0.
         25    1    4    4    0    0 -0.11993310496E+02 -0.39947841026E+02 -0.13853445819E+03  0.19125630370E+03  0.12509000000E+03 0.  0.
         25    1    4    4    0    0  0.62616931352E+02 -0.94660159876E+01 -0.14317838187E+03  0.20039471721E+03  0.12509000000E+03 0.  0.
         25    1    3    3    0    0 -0.50623620856E+02  0.49413857013E+02 -0.41821843892E+03  0.44222013862E+03  0.12509000000E+03 0.  0.
<mgrwt>
<rscale>  2 0.45325193E+03</rscale>
<asrwt>0</asrwt>
<pdfrwt beam="1">  1       21 0.98485207E-02 0.45325193E+03</pdfrwt>
<pdfrwt beam="2">  1       21 0.11277959E+00 0.45325193E+03</pdfrwt>
<totfact> 0.46808403E+04</totfact>
</mgrwt>
</event>
<event>
 7    0  0.4770865E-002  0.4621273E+03  0.7546771E-02  0.1024166E+00
         21   -1    0    0  502  501  0.00000000000E+00  0.00000000000E+00  0.45977747277E+02  0.45977747277E+02  0.00000000000E+00 0.  1.
         21   -1    0    0  501  502 -0.00000000000E+00 -0.00000000000E+00 -0.11612227467E+04  0.11612227467E+04  0.00000000000E+00 0.  1.
      99926    2    1    2    0    0 -0.14210854715E-13  0.00000000000E+00 -0.11152449994E+04  0.12072004940E+04  0.46212728108E+03 0.  0.
      99925    2    3    3    0    0  0.10294959457E+03 -0.37628475035E+02 -0.57243182340E+03  0.63947857850E+03  0.26313521002E+03 0.  0.
         25    1    4    4    0    0  0.50547779116E+02  0.22310467799E+02 -0.27892412775E+03  0.31064290123E+03  0.12509000000E+03 0.  0.
         25    1    4    4    0    0  0.52401815458E+02 -0.59938942834E+02 -0.29350769566E+03  0.32883567727E+03  0.12509000000E+03 0.  0.
         25    1    3    3    0    0 -0.10294959457E+03  0.37628475035E+02 -0.54281317601E+03  0.56772191547E+03  0.12509000000E+03 0.  0.
<mgrwt>
<rscale>  2 0.46212728E+03</rscale>
<asrwt>0</asrwt>
<pdfrwt beam="1">  1       21 0.67614334E-02 0.46212728E+03</pdfrwt>
<pdfrwt beam="2">  1       21 0.17076805E+00 0.46212728E+03</pdfrwt>
<totfact> 0.30215872E+04</totfact>
</mgrwt>
</event>
<event>
 7    0  0.4770865E-002  0.4069592E+03  0.7546771E-02  0.1041396E+00
         21   -1    0    0  502  501  0.00000000000E+00  0.00000000000E+00  0.31820230779E+03  0.31820230779E+03  0.00000000000E+00 0.  1.
         21   -1    0    0  501  502 -0.00000000000E+00 -0.00000000000E+00 -0.13011831086E+03  0.13011831086E+03  0.00000000000E+00 0.  1.
      99926    2    1    2    0    0  0.00000000000E+00  0.11102230246E-15  0.18808399693E+03  0.44832061866E+03  0.40695919600E+03 0.  0.
      99925    2    3    3    0    0  0.29506326884E+01  0.80112235943E+00  0.60979637686E+02  0.26996038130E+03  0.26296528902E+03 0.  0.
         25    1    3    3    0    0 -0.29506326884E+01 -0.80112235943E+00  0.12710435924E+03  0.17836023735E+03  0.12509000000E+03 0.  0.
         25    1    4    4    0    0  0.63347344072E+01 -0.23875523816E+02  0.63386179936E+02  0.14239201313E+03  0.12509000000E+03 0.  0.
         25    1    4    4    0    0 -0.33841017188E+01  0.24676646176E+02 -0.24065422504E+01  0.12756836817E+03  0.12509000000E+03 0.  0.
<mgrwt>
<rscale>  2 0.40695920E+03</rscale>
<asrwt>0</asrwt>
<pdfrwt beam="1">  1       21 0.46794457E-01 0.40695920E+03</pdfrwt>
<pdfrwt beam="2">  1       21 0.19135046E-01 0.40695920E+03</pdfrwt>
<totfact> 0.10314750E+05</totfact>
</mgrwt>
</event>
<event>
 7    0  0.4770865E-002  0.4470656E+03  0.7546771E-02  0.1028601E+00
         21   -1    0    0  502  501  0.00000000000E+00  0.00000000000E+00  0.73173930835E+03  0.73173930835E+03  0.00000000000E+00 0.  1.
         21   -1    0    0  501  502 -0.00000000000E+00 -0.00000000000E+00 -0.68285127923E+02  0.68285127923E+02  0.00000000000E+00 0.  1.
      99926    2    1    2    0    0  0.00000000000E+00  0.00000000000E+00  0.66345418042E+03  0.80002443627E+03  0.44706559821E+03 0.  0.
      99925    2    3    3    0    0  0.26755654275E+02 -0.70301131124E+01  0.23826640323E+03  0.35595525078E+03  0.26299804966E+03 0.  0.
         25    1    4    4    0    0  0.39809289495E+02  0.87432039520E+01  0.83151187422E+02  0.15563692112E+03  0.12509000000E+03 0.  0.
         25    1    3    3    0    0 -0.26755654275E+02  0.70301131124E+01  0.42518777719E+03  0.44406918549E+03  0.12509000000E+03 0.  0.
         25    1    4    4    0    0 -0.13053635220E+02 -0.15773317064E+02  0.15511521581E+03  0.20031832966E+03  0.12509000000E+03 0.  0.
<mgrwt>
<rscale>  2 0.44706560E+03</rscale>
<asrwt>0</asrwt>
<pdfrwt beam="1">  1       21 0.10760872E+00 0.44706560E+03</pdfrwt>
<pdfrwt beam="2">  1       21 0.10041931E-01 0.44706560E+03</pdfrwt>
<totfact> 0.50857231E+04</totfact>
</mgrwt>
</event>
<event>
 7    0  0.4770865E-002  0.4482423E+03  0.7546771E-02  0.1028247E+00
         21   -1    0    0  502  501  0.00000000000E+00  0.00000000000E+00  0.71484333035E+02  0.71484333035E+02  0.00000000000E+00 0.  1.
         21   -1    0    0  501  502 -0.00000000000E+00 -0.00000000000E+00 -0.70267558353E+03  0.70267558353E+03  0.00000000000E+00 0.  1.
      99926    2    1    2    0    0  0.00000000000E+00  0.00000000000E+00 -0.63119125049E+03  0.77415991656E+03  0.44824232477E+03 0.  0.
      99925    2    3    3    0    0  0.56270242108E+02  0.89688329803E+02 -0.38420569840E+03  0.47774853404E+03  0.26347543802E+03 0.  0.
         25    1    3    3    0    0 -0.56270242108E+02 -0.89688329803E+02 -0.24698555209E+03  0.29641138253E+03  0.12509000000E+03 0.  0.
         25    1    4    4    0    0  0.39629118378E+02  0.52314246267E+02 -0.13233218564E+03  0.19356281368E+03  0.12509000000E+03 0.  0.
         25    1    4    4    0    0  0.16641123730E+02  0.37374083537E+02 -0.25187351277E+03  0.28418572035E+03  0.12509000000E+03 0.  0.
<mgrwt>
<rscale>  2 0.44824232E+03</rscale>
<asrwt>0</asrwt>
<pdfrwt beam="1">  1       21 0.10512402E-01 0.44824232E+03</pdfrwt>
<pdfrwt beam="2">  1       21 0.10333464E+00 0.44824232E+03</pdfrwt>
<totfact> 0.51730065E+04</totfact>
</mgrwt>
</event>
<event>
 7    0  0.4770865E-002  0.4538906E+03  0.7546771E-02  0.1026568E+00
         21   -1    0    0  502  501  0.00000000000E+00  0.00000000000E+00  0.60076306897E+02  0.60076306897E+02  0.00000000000E+00 0. -1.
         21   -1    0    0  501  502 -0.00000000000E+00 -0.00000000000E+00 -0.85731247707E+03  0.85731247707E+03  0.00000000000E+00 0. -1.
      99926    2    1    2    0    0  0.00000000000E+00  0.00000000000E+00 -0.79723617018E+03  0.91738878397E+03  0.45389059245E+03 0.  0.
      99925    2    3    3    0    0 -0.72066672190E+02  0.66503309004E+02 -0.39257865856E+03  0.48263424960E+03  0.26306181855E+03 0.  0.
         25    1    4    4    0    0 -0.48817222043E+02 -0.49723920470E+01 -0.20171960096E+03  0.24237605361E+03  0.12509000000E+03 0.  0.
         25    1    3    3    0    0  0.72066672190E+02 -0.66503309004E+02 -0.40465751162E+03  0.43475453437E+03  0.12509000000E+03 0.  0.
         25    1    4    4    0    0 -0.23249450147E+02  0.71475701050E+02 -0.19085905760E+03  0.24025819599E+03  0.12509000000E+03 0.  0.
<mgrwt>
<rscale>  2 0.45389059E+03</rscale>
<asrwt>0</asrwt>
<pdfrwt beam="1">  1       21 0.88347514E-02 0.45389059E+03</pdfrwt>
<pdfrwt beam="2">  1       21 0.12607536E+00 0.45389059E+03</pdfrwt>
<totfact> 0.42861180E+04</totfact>
</mgrwt>
</event>
<event>
 7    0  0.4770865E-002  0.4490361E+03  0.7546771E-02  0.1028010E+00
         21   -1    0    0  502  501  0.00000000000E+00  0.00000000000E+00  0.11218759600E+03  0.11218759600E+03  0.00000000000E+00 0.  1.
         21   -1    0    0  501  502 -0.00000000000E+00 -0.00000000000E+00 -0.44932203961E+03  0.44932203961E+03  0.00000000000E+00 0.  1.
      99926    2    1    2    0    0  0.00000000000E+00 -0.17763568394E-14 -0.33713444361E+03  0.56150963561E+03  0.44903612083E+03 0.  0.
      99925    2    3    3    0    0 -0.85172492146E+02  0.10158675999E+02 -0.13232575410E+03  0.30665348105E+03  0.26299942990E+03 0.  0.
         25    1    4    4    0    0 -0.24911985709E+02 -0.26792958677E+02 -0.41962555663E+02  0.13691907772E+03  0.12509000000E+03 0.  0.
         25    1    4    4    0    0 -0.60260506437E+02  0.36951634677E+02 -0.90363198437E+02  0.16973440333E+03  0.12509000000E+03 0.  0.
         25    1    3    3    0    0  0.85172492146E+02 -0.10158675999E+02 -0.20480868952E+03  0.25485615456E+03  0.12509000000E+03 0.  0.
<mgrwt>
<rscale>  2 0.44903612E+03</rscale>
<asrwt>0</asrwt>
<pdfrwt beam="1">  1       21 0.16498176E-01 0.44903612E+03</pdfrwt>
<pdfrwt beam="2">  1       21 0.66076770E-01 0.44903612E+03</pdfrwt>
<totfact> 0.64082044E+04</totfact>
</mgrwt>
</event>
<event>
 7    0  0.4770865E-002  0.4556890E+03  0.7546771E-02  0.1026039E+00
         21   -1    0    0  502  501  0.00000000000E+00  0.00000000000E+00  0.79510551335E+03  0.79510551335E+03  0.00000000000E+00 0. -1.
         21   -1    0    0  501  502 -0.00000000000E+00 -0.00000000000E+00 -0.65290841312E+02  0.65290841312E+02  0.00000000000E+00 0. -1.
      99926    2    1    2    0    0  0.00000000000E+00  0.00000000000E+00  0.72981467204E+03  0.86039635466E+03  0.45568896365E+03 0.  0.
      99925    2    3    3    0    0  0.45771856418E+02 -0.44843732213E+02  0.28143125756E+03  0.39050145403E+03  0.26302435193E+03 0.  0.
         25    1    4    4    0    0 -0.73343316155E+01 -0.42355852260E+02  0.11221594687E+03  0.17345817211E+03  0.12509000000E+03 0.  0.
         25    1    4    4    0    0  0.53106188033E+02 -0.24878799534E+01  0.16921531069E+03  0.21704328192E+03  0.12509000000E+03 0.  0.
         25    1    3    3    0    0 -0.45771856418E+02  0.44843732213E+02  0.44838341448E+03  0.46989490063E+03  0.12509000000E+03 0.  0.
<mgrwt>
<rscale>  2 0.45568896E+03</rscale>
<asrwt>0</asrwt>
<pdfrwt beam="1">  1       21 0.11692728E+00 0.45568896E+03</pdfrwt>
<pdfrwt beam="2">  1       21 0.96015948E-02 0.45568896E+03</pdfrwt>
<totfact> 0.44735565E+04</totfact>
</mgrwt>
</event>
<event>
 7    0  0.4770865E-002  0.4575566E+03  0.7546771E-02  0.1025492E+00
         21   -1    0    0  502  501  0.00000000000E+00  0.00000000000E+00  0.11969585923E+03  0.11969585923E+03  0.00000000000E+00 0. -1.
         21   -1    0    0  501  502 -0.00000000000E+00 -0.00000000000E+00 -0.43727085659E+03  0.43727085659E+03  0.00000000000E+00 0. -1.
      99926    2    1    2    0    0  0.00000000000E+00  0.00000000000E+00 -0.31757499736E+03  0.55696671583E+03  0.45755660151E+03 0.  0.
      99925    2    3    3    0    0 -0.14789352708E+02 -0.85166388613E+02 -0.29265601955E+03  0.40288718358E+03  0.26305607426E+03 0.  0.
         25    1    3    3    0    0  0.14789352708E+02  0.85166388613E+02 -0.24918977807E+02  0.15407953225E+03  0.12509000000E+03 0.  0.
         25    1    4    4    0    0  0.65385736548E+01 -0.82378454041E+01 -0.16370315993E+03  0.20629311116E+03  0.12509000000E+03 0.  0.
         25    1    4    4    0    0 -0.21327926363E+02 -0.76928543209E+02 -0.12895285963E+03  0.19659407242E+03  0.12509000000E+03 0.  0.
<mgrwt>
<rscale>  2 0.45755660E+03</rscale>
<asrwt>0</asrwt>
<pdfrwt beam="1">  1       21 0.17602332E-01 0.45755660E+03</pdfrwt>
<pdfrwt beam="2">  1       21 0.64304537E-01 0.45755660E+03</pdfrwt>
<totfact> 0.60182085E+04</totfact>
</mgrwt>
</event>
<event>
 7    0  0.4770865E-002  0.4535005E+03  0.7546771E-02  0.1026683E+00
         21   -1    0    0  502  501  0.00000000000E+00  0.00000000000E+00  0.76624873189E+03  0.76624873189E+03  0.00000000000E+00 0.  1.
         21   -1    0    0  501  502 -0.00000000000E+00 -0.00000000000E+00 -0.67100501791E+02  0.67100501791E+02  0.00000000000E+00 0.  1.
      99926    2    1    2    0    0 -0.14210854715E-13  0.00000000000E+00  0.69914823010E+03  0.83334923368E+03  0.45350049352E+03 0.  0.
      99925    2    3    3    0    0 -0.77197424643E+02 -0.19334785044E+02  0.58443051859E+03  0.64589007088E+03  0.26321412636E+03 0.  0.
         25    1    4    4    0    0  0.37091891396E+01 -0.73821443321E+01  0.25545287514E+03  0.28455567760E+03  0.12509000000E+03 0.  0.
         25    1    4    4    0    0 -0.80906613782E+02 -0.11952640712E+02  0.32897764346E+03  0.36133439328E+03  0.12509000000E+03 0.  0.
         25    1    3    3    0    0  0.77197424643E+02  0.19334785044E+02  0.11471771150E+03  0.18745916280E+03  0.12509000000E+03 0.  0.
<mgrwt>
<rscale>  2 0.45350049E+03</rscale>
<asrwt>0</asrwt>
<pdfrwt beam="1">  1       21 0.11268363E+00 0.45350049E+03</pdfrwt>
<pdfrwt beam="2">  1       21 0.98677213E-02 0.45350049E+03</pdfrwt>
<totfact> 0.46741142E+04</totfact>
</mgrwt>
</event>
<event>
 7    0  0.4770865E-002  0.4584460E+03  0.7546771E-02  0.1025233E+00
         21   -1    0    0  502  501  0.00000000000E+00  0.00000000000E+00  0.56415431200E+03  0.56415431200E+03  0.00000000000E+00 0.  1.
         21   -1    0    0  501  502 -0.00000000000E+00 -0.00000000000E+00 -0.93136193540E+02  0.93136193540E+02  0.00000000000E+00 0.  1.
      99926    2    1    2    0    0  0.00000000000E+00 -0.71054273576E-14  0.47101811846E+03  0.65729050554E+03  0.45844600637E+03 0.  0.
      99925    2    3    3    0    0 -0.87824194139E+02  0.39879975137E+02  0.19852776852E+03  0.34232701495E+03  0.26166965586E+03 0.  0.
         25    1    4    4    0    0 -0.62430185499E+02  0.31741409964E+02  0.64943600279E+02  0.15738559173E+03  0.12509000000E+03 0.  0.
         25    1    3    3    0    0  0.87824194139E+02 -0.39879975137E+02  0.27249034993E+03  0.31496349058E+03  0.12509000000E+03 0.  0.
         25    1    4    4    0    0 -0.25394008639E+02  0.81385651733E+01  0.13358416824E+03  0.18494142322E+03  0.12509000000E+03 0.  0.
<mgrwt>
<rscale>  2 0.45844601E+03</rscale>
<asrwt>0</asrwt>
<pdfrwt beam="1">  1       21 0.82963868E-01 0.45844601E+03</pdfrwt>
<pdfrwt beam="2">  1       21 0.13696499E-01 0.45844601E+03</pdfrwt>
<totfact> 0.53806024E+04</totfact>
</mgrwt>
</event>
<event>
 7    0  0.4770865E-002  0.4587248E+03  0.7546771E-02  0.1025152E+00
         21   -1    0    0  502  501  0.00000000000E+00  0.00000000000E+00  0.47842335850E+02  0.47842335850E+02  0.00000000000E+00 0.  1.
         21   -1    0    0  501  502 -0.00000000000E+00 -0.00000000000E+00 -0.10995930616E+04  0.10995930616E+04  0.00000000000E+00 0.  1.
      99926    2    1    2    0    0  0.00000000000E+00  0.00000000000E+00 -0.10517507258E+04  0.11474353975E+04  0.45872475649E+03 0.  0.
      99925    2    3    3    0    0  0.78384559942E+02  0.57364809381E+02 -0.82117155447E+03  0.86770495056E+03  0.26297204940E+03 0.  0.
         25    1    4    4    0    0  0.67212515259E+02  0.59613067336E+02 -0.42114708462E+03  0.44842347729E+03  0.12509000000E+03 0.  0.
         25    1    3    3    0    0 -0.78384559942E+02 -0.57364809381E+02 -0.23057917133E+03  0.27973044694E+03  0.12509000000E+03 0.  0.
         25    1    4    4    0    0  0.11172044683E+02 -0.22482579550E+01 -0.40002446985E+03  0.41928147326E+03  0.12509000000E+03 0.  0.
<mgrwt>
<rscale>  2 0.45872476E+03</rscale>
<asrwt>0</asrwt>
<pdfrwt beam="1">  1       21 0.70356379E-02 0.45872476E+03</pdfrwt>
<pdfrwt beam="2">  1       21 0.16170486E+00 0.45872476E+03</pdfrwt>
<totfact> 0.32902510E+04</totfact>
</mgrwt>
</event>
<event>
 7    0  0.4770865E-002  0.4428441E+03  0.7546771E-02  0.1029878E+00
         21   -1    0    0  502  501  0.00000000000E+00  0.00000000000E+00  0.33090551730E+02  0.33090551730E+02  0.00000000000E+00 0.  1.
         21   -1    0    0  501  502 -0.00000000000E+00 -0.00000000000E+00 -0.14816229677E+04  0.14816229677E+04  0.00000000000E+00 0.  1.
      99926    2    1    2    0    0  0.00000000000E+00  0.00000000000E+00 -0.14485324159E+04  0.15147135194E+04  0.44284408749E+03 0.  0.
      99925    2    3    3    0    0  0.87388188958E+02 -0.21277386332E+02 -0.76418600533E+03  0.81323868696E+03  0.26322516688E+03 0.  0.
         25    1    4    4    0    0  0.70105184842E+02  0.37236775505E+01 -0.31803072197E+03  0.34888343459E+03  0.12509000000E+03 0.  0.
         25    1    3    3    0    0 -0.87388188958E+02  0.21277386332E+02 -0.68434641059E+03  0.70147483242E+03  0.12509000000E+03 0.  0.
         25    1    4    4    0    0  0.17283004116E+02 -0.25001063883E+02 -0.44615528337E+03  0.46435525237E+03  0.12509000000E+03 0.  0.
<mgrwt>
<rscale>  2 0.44284409E+03</rscale>
<asrwt>0</asrwt>
<pdfrwt beam="1">  1       21 0.48662584E-02 0.44284409E+03</pdfrwt>
<pdfrwt beam="2">  1       21 0.21788569E+00 0.44284409E+03</pdfrwt>
<totfact> 0.25769372E+04</totfact>
</mgrwt>
</event>
<event>
 7    0  0.4770865E-002  0.4484931E+03  0.7546771E-02  0.1028172E+00
         21   -1    0    0  502  501  0.00000000000E+00  0.00000000000E+00  0.10193572755E+03  0.10193572755E+03  0.00000000000E+00 0. -1.
         21   -1    0    0  501  502 -0.00000000000E+00 -0.00000000000E+00 -0.49331590549E+03  0.49331590549E+03  0.00000000000E+00 0. -1.
      99926    2    1    2    0    0  0.35527136788E-14 -0.71054273576E-14 -0.39138017794E+03  0.59525163304E+03  0.44849310245E+03 0.  0.
      99925    2    3    3    0    0 -0.20433805010E+02 -0.57183332270E+02 -0.13152692047E+03  0.30053363665E+03  0.26331285968E+03 0.  0.
         25    1    4    4    0    0  0.17926006998E+02 -0.73120123358E+01 -0.87029548890E+02  0.15361138542E+03  0.12509000000E+03 0.  0.
         25    1    3    3    0    0  0.20433805010E+02  0.57183332270E+02 -0.25985325746E+03  0.29471799638E+03  0.12509000000E+03 0.  0.
         25    1    4    4    0    0 -0.38359812008E+02 -0.49871319934E+02 -0.44497371584E+02  0.14692225123E+03  0.12509000000E+03 0.  0.
<mgrwt>
<rscale>  2 0.44849310E+03</rscale>
<asrwt>0</asrwt>
<pdfrwt beam="1">  1       21 0.14990549E-01 0.44849310E+03</pdfrwt>
<pdfrwt beam="2">  1       21 0.72546455E-01 0.44849310E+03</pdfrwt>
<totfact> 0.62103687E+04</totfact>
</mgrwt>
</event>
<event>
 7    0  0.4770865E-002  0.4492251E+03  0.7546771E-02  0.1027953E+00
         21   -1    0    0  502  501  0.00000000000E+00  0.00000000000E+00  0.41262314272E+03  0.41262314272E+03  0.00000000000E+00 0. -1.
         21   -1    0    0  501  502 -0.00000000000E+00 -0.00000000000E+00 -0.12226847590E+03  0.12226847590E+03  0.00000000000E+00 0. -1.
      99926    2    1    2    0    0  0.00000000000E+00  0.17763568394E-14  0.29035466682E+03  0.53489161862E+03  0.44922512299E+03 0.  0.
      99925    2    3    3    0    0  0.10558471411E+03  0.14595476827E+02  0.16588626168E+03  0.32873378643E+03  0.26303325024E+03 0.  0.
         25    1    4    4    0    0  0.85713202807E+02 -0.16471186497E+02  0.76597565650E+02  0.17068318102E+03  0.12509000000E+03 0.  0.
         25    1    4    4    0    0  0.19871511299E+02  0.31066663324E+02  0.89288696028E+02  0.15805060541E+03  0.12509000000E+03 0.  0.
         25    1    3    3    0    0 -0.10558471411E+03 -0.14595476827E+02  0.12446840514E+03  0.20615783219E+03  0.12509000000E+03 0.  0.
<mgrwt>
<rscale>  2 0.44922512E+03</rscale>
<asrwt>0</asrwt>
<pdfrwt beam="1">  1       21 0.60679874E-01 0.44922512E+03</pdfrwt>
<pdfrwt beam="2">  1       21 0.17980658E-01 0.44922512E+03</pdfrwt>
<totfact> 0.65833953E+04</totfact>
</mgrwt>
</event>
<event>
 7    0  0.4770865E-002  0.4559026E+03  0.7546771E-02  0.1025976E+00
         21   -1    0    0  502  501  0.00000000000E+00  0.00000000000E+00  0.35322083556E+03  0.35322083556E+03  0.00000000000E+00 0.  1.
         21   -1    0    0  501  502 -0.00000000000E+00 -0.00000000000E+00 -0.14710854849E+03  0.14710854849E+03  0.00000000000E+00 0.  1.
      99926    2    1    2    0    0  0.00000000000E+00 -0.71054273576E-14  0.20611228708E+03  0.50032938405E+03  0.45590264055E+03 0.  0.
      99925    2    3    3    0    0  0.11057866371E+01 -0.40502568248E+02  0.12487686529E+02  0.26627880226E+03  0.26288167950E+03 0.  0.
         25    1    4    4    0    0 -0.10680646734E+01 -0.81344090668E+01  0.44711260435E+02  0.13309362976E+03  0.12509000000E+03 0.  0.
         25    1    3    3    0    0 -0.11057866371E+01  0.40502568248E+02  0.19362460055E+03  0.23405058179E+03  0.12509000000E+03 0.  0.
         25    1    4    4    0    0  0.21738513105E+01 -0.32368159181E+02 -0.32223573906E+02  0.13318517250E+03  0.12509000000E+03 0.  0.
<mgrwt>
<rscale>  2 0.45590264E+03</rscale>
<asrwt>0</asrwt>
<pdfrwt beam="1">  1       21 0.51944240E-01 0.45590264E+03</pdfrwt>
<pdfrwt beam="2">  1       21 0.21633610E-01 0.45590264E+03</pdfrwt>
<totfact> 0.64782103E+04</totfact>
</mgrwt>
</event>
<event>
 7    0  0.4770865E-002  0.4473845E+03  0.7546771E-02  0.1028505E+00
         21   -1    0    0  502  501  0.00000000000E+00  0.00000000000E+00  0.74209636158E+02  0.74209636158E+02  0.00000000000E+00 0.  1.
         21   -1    0    0  501  502 -0.00000000000E+00 -0.00000000000E+00 -0.67428203372E+03  0.67428203372E+03  0.00000000000E+00 0.  1.
      99926    2    1    2    0    0  0.00000000000E+00  0.14210854715E-13 -0.60007239756E+03  0.74849166988E+03  0.44738450751E+03 0.  0.
      99925    2    3    3    0    0 -0.88375316208E+01 -0.10518915852E+03 -0.39458809950E+03  0.48578619623E+03  0.26295550792E+03 0.  0.
         25    1    4    4    0    0  0.92232744822E+00 -0.10718321218E+02 -0.15796153667E+03  0.20177980143E+03  0.12509000000E+03 0.  0.
         25    1    4    4    0    0 -0.97598590690E+01 -0.94470837304E+02 -0.23662656283E+03  0.28400639480E+03  0.12509000000E+03 0.  0.
         25    1    3    3    0    0  0.88375316208E+01  0.10518915852E+03 -0.20548429806E+03  0.26270547365E+03  0.12509000000E+03 0.  0.
<mgrwt>
<rscale>  2 0.44738451E+03</rscale>
<asrwt>0</asrwt>
<pdfrwt beam="1">  1       21 0.10913182E-01 0.44738451E+03</pdfrwt>
<pdfrwt beam="2">  1       21 0.99159124E-01 0.44738451E+03</pdfrwt>
<totfact> 0.53477762E+04</totfact>
</mgrwt>
</event>
<event>
 7    0  0.4770865E-002  0.4578267E+03  0.7546771E-02  0.1025413E+00
         21   -1    0    0  502  501  0.00000000000E+00  0.00000000000E+00  0.26509040333E+02  0.26509040333E+02  0.00000000000E+00 0.  1.
         21   -1    0    0  501  502 -0.00000000000E+00 -0.00000000000E+00 -0.19767339200E+04  0.19767339200E+04  0.00000000000E+00 0.  1.
      99926    2    1    2    0    0  0.00000000000E+00  0.00000000000E+00 -0.19502248797E+04  0.20032429604E+04  0.45782668867E+03 0.  0.
      99925    2    3    3    0    0  0.95293064352E+02 -0.44576992156E+01 -0.92969719591E+03  0.97066129257E+03  0.26219425929E+03 0.  0.
         25    1    4    4    0    0  0.10950756412E+02  0.77782435293E+01 -0.36718084514E+03  0.38813618908E+03  0.12509000000E+03 0.  0.
         25    1    4    4    0    0  0.84342307940E+02 -0.12235942745E+02 -0.56251635077E+03  0.58252510349E+03  0.12509000000E+03 0.  0.
         25    1    3    3    0    0 -0.95293064352E+02  0.44576992156E+01 -0.10205276838E+04  0.10325816678E+04  0.12509000000E+03 0.  0.
<mgrwt>
<rscale>  2 0.45782669E+03</rscale>
<asrwt>0</asrwt>
<pdfrwt beam="1">  1       21 0.38983878E-02 0.45782669E+03</pdfrwt>
<pdfrwt beam="2">  1       21 0.29069620E+00 0.45782669E+03</pdfrwt>
<totfact> 0.13361205E+04</totfact>
</mgrwt>
</event>
<event>
 7    0  0.4770865E-002  0.4529014E+03  0.7546771E-02  0.1026860E+00
         21   -1    0    0  502  501  0.00000000000E+00  0.00000000000E+00  0.51649104205E+02  0.51649104205E+02  0.00000000000E+00 0. -1.
         21   -1    0    0  501  502 -0.00000000000E+00 -0.00000000000E+00 -0.99285195831E+03  0.99285195831E+03  0.00000000000E+00 0. -1.
      99926    2    1    2    0    0  0.00000000000E+00  0.00000000000E+00 -0.94120285410E+03  0.10445010625E+04  0.45290137670E+03 0.  0.
      99925    2    3    3    0    0  0.80812299605E+02  0.60155480160E+02 -0.70195102111E+03  0.75633746791E+03  0.26298634903E+03 0.  0.
         25    1    4    4    0    0  0.63707519144E+02  0.33690929253E+02 -0.46034487437E+03  0.48245065879E+03  0.12509000000E+03 0.  0.
         25    1    3    3    0    0 -0.80812299605E+02 -0.60155480160E+02 -0.23925183300E+03  0.28816359460E+03  0.12509000000E+03 0.  0.
         25    1    4    4    0    0  0.17104780461E+02  0.26464550907E+02 -0.24160614673E+03  0.27388680912E+03  0.12509000000E+03 0.  0.
<mgrwt>
<rscale>  2 0.45290138E+03</rscale>
<asrwt>0</asrwt>
<pdfrwt beam="1">  1       21 0.75954563E-02 0.45290138E+03</pdfrwt>
<pdfrwt beam="2">  1       21 0.14600765E+00 0.45290138E+03</pdfrwt>
<totfact> 0.38100117E+04</totfact>
</mgrwt>
</event>
<event>
 7    0  0.4770865E-002  0.4560344E+03  0.7546771E-02  0.1025938E+00
         21   -1    0    0  502  501  0.00000000000E+00  0.00000000000E+00  0.44251934340E+03  0.44251934340E+03  0.00000000000E+00 0. -1.
         21   -1    0    0  501  502 -0.00000000000E+00 -0.00000000000E+00 -0.11749057280E+03  0.11749057280E+03  0.00000000000E+00 0. -1.
      99926    2    1    2    0    0  0.71054273576E-14 -0.14210854715E-13  0.32502877060E+03  0.56000991620E+03  0.45603443349E+03 0.  0.
      99925    2    3    3    0    0  0.47904991580E+02  0.92206257905E+02  0.14778288017E+03  0.31946782843E+03  0.26348250704E+03 0.  0.
         25    1    3    3    0    0 -0.47904991580E+02 -0.92206257905E+02  0.17724589043E+03  0.24054208777E+03  0.12509000000E+03 0.  0.
         25    1    4    4    0    0  0.58292669071E+02  0.23995306109E+02  0.80491856345E+02  0.16155573967E+03  0.12509000000E+03 0.  0.
         25    1    4    4    0    0 -0.10387677492E+02  0.68210951796E+02  0.67291023821E+02  0.15791208876E+03  0.12509000000E+03 0.  0.
<mgrwt>
<rscale>  2 0.45603443E+03</rscale>
<asrwt>0</asrwt>
<pdfrwt beam="1">  1       21 0.65076373E-01 0.45603443E+03</pdfrwt>
<pdfrwt beam="2">  1       21 0.17278026E-01 0.45603443E+03</pdfrwt>
<totfact> 0.60711570E+04</totfact>
</mgrwt>
</event>
<event>
 7    0  0.4770865E-002  0.4402459E+03  0.7546771E-02  0.1030671E+00
         21   -1    0    0  502  501  0.00000000000E+00  0.00000000000E+00  0.62863208764E+02  0.62863208764E+02  0.00000000000E+00 0. -1.
         21   -1    0    0  501  502 -0.00000000000E+00 -0.00000000000E+00 -0.77078639519E+03  0.77078639519E+03  0.00000000000E+00 0. -1.
      99926    2    1    2    0    0  0.00000000000E+00  0.14210854715E-13 -0.70792318642E+03  0.83364960395E+03  0.44024586800E+03 0.  0.
      99925    2    3    3    0    0 -0.15237356634E+02  0.84354629683E+02 -0.35905101545E+03  0.45324563399E+03  0.26299447227E+03 0.  0.
         25    1    4    4    0    0 -0.77388199095E+01  0.72633761060E+02 -0.23801652849E+03  0.27863045151E+03  0.12509000000E+03 0.  0.
         25    1    3    3    0    0  0.15237356634E+02 -0.84354629683E+02 -0.34887217097E+03  0.38040396997E+03  0.12509000000E+03 0.  0.
         25    1    4    4    0    0 -0.74985367249E+01  0.11720868624E+02 -0.12103448697E+03  0.17461518247E+03  0.12509000000E+03 0.  0.
<mgrwt>
<rscale>  2 0.44024587E+03</rscale>
<asrwt>0</asrwt>
<pdfrwt beam="1">  1       21 0.92445898E-02 0.44024587E+03</pdfrwt>
<pdfrwt beam="2">  1       21 0.11335094E+00 0.44024587E+03</pdfrwt>
<totfact> 0.51935809E+04</totfact>
</mgrwt>
</event>
<event>
 7    0  0.4770865E-002  0.4532122E+03  0.7546771E-02  0.1026768E+00
         21   -1    0    0  502  501  0.00000000000E+00  0.00000000000E+00  0.94099820966E+02  0.94099820966E+02  0.00000000000E+00 0. -1.
         21   -1    0    0  501  502 -0.00000000000E+00 -0.00000000000E+00 -0.54570052552E+03  0.54570052552E+03  0.00000000000E+00 0. -1.
      99926    2    1    2    0    0  0.17763568394E-14  0.00000000000E+00 -0.45160070455E+03  0.63980034649E+03  0.45321218762E+03 0.  0.
      99925    2    3    3    0    0 -0.15748009271E+02 -0.76868762869E+02 -0.39633202607E+03  0.48213316086E+03  0.26309029518E+03 0.  0.
         25    1    4    4    0    0 -0.16845941257E+02  0.27325438510E+01 -0.17940378257E+03  0.21937291956E+03  0.12509000000E+03 0.  0.
         25    1    4    4    0    0  0.10979319857E+01 -0.79601306720E+02 -0.21692824349E+03  0.26276024131E+03  0.12509000000E+03 0.  0.
         25    1    3    3    0    0  0.15748009271E+02  0.76868762869E+02 -0.55268678486E+02  0.15766718562E+03  0.12509000000E+03 0.  0.
<mgrwt>
<rscale>  2 0.45321219E+03</rscale>
<asrwt>0</asrwt>
<pdfrwt beam="1">  1       21 0.13838209E-01 0.45321219E+03</pdfrwt>
<pdfrwt beam="2">  1       21 0.80250079E-01 0.45321219E+03</pdfrwt>
<totfact> 0.57094206E+04</totfact>
</mgrwt>
</event>
<event>
 7    0  0.4770865E-002  0.4553246E+03  0.7546771E-02  0.1026146E+00
         21   -1    0    0  502  501  0.00000000000E+00  0.00000000000E+00  0.64231419672E+03  0.64231419672E+03  0.00000000000E+00 0. -1.
         21   -1    0    0  501  502 -0.00000000000E+00 -0.00000000000E+00 -0.80692784357E+02  0.80692784357E+02  0.00000000000E+00 0. -1.
      99926    2    1    2    0    0  0.14210854715E-13  0.00000000000E+00  0.56162141237E+03  0.72300698108E+03  0.45532459176E+03 0.  0.
      99925    2    3    3    0    0 -0.86095020738E+02  0.55275403119E+02  0.43122954894E+03  0.51535999956E+03  0.26300053704E+03 0.  0.
         25    1    3    3    0    0  0.86095020738E+02 -0.55275403119E+02  0.13039186343E+03  0.20764698152E+03  0.12509000000E+03 0.  0.
         25    1    4    4    0    0 -0.65916427791E+02 -0.43191146922E+01  0.23507369757E+03  0.27435521062E+03  0.12509000000E+03 0.  0.
         25    1    4    4    0    0 -0.20178592947E+02  0.59594517811E+02  0.19615585136E+03  0.24100478894E+03  0.12509000000E+03 0.  0.
<mgrwt>
<rscale>  2 0.45532459E+03</rscale>
<asrwt>0</asrwt>
<pdfrwt beam="1">  1       21 0.94457967E-01 0.45532459E+03</pdfrwt>
<pdfrwt beam="2">  1       21 0.11866586E-01 0.45532459E+03</pdfrwt>
<totfact> 0.51539907E+04</totfact>
</mgrwt>
</event>
<event>
 7    0  0.4770865E-002  0.4891848E+03  0.7546771E-02  0.1016641E+00
         21   -1    0    0  502  501  0.00000000000E+00  0.00000000000E+00  0.17052857429E+04  0.17052857429E+04  0.00000000000E+00 0.  1.
         21   -1    0    0  501  502 -0.00000000000E+00 -0.00000000000E+00 -0.35082350689E+02  0.35082350689E+02  0.00000000000E+00 0.  1.
      99926    2    1    2    0    0  0.00000000000E+00  0.00000000000E+00  0.16702033922E+04  0.17403680936E+04  0.48918476042E+03 0.  0.
      99925    2    3    3    0    0 -0.73903603113E+02  0.13853968067E+02  0.58968524295E+03  0.65003756848E+03  0.26299520853E+03 0.  0.
         25    1    3    3    0    0  0.73903603113E+02 -0.13853968067E+02  0.10805181492E+04  0.10903305251E+04  0.12509000000E+03 0.  0.
         25    1    4    4    0    0 -0.53564744206E+02 -0.29609957805E+02  0.28547468301E+03  0.31763065684E+03  0.12509000000E+03 0.  0.
         25    1    4    4    0    0 -0.20338858907E+02  0.43463925872E+02  0.30421055993E+03  0.33240691165E+03  0.12509000000E+03 0.  0.
<mgrwt>
<rscale>  2 0.48918476E+03</rscale>
<asrwt>0</asrwt>
<pdfrwt beam="1">  1       21 0.25077726E+00 0.48918476E+03</pdfrwt>
<pdfrwt beam="2">  1       21 0.51591704E-02 0.48918476E+03</pdfrwt>
<totfact> 0.14257917E+04</totfact>
</mgrwt>
</event>
<event>
 7    0  0.4770865E-002  0.4556297E+03  0.7546771E-02  0.1026056E+00
         21   -1    0    0  502  501  0.00000000000E+00  0.00000000000E+00  0.51771467595E+03  0.51771467595E+03  0.00000000000E+00 0.  1.
         21   -1    0    0  501  502 -0.00000000000E+00 -0.00000000000E+00 -0.10024751805E+03  0.10024751805E+03  0.00000000000E+00 0.  1.
      99926    2    1    2    0    0  0.00000000000E+00  0.00000000000E+00  0.41746715790E+03  0.61796219400E+03  0.45562972389E+03 0.  0.
      99925    2    3    3    0    0 -0.85184742023E+02 -0.70151637736E+02  0.22479659827E+03  0.36311489620E+03  0.26294718994E+03 0.  0.
         25    1    4    4    0    0 -0.43845437474E+02  0.51074083702E+01  0.11837630542E+03  0.17778910482E+03  0.12509000000E+03 0.  0.
         25    1    4    4    0    0 -0.41339304549E+02 -0.75259046106E+02  0.10642029286E+03  0.18532579139E+03  0.12509000000E+03 0.  0.
         25    1    3    3    0    0  0.85184742023E+02  0.70151637736E+02  0.19267055962E+03  0.25484729780E+03  0.12509000000E+03 0.  0.
<mgrwt>
<rscale>  2 0.45562972E+03</rscale>
<asrwt>0</asrwt>
<pdfrwt beam="1">  1       21 0.76134510E-01 0.45562972E+03</pdfrwt>
<pdfrwt beam="2">  1       21 0.14742282E-01 0.45562972E+03</pdfrwt>
<totfact> 0.57300566E+04</totfact>
</mgrwt>
</event>
<event>
 7    0  0.4770865E-002  0.4463491E+03  0.7546771E-02  0.1028816E+00
         21   -1    0    0  502  501  0.00000000000E+00  0.00000000000E+00  0.61347911333E+03  0.61347911333E+03  0.00000000000E+00 0. -1.
         21   -1    0    0  501  502 -0.00000000000E+00 -0.00000000000E+00 -0.81187583819E+02  0.81187583819E+02  0.00000000000E+00 0. -1.
      99926    2    1    2    0    0  0.14210854715E-13  0.71054273576E-14  0.53229152951E+03  0.69466669715E+03  0.44634913211E+03 0.  0.
      99925    2    3    3    0    0 -0.91964937007E+02 -0.49032694304E+02  0.35231766171E+03  0.45197377195E+03  0.26323145904E+03 0.  0.
         25    1    4    4    0    0 -0.52778521028E+02 -0.82017842333E+01  0.11644605345E+03  0.17905315694E+03  0.12509000000E+03 0.  0.
         25    1    4    4    0    0 -0.39186415980E+02 -0.40830910071E+02  0.23587160826E+03  0.27292061501E+03  0.12509000000E+03 0.  0.
         25    1    3    3    0    0  0.91964937007E+02  0.49032694304E+02  0.17997386780E+03  0.24269292520E+03  0.12509000000E+03 0.  0.
<mgrwt>
<rscale>  2 0.44634913E+03</rscale>
<asrwt>0</asrwt>
<pdfrwt beam="1">  1       21 0.90217514E-01 0.44634913E+03</pdfrwt>
<pdfrwt beam="2">  1       21 0.11939351E-01 0.44634913E+03</pdfrwt>
<totfact> 0.56974905E+04</totfact>
</mgrwt>
</event>
<event>
 7    0  0.4770865E-002  0.4505897E+03  0.7546771E-02  0.1027546E+00
         21   -1    0    0  502  501  0.00000000000E+00  0.00000000000E+00  0.12087392618E+03  0.12087392618E+03  0.00000000000E+00 0. -1.
         21   -1    0    0  501  502 -0.00000000000E+00 -0.00000000000E+00 -0.41992321743E+03  0.41992321743E+03  0.00000000000E+00 0. -1.
      99926    2    1    2    0    0  0.71054273576E-14  0.00000000000E+00 -0.29904929125E+03  0.54079714361E+03  0.45058969356E+03 0.  0.
      99925    2    3    3    0    0  0.52429719755E+02 -0.94601680255E+02 -0.17249918381E+03  0.33256460242E+03  0.26295416510E+03 0.  0.
         25    1    4    4    0    0  0.11668137294E+02 -0.50709781583E+02 -0.12935309539E+03  0.18731619995E+03  0.12509000000E+03 0.  0.
         25    1    3    3    0    0 -0.52429719755E+02  0.94601680255E+02 -0.12655010744E+03  0.20823254120E+03  0.12509000000E+03 0.  0.
         25    1    4    4    0    0  0.40761582460E+02 -0.43891898672E+02 -0.43146088416E+02  0.14524840247E+03  0.12509000000E+03 0.  0.
<mgrwt>
<rscale>  2 0.45058969E+03</rscale>
<asrwt>0</asrwt>
<pdfrwt beam="1">  1       21 0.17775577E-01 0.45058969E+03</pdfrwt>
<pdfrwt beam="2">  1       21 0.61753415E-01 0.45058969E+03</pdfrwt>
<totfact> 0.64707790E+04</totfact>
</mgrwt>
</event>
<event>
 7    0  0.4770865E-002  0.4559830E+03  0.7546771E-02  0.1025953E+00
         21   -1    0    0  502  501  0.00000000000E+00  0.00000000000E+00  0.62058892327E+02  0.62058892327E+02  0.00000000000E+00 0.  1.
         21   -1    0    0  501  502 -0.00000000000E+00 -0.00000000000E+00 -0.83759339796E+03  0.83759339796E+03  0.00000000000E+00 0.  1.
      99926    2    1    2    0    0  0.00000000000E+00  0.35527136788E-14 -0.77553450563E+03  0.89965229029E+03  0.45598297555E+03 0.  0.
      99925    2    3    3    0    0  0.17797043626E+02 -0.17118823579E+02 -0.70728579848E+03  0.75503146533E+03  0.26307703059E+03 0.  0.
         25    1    3    3    0    0 -0.17797043626E+02  0.17118823579E+02 -0.68248707152E+02  0.14462082495E+03  0.12509000000E+03 0.  0.
         25    1    4    4    0    0  0.71125977213E+01 -0.29537686406E+02 -0.25743420486E+03  0.28782449843E+03  0.12509000000E+03 0.  0.
         25    1    4    4    0    0  0.10684445904E+02  0.12418862827E+02 -0.44985159362E+03  0.46720696690E+03  0.12509000000E+03 0.  0.
<mgrwt>
<rscale>  2 0.45598298E+03</rscale>
<asrwt>0</asrwt>
<pdfrwt beam="1">  1       21 0.91263078E-02 0.45598298E+03</pdfrwt>
<pdfrwt beam="2">  1       21 0.12317550E+00 0.45598298E+03</pdfrwt>
<totfact> 0.42917466E+04</totfact>
</mgrwt>
</event>
<event>
 7    0  0.4770865E-002  0.4526743E+03  0.7546771E-02  0.1026928E+00
         21   -1    0    0  502  501  0.00000000000E+00  0.00000000000E+00  0.16237698227E+03  0.16237698227E+03  0.00000000000E+00 0.  1.
         21   -1    0    0  501  502 -0.00000000000E+00 -0.00000000000E+00 -0.31549113341E+03  0.31549113341E+03  0.00000000000E+00 0.  1.
      99926    2    1    2    0    0 -0.88817841970E-15  0.00000000000E+00 -0.15311415113E+03  0.47786811568E+03  0.45267426778E+03 0.  0.
      99925    2    3    3    0    0  0.74379133334E+01 -0.99895136546E+02 -0.46277212773E+02  0.28526489567E+03  0.26305915574E+03 0.  0.
         25    1    4    4    0    0 -0.29107185524E+02 -0.63438528883E+02 -0.33047027013E+01  0.14328330104E+03  0.12509000000E+03 0.  0.
         25    1    3    3    0    0 -0.74379133334E+01  0.99895136546E+02 -0.10683693836E+03  0.19260322001E+03  0.12509000000E+03 0.  0.
         25    1    4    4    0    0  0.36545098858E+02 -0.36456607662E+02 -0.42972510072E+02  0.14198159463E+03  0.12509000000E+03 0.  0.
<mgrwt>
<rscale>  2 0.45267427E+03</rscale>
<asrwt>0</asrwt>
<pdfrwt beam="1">  1       21 0.23878968E-01 0.45267427E+03</pdfrwt>
<pdfrwt beam="2">  1       21 0.46395754E-01 0.45267427E+03</pdfrwt>
<totfact> 0.68104149E+04</totfact>
</mgrwt>
</event>
<event>
 7    0  0.4770865E-002  0.4540101E+03  0.7546771E-02  0.1026533E+00
         21   -1    0    0  502  501  0.00000000000E+00  0.00000000000E+00  0.36750855802E+03  0.36750855802E+03  0.00000000000E+00 0. -1.
         21   -1    0    0  501  502 -0.00000000000E+00 -0.00000000000E+00 -0.14021792132E+03  0.14021792132E+03  0.00000000000E+00 0. -1.
      99926    2    1    2    0    0  0.00000000000E+00  0.00000000000E+00  0.22729063670E+03  0.50772647934E+03  0.45401007069E+03 0.  0.
      99925    2    3    3    0    0  0.17968293379E+02  0.10948597388E+03  0.12405008613E+03  0.31121653703E+03  0.26297770059E+03 0.  0.
         25    1    4    4    0    0 -0.24155817081E+01  0.12469038037E+02  0.50965919572E+02  0.13566998564E+03  0.12509000000E+03 0.  0.
         25    1    3    3    0    0 -0.17968293379E+02 -0.10948597388E+03  0.10324055057E+03  0.19650994231E+03  0.12509000000E+03 0.  0.
         25    1    4    4    0    0  0.20383875087E+02  0.97016935846E+02  0.73084166559E+02  0.17554655139E+03  0.12509000000E+03 0.  0.
<mgrwt>
<rscale>  2 0.45401007E+03</rscale>
<asrwt>0</asrwt>
<pdfrwt beam="1">  1       21 0.54045376E-01 0.45401007E+03</pdfrwt>
<pdfrwt beam="2">  1       21 0.20620283E-01 0.45401007E+03</pdfrwt>
<totfact> 0.65242276E+04</totfact>
</mgrwt>
</event>
<event>
 7    0  0.4770865E-002  0.4567637E+03  0.7546771E-02  0.1025724E+00
         21   -1    0    0  502  501  0.00000000000E+00  0.00000000000E+00  0.67169792005E+03  0.67169792005E+03  0.00000000000E+00 0.  1.
         21   -1    0    0  501  502 -0.00000000000E+00 -0.00000000000E+00 -0.77651384330E+02  0.77651384330E+02  0.00000000000E+00 0.  1.
      99926    2    1    2    0    0  0.00000000000E+00 -0.14210854715E-13  0.59404653572E+03  0.74934930438E+03  0.45676371723E+03 0.  0.
      99925    2    3    3    0    0  0.18877927219E+02  0.11214234624E+03  0.34837381831E+03  0.45112979775E+03  0.26309978179E+03 0.  0.
         25    1    4    4    0    0  0.22518309244E+02  0.47240302273E+02  0.23025181102E+03  0.26721176057E+03  0.12509000000E+03 0.  0.
         25    1    3    3    0    0 -0.18877927219E+02 -0.11214234624E+03  0.24567271741E+03  0.29821950663E+03  0.12509000000E+03 0.  0.
         25    1    4    4    0    0 -0.36403820257E+01  0.64902043968E+02  0.11812200729E+03  0.18391803718E+03  0.12509000000E+03 0.  0.
<mgrwt>
<rscale>  2 0.45676372E+03</rscale>
<asrwt>0</asrwt>
<pdfrwt beam="1">  1       21 0.98779103E-01 0.45676372E+03</pdfrwt>
<pdfrwt beam="2">  1       21 0.11419322E-01 0.45676372E+03</pdfrwt>
<totfact> 0.49612828E+04</totfact>
</mgrwt>
</event>
<event>
 7    0  0.4770865E-002  0.4518491E+03  0.7546771E-02  0.1027172E+00
         21   -1    0    0  502  501  0.00000000000E+00  0.00000000000E+00  0.11488718088E+03  0.11488718088E+03  0.00000000000E+00 0.  1.
         21   -1    0    0  501  502 -0.00000000000E+00 -0.00000000000E+00 -0.44427841543E+03  0.44427841543E+03  0.00000000000E+00 0.  1.
      99926    2    1    2    0    0  0.00000000000E+00  0.14210854715E-13 -0.32939123455E+03  0.55916559632E+03  0.45184906629E+03 0.  0.
      99925    2    3    3    0    0 -0.12413023695E+02  0.10757191272E+03 -0.23340971045E+03  0.36789155042E+03  0.26294162922E+03 0.  0.
         25    1    4    4    0    0 -0.35593011260E+02  0.33834012871E+02 -0.13790731461E+03  0.19255528661E+03  0.12509000000E+03 0.  0.
         25    1    3    3    0    0  0.12413023695E+02 -0.10757191272E+03 -0.95981524106E+02  0.19127404589E+03  0.12509000000E+03 0.  0.
         25    1    4    4    0    0  0.23179987566E+02  0.73737899848E+02 -0.95502395835E+02  0.17533626381E+03  0.12509000000E+03 0.  0.
<mgrwt>
<rscale>  2 0.45184907E+03</rscale>
<asrwt>0</asrwt>
<pdfrwt beam="1">  1       21 0.16895174E-01 0.45184907E+03</pdfrwt>
<pdfrwt beam="2">  1       21 0.65335061E-01 0.45184907E+03</pdfrwt>
<totfact> 0.62815913E+04</totfact>
</mgrwt>
</event>
<event>
 7    0  0.4770865E-002  0.4499003E+03  0.7546771E-02  0.1027752E+00
         21   -1    0    0  502  501  0.00000000000E+00  0.00000000000E+00  0.66396837307E+03  0.66396837307E+03  0.00000000000E+00 0.  1.
         21   -1    0    0  501  502 -0.00000000000E+00 -0.00000000000E+00 -0.76212306746E+02  0.76212306746E+02  0.00000000000E+00 0.  1.
      99926    2    1    2    0    0 -0.17763568394E-14  0.00000000000E+00  0.58775606633E+03  0.74018067982E+03  0.44990026147E+03 0.  0.
      99925    2    3    3    0    0 -0.14009143672E+02  0.87369912403E+02  0.47415671563E+03  0.54943981299E+03  0.26311548685E+03 0.  0.
         25    1    4    4    0    0 -0.91247236744E+01  0.27538391841E+02  0.30315191402E+03  0.32922669193E+03  0.12509000000E+03 0.  0.
         25    1    4    4    0    0 -0.48844199972E+01  0.59831520562E+02  0.17100480161E+03  0.22021312106E+03  0.12509000000E+03 0.  0.
         25    1    3    3    0    0  0.14009143672E+02 -0.87369912403E+02  0.11359935069E+03  0.19074086683E+03  0.12509000000E+03 0.  0.
<mgrwt>
<rscale>  2 0.44990026E+03</rscale>
<asrwt>0</asrwt>
<pdfrwt beam="1">  1       21 0.97642405E-01 0.44990026E+03</pdfrwt>
<pdfrwt beam="2">  1       21 0.11207693E-01 0.44990026E+03</pdfrwt>
<totfact> 0.52862770E+04</totfact>
</mgrwt>
</event>
<event>
 7    0  0.4770865E-002  0.4076534E+03  0.7546771E-02  0.1041161E+00
         21   -1    0    0  502  501  0.00000000000E+00  0.00000000000E+00  0.49247862422E+02  0.49247862422E+02  0.00000000000E+00 0. -1.
         21   -1    0    0  501  502 -0.00000000000E+00 -0.00000000000E+00 -0.84359645149E+03  0.84359645149E+03  0.00000000000E+00 0. -1.
      99926    2    1    2    0    0  0.00000000000E+00  0.00000000000E+00 -0.79434858906E+03  0.89284431391E+03  0.40765339190E+03 0.  0.
      99925    2    3    3    0    0 -0.38421867581E+02  0.34215907306E+02 -0.58757344486E+03  0.64576044843E+03  0.26290118947E+03 0.  0.
         25    1    4    4    0    0 -0.32321493535E+02 -0.20974147805E+02 -0.29761625762E+03  0.32512695785E+03  0.12509000000E+03 0.  0.
         25    1    3    3    0    0  0.38421867581E+02 -0.34215907306E+02 -0.20677514420E+03  0.24708386548E+03  0.12509000000E+03 0.  0.
         25    1    4    4    0    0 -0.61003740464E+01  0.55190055111E+02 -0.28995718724E+03  0.32063349057E+03  0.12509000000E+03 0.  0.
<mgrwt>
<rscale>  2 0.40765339E+03</rscale>
<asrwt>0</asrwt>
<pdfrwt beam="1">  1       21 0.72423335E-02 0.40765339E+03</pdfrwt>
<pdfrwt beam="2">  1       21 0.12405829E+00 0.40765339E+03</pdfrwt>
<totfact> 0.64246719E+04</totfact>
</mgrwt>
</event>
<event>
 7    0  0.4770865E-002  0.4559395E+03  0.7546771E-02  0.1025965E+00
         21   -1    0    0  502  501  0.00000000000E+00  0.00000000000E+00  0.73835743806E+02  0.73835743806E+02  0.00000000000E+00 0.  1.
         21   -1    0    0  501  502 -0.00000000000E+00 -0.00000000000E+00 -0.70386247986E+03  0.70386247986E+03  0.00000000000E+00 0.  1.
      99926    2    1    2    0    0 -0.71054273576E-14  0.00000000000E+00 -0.63002673606E+03  0.77769822367E+03  0.45593951238E+03 0.  0.
      99925    2    3    3    0    0 -0.52434821647E+02  0.91266007101E+02 -0.32115961793E+03  0.42823392029E+03  0.26298649343E+03 0.  0.
         25    1    4    4    0    0  0.14802751587E+02  0.44834636404E+02 -0.15865684453E+03  0.20748197148E+03  0.12509000000E+03 0.  0.
         25    1    3    3    0    0  0.52434821647E+02 -0.91266007101E+02 -0.30886711813E+03  0.34946430338E+03  0.12509000000E+03 0.  0.
         25    1    4    4    0    0 -0.67237573234E+02  0.46431370697E+02 -0.16250277340E+03  0.22075194881E+03  0.12509000000E+03 0.  0.
<mgrwt>
<rscale>  2 0.45593951E+03</rscale>
<asrwt>0</asrwt>
<pdfrwt beam="1">  1       21 0.10858198E-01 0.45593951E+03</pdfrwt>
<pdfrwt beam="2">  1       21 0.10350918E+00 0.45593951E+03</pdfrwt>
<totfact> 0.48503785E+04</totfact>
</mgrwt>
</event>
<event>
 7    0  0.4770865E-002  0.4584559E+03  0.7546771E-02  0.1025230E+00
         21   -1    0    0  502  501  0.00000000000E+00  0.00000000000E+00  0.14016221734E+03  0.14016221734E+03  0.00000000000E+00 0. -1.
         21   -1    0    0  501  502 -0.00000000000E+00 -0.00000000000E+00 -0.37489031609E+03  0.37489031609E+03  0.00000000000E+00 0. -1.
      99926    2    1    2    0    0  0.00000000000E+00  0.14210854715E-13 -0.23472809876E+03  0.51505253343E+03  0.45845592138E+03 0.  0.
      99925    2    3    3    0    0  0.75381348694E+02 -0.66790344530E+02 -0.82160082033E+02  0.29353999274E+03  0.26319603038E+03 0.  0.
         25    1    3    3    0    0 -0.75381348694E+02  0.66790344530E+02 -0.15256801672E+03  0.22151254068E+03  0.12509000000E+03 0.  0.
         25    1    4    4    0    0  0.42474634849E+02  0.55902149179E+01 -0.24358108616E+02  0.13444765027E+03  0.12509000000E+03 0.  0.
         25    1    4    4    0    0  0.32906713845E+02 -0.72380559448E+02 -0.57801973416E+02  0.15909234247E+03  0.12509000000E+03 0.  0.
<mgrwt>
<rscale>  2 0.45845592E+03</rscale>
<asrwt>0</asrwt>
<pdfrwt beam="1">  1       21 0.20612091E-01 0.45845592E+03</pdfrwt>
<pdfrwt beam="2">  1       21 0.55130928E-01 0.45845592E+03</pdfrwt>
<totfact> 0.62494047E+04</totfact>
</mgrwt>
</event>
<event>
 7    0  0.4770865E-002  0.4543763E+03  0.7546771E-02  0.1026425E+00
         21   -1    0    0  502  501  0.00000000000E+00  0.00000000000E+00  0.40219343539E+03  0.40219343539E+03  0.00000000000E+00 0.  1.
         21   -1    0    0  501  502 -0.00000000000E+00 -0.00000000000E+00 -0.12833240706E+03  0.12833240706E+03  0.00000000000E+00 0.  1.
      99926    2    1    2    0    0  0.00000000000E+00  0.14210854715E-13  0.27386102833E+03  0.53052584246E+03  0.45437628314E+03 0.  0.
      99925    2    3    3    0    0  0.36871006039E+02 -0.91501247919E+02  0.10889399185E+03  0.30119293884E+03  0.26292077797E+03 0.  0.
         25    1    4    4    0    0  0.21189703238E+02 -0.25039170059E+02  0.89716965900E+02  0.15739315624E+03  0.12509000000E+03 0.  0.
         25    1    3    3    0    0 -0.36871006039E+02  0.91501247919E+02  0.16496703648E+03  0.22933290362E+03  0.12509000000E+03 0.  0.
         25    1    4    4    0    0  0.15681302801E+02 -0.66462077859E+02  0.19177025946E+02  0.14379978260E+03  0.12509000000E+03 0.  0.
<mgrwt>
<rscale>  2 0.45437628E+03</rscale>
<asrwt>0</asrwt>
<pdfrwt beam="1">  1       21 0.59146093E-01 0.45437628E+03</pdfrwt>
<pdfrwt beam="2">  1       21 0.18872413E-01 0.45437628E+03</pdfrwt>
<totfact> 0.63484186E+04</totfact>
</mgrwt>
</event>
<event>
 7    0  0.4770865E-002  0.4267115E+03  0.7546771E-02  0.1034904E+00
         21   -1    0    0  502  501  0.00000000000E+00  0.00000000000E+00  0.15774995476E+03  0.15774995476E+03  0.00000000000E+00 0.  1.
         21   -1    0    0  501  502 -0.00000000000E+00 -0.00000000000E+00 -0.28856226758E+03  0.28856226758E+03  0.00000000000E+00 0.  1.
      99926    2    1    2    0    0  0.00000000000E+00  0.00000000000E+00 -0.13081231282E+03  0.44631222233E+03  0.42671154029E+03 0.  0.
      99925    2    3    3    0    0  0.74151510985E+01 -0.50345403242E+02 -0.15442803807E+03  0.30921789469E+03  0.26301719213E+03 0.  0.
         25    1    3    3    0    0 -0.74151510985E+01  0.50345403242E+02  0.23615725256E+02  0.13709432765E+03  0.12509000000E+03 0.  0.
         25    1    4    4    0    0  0.24987664925E+02 -0.55334025300E+02 -0.60057058242E+02  0.15146153340E+03  0.12509000000E+03 0.  0.
         25    1    4    4    0    0 -0.17572513827E+02  0.49886220577E+01 -0.94370979833E+02  0.15775636129E+03  0.12509000000E+03 0.  0.
<mgrwt>
<rscale>  2 0.42671154E+03</rscale>
<asrwt>0</asrwt>
<pdfrwt beam="1">  1       21 0.23198523E-01 0.42671154E+03</pdfrwt>
<pdfrwt beam="2">  1       21 0.42435627E-01 0.42671154E+03</pdfrwt>
<totfact> 0.87231404E+04</totfact>
</mgrwt>
</event>
<event>
 7    0  0.4770865E-002  0.4386115E+03  0.7546771E-02  0.1031174E+00
         21   -1    0    0  502  501  0.00000000000E+00  0.00000000000E+00  0.54223738581E+03  0.54223738581E+03  0.00000000000E+00 0.  1.
         21   -1    0    0  501  502 -0.00000000000E+00 -0.00000000000E+00 -0.88697350509E+02  0.88697350509E+02  0.00000000000E+00 0.  1.
      99926    2    1    2    0    0  0.00000000000E+00  0.71054273576E-14  0.45354003530E+03  0.63093473632E+03  0.43861153413E+03 0.  0.
      99925    2    3    3    0    0  0.80715147295E+02 -0.43709885264E+02  0.24486957117E+03  0.37090327712E+03  0.26302593983E+03 0.  0.
         25    1    3    3    0    0 -0.80715147295E+02  0.43709885264E+02  0.20867046414E+03  0.26003145921E+03  0.12509000000E+03 0.  0.
         25    1    4    4    0    0  0.66783261545E+02  0.81433121868E+01  0.11483198968E+03  0.18264777992E+03  0.12509000000E+03 0.  0.
         25    1    4    4    0    0  0.13931885750E+02 -0.51853197451E+02  0.13003758148E+03  0.18825549720E+03  0.12509000000E+03 0.  0.
<mgrwt>
<rscale>  2 0.43861153E+03</rscale>
<asrwt>0</asrwt>
<pdfrwt beam="1">  1       21 0.79740791E-01 0.43861153E+03</pdfrwt>
<pdfrwt beam="2">  1       21 0.13043728E-01 0.43861153E+03</pdfrwt>
<totfact> 0.64797040E+04</totfact>
</mgrwt>
</event>
<event>
 7    0  0.4770865E-002  0.4549524E+03  0.7546771E-02  0.1026255E+00
         21   -1    0    0  502  501  0.00000000000E+00  0.00000000000E+00  0.82524314801E+02  0.82524314801E+02  0.00000000000E+00 0. -1.
         21   -1    0    0  501  502 -0.00000000000E+00 -0.00000000000E+00 -0.62703231477E+03  0.62703231477E+03  0.00000000000E+00 0. -1.
      99926    2    1    2    0    0  0.00000000000E+00  0.00000000000E+00 -0.54450799996E+03  0.70955662957E+03  0.45495235853E+03 0.  0.
      99925    2    3    3    0    0 -0.13686816112E+02 -0.10606060029E+03 -0.40042694688E+03  0.49082611540E+03  0.26293032519E+03 0.  0.
         25    1    3    3    0    0  0.13686816112E+02  0.10606060029E+03 -0.14408105308E+03  0.21873051416E+03  0.12509000000E+03 0.  0.
         25    1    4    4    0    0 -0.31624646418E+02 -0.87860056862E+02 -0.21471931385E+03  0.26546449799E+03  0.12509000000E+03 0.  0.
         25    1    4    4    0    0  0.17937830307E+02 -0.18200543425E+02 -0.18570763303E+03  0.22536161741E+03  0.12509000000E+03 0.  0.
<mgrwt>
<rscale>  2 0.45495236E+03</rscale>
<asrwt>0</asrwt>
<pdfrwt beam="1">  1       21 0.12135929E-01 0.45495236E+03</pdfrwt>
<pdfrwt beam="2">  1       21 0.92210635E-01 0.45495236E+03</pdfrwt>
<totfact> 0.52406814E+04</totfact>
</mgrwt>
</event>
<event>
 7    0  0.4770865E-002  0.4549151E+03  0.7546771E-02  0.1026266E+00
         21   -1    0    0  502  501  0.00000000000E+00  0.00000000000E+00  0.99860173273E+02  0.99860173273E+02  0.00000000000E+00 0. -1.
         21   -1    0    0  501  502 -0.00000000000E+00 -0.00000000000E+00 -0.51809374960E+03  0.51809374960E+03  0.00000000000E+00 0. -1.
      99926    2    1    2    0    0  0.71054273576E-14 -0.14210854715E-13 -0.41823357632E+03  0.61795392287E+03  0.45491507606E+03 0.  0.
      99925    2    3    3    0    0  0.55726543545E+02 -0.97434913097E+02 -0.28322936446E+03  0.40237874975E+03  0.26285124198E+03 0.  0.
         25    1    4    4    0    0  0.36276212876E+02 -0.35640037888E+02 -0.86309429969E+02  0.16025917048E+03  0.12509000000E+03 0.  0.
         25    1    4    4    0    0  0.19450330668E+02 -0.61794875209E+02 -0.19691993449E+03  0.24211957927E+03  0.12509000000E+03 0.  0.
         25    1    3    3    0    0 -0.55726543545E+02  0.97434913097E+02 -0.13500421187E+03  0.21557517312E+03  0.12509000000E+03 0.  0.
<mgrwt>
<rscale>  2 0.45491508E+03</rscale>
<asrwt>0</asrwt>
<pdfrwt beam="1">  1       21 0.14685320E-01 0.45491508E+03</pdfrwt>
<pdfrwt beam="2">  1       21 0.76190257E-01 0.45491508E+03</pdfrwt>
<totfact> 0.57625184E+04</totfact>
</mgrwt>
</event>
<event>
 7    0  0.4770865E-002  0.4539701E+03  0.7546771E-02  0.1026545E+00
         21   -1    0    0  502  501  0.00000000000E+00  0.00000000000E+00  0.83345668988E+02  0.83345668988E+02  0.00000000000E+00 0. -1.
         21   -1    0    0  501  502 -0.00000000000E+00 -0.00000000000E+00 -0.61817495041E+03  0.61817495041E+03  0.00000000000E+00 0. -1.
      99926    2    1    2    0    0  0.00000000000E+00  0.00000000000E+00 -0.53482928142E+03  0.70152061940E+03  0.45397006418E+03 0.  0.
      99925    2    3    3    0    0 -0.89807104572E+02 -0.13162143255E+02 -0.43886812795E+03  0.51960138149E+03  0.26294829124E+03 0.  0.
         25    1    4    4    0    0 -0.71467542971E+02  0.61341696131E+00 -0.17490420929E+03  0.22659871250E+03  0.12509000000E+03 0.  0.
         25    1    4    4    0    0 -0.18339561601E+02 -0.13775560216E+02 -0.26396391866E+03  0.29300266898E+03  0.12509000000E+03 0.  0.
         25    1    3    3    0    0  0.89807104572E+02  0.13162143255E+02 -0.95961153468E+02  0.18191923791E+03  0.12509000000E+03 0.  0.
<mgrwt>
<rscale>  2 0.45397006E+03</rscale>
<asrwt>0</asrwt>
<pdfrwt beam="1">  1       21 0.12256716E-01 0.45397006E+03</pdfrwt>
<pdfrwt beam="2">  1       21 0.90908079E-01 0.45397006E+03</pdfrwt>
<totfact> 0.53250760E+04</totfact>
</mgrwt>
</event>
<event>
 7    0  0.4770865E-002  0.4585445E+03  0.7546771E-02  0.1025204E+00
         21   -1    0    0  502  501  0.00000000000E+00  0.00000000000E+00  0.27520578866E+03  0.27520578866E+03  0.00000000000E+00 0.  1.
         21   -1    0    0  501  502 -0.00000000000E+00 -0.00000000000E+00 -0.19100533049E+03  0.19100533049E+03  0.00000000000E+00 0.  1.
      99926    2    1    2    0    0  0.00000000000E+00  0.14210854715E-13  0.84200458171E+02  0.46621111915E+03  0.45854453487E+03 0.  0.
      99925    2    3    3    0    0  0.28978475041E+02 -0.11282495734E+03  0.53466462982E+02  0.29254100205E+03  0.26296834828E+03 0.  0.
         25    1    4    4    0    0  0.26578657333E+02 -0.87288887192E+02  0.19421085337E+01  0.15484526063E+03  0.12509000000E+03 0.  0.
         25    1    3    3    0    0 -0.28978475041E+02  0.11282495734E+03  0.30733995189E+02  0.17367011710E+03  0.12509000000E+03 0.  0.
         25    1    4    4    0    0  0.23998177075E+01 -0.25536070148E+02  0.51524354448E+02  0.13769574142E+03  0.12509000000E+03 0.  0.
<mgrwt>
<rscale>  2 0.45854453E+03</rscale>
<asrwt>0</asrwt>
<pdfrwt beam="1">  1       21 0.40471440E-01 0.45854453E+03</pdfrwt>
<pdfrwt beam="2">  1       21 0.28089019E-01 0.45854453E+03</pdfrwt>
<totfact> 0.65845390E+04</totfact>
</mgrwt>
</event>
<event>
 7    0  0.4770865E-002  0.4027821E+03  0.7546771E-02  0.1042821E+00
         21   -1    0    0  502  501  0.00000000000E+00  0.00000000000E+00  0.11869672438E+04  0.11869672438E+04  0.00000000000E+00 0.  1.
         21   -1    0    0  501  502 -0.00000000000E+00 -0.00000000000E+00 -0.34169740741E+02  0.34169740741E+02  0.00000000000E+00 0.  1.
      99926    2    1    2    0    0 -0.71054273576E-14 -0.35527136788E-14  0.11527975030E+04  0.12211369845E+04  0.40278213956E+03 0.  0.
      99925    2    3    3    0    0  0.43156153146E+02  0.22355387383E+02  0.80932720637E+03  0.85238019517E+03  0.26301949214E+03 0.  0.
         25    1    3    3    0    0 -0.43156153146E+02 -0.22355387383E+02  0.34347029668E+03  0.36875678936E+03  0.12509000000E+03 0.  0.
         25    1    4    4    0    0  0.91121775065E+01 -0.17410713337E+02  0.30739642070E+03  0.33245485750E+03  0.12509000000E+03 0.  0.
         25    1    4    4    0    0  0.34043975639E+02  0.39766100720E+02  0.50193078567E+03  0.51992533766E+03  0.12509000000E+03 0.  0.
<mgrwt>
<rscale>  2 0.40278214E+03</rscale>
<asrwt>0</asrwt>
<pdfrwt beam="1">  1       21 0.17455398E+00 0.40278214E+03</pdfrwt>
<pdfrwt beam="2">  1       21 0.50249626E-02 0.40278214E+03</pdfrwt>
<totfact> 0.48362697E+04</totfact>
</mgrwt>
</event>
<event>
 7    0  0.4770865E-002  0.4465855E+03  0.7546771E-02  0.1028745E+00
         21   -1    0    0  502  501  0.00000000000E+00  0.00000000000E+00  0.10276156531E+03  0.10276156531E+03  0.00000000000E+00 0. -1.
         21   -1    0    0  501  502 -0.00000000000E+00 -0.00000000000E+00 -0.48519750131E+03  0.48519750131E+03  0.00000000000E+00 0. -1.
      99926    2    1    2    0    0  0.00000000000E+00  0.00000000000E+00 -0.38243593600E+03  0.58795906662E+03  0.44658551127E+03 0.  0.
      99925    2    3    3    0    0  0.75219402227E+02  0.72742138974E+02 -0.23132994854E+03  0.36563069506E+03  0.26310241889E+03 0.  0.
         25    1    4    4    0    0  0.10717393789E+02  0.19493885826E+02 -0.70176183011E+02  0.14514502705E+03  0.12509000000E+03 0.  0.
         25    1    3    3    0    0 -0.75219402227E+02 -0.72742138974E+02 -0.15110598747E+03  0.22232837156E+03  0.12509000000E+03 0.  0.
         25    1    4    4    0    0  0.64502008438E+02  0.53248253148E+02 -0.16115376553E+03  0.22048566801E+03  0.12509000000E+03 0.  0.
<mgrwt>
<rscale>  2 0.44658551E+03</rscale>
<asrwt>0</asrwt>
<pdfrwt beam="1">  1       21 0.15111995E-01 0.44658551E+03</pdfrwt>
<pdfrwt beam="2">  1       21 0.71352574E-01 0.44658551E+03</pdfrwt>
<totfact> 0.63547603E+04</totfact>
</mgrwt>
</event>
<event>
 7    0  0.4770865E-002  0.4630484E+03  0.7546771E-02  0.1023901E+00
         21   -1    0    0  502  501  0.00000000000E+00  0.00000000000E+00  0.13237220431E+04  0.13237220431E+04  0.00000000000E+00 0. -1.
         21   -1    0    0  501  502 -0.00000000000E+00 -0.00000000000E+00 -0.40494499889E+02  0.40494499889E+02  0.00000000000E+00 0. -1.
      99926    2    1    2    0    0  0.00000000000E+00  0.00000000000E+00  0.12832275432E+04  0.13642165430E+04  0.46304842998E+03 0.  0.
      99925    2    3    3    0    0  0.93245783485E+02 -0.73860118652E+02  0.85991710527E+03  0.90706303678E+03  0.26297496364E+03 0.  0.
         25    1    3    3    0    0 -0.93245783485E+02  0.73860118652E+02  0.42331043793E+03  0.45715350619E+03  0.12509000000E+03 0.  0.
         25    1    4    4    0    0  0.43545898907E+02 -0.65913847845E+02  0.35838188095E+03  0.38771892054E+03  0.12509000000E+03 0.  0.
         25    1    4    4    0    0  0.49699884578E+02 -0.79462708067E+01  0.50153522432E+03  0.51934411624E+03  0.12509000000E+03 0.  0.
<mgrwt>
<rscale>  2 0.46304843E+03</rscale>
<asrwt>0</asrwt>
<pdfrwt beam="1">  1       21 0.19466498E+00 0.46304843E+03</pdfrwt>
<pdfrwt beam="2">  1       21 0.59550744E-02 0.46304843E+03</pdfrwt>
<totfact> 0.25658336E+04</totfact>
</mgrwt>
</event>
<event>
 7    0  0.4770865E-002  0.4566626E+03  0.7546771E-02  0.1025754E+00
         21   -1    0    0  502  501  0.00000000000E+00  0.00000000000E+00  0.92022026151E+03  0.92022026151E+03  0.00000000000E+00 0. -1.
         21   -1    0    0  501  502 -0.00000000000E+00 -0.00000000000E+00 -0.56655120601E+02  0.56655120601E+02  0.00000000000E+00 0. -1.
      99926    2    1    2    0    0  0.00000000000E+00 -0.71054273576E-14  0.86356514091E+03  0.97687538211E+03  0.45666263212E+03 0.  0.
      99925    2    3    3    0    0 -0.89649653849E+02 -0.47587460187E+02  0.66132689591E+03  0.71832279047E+03  0.26140531987E+03 0.  0.
         25    1    4    4    0    0 -0.78703103586E+02 -0.39634550604E+02  0.40052165730E+03  0.42875422118E+03  0.12509000000E+03 0.  0.
         25    1    4    4    0    0 -0.10946550263E+02 -0.79529095830E+01  0.26080523861E+03  0.28956856929E+03  0.12509000000E+03 0.  0.
         25    1    3    3    0    0  0.89649653849E+02  0.47587460187E+02  0.20223824500E+03  0.25855259164E+03  0.12509000000E+03 0.  0.
<mgrwt>
<rscale>  2 0.45666263E+03</rscale>
<asrwt>0</asrwt>
<pdfrwt beam="1">  1       21 0.13532650E+00 0.45666263E+03</pdfrwt>
<pdfrwt beam="2">  1       21 0.83316360E-02 0.45666263E+03</pdfrwt>
<totfact> 0.39554607E+04</totfact>
</mgrwt>
</event>
<event>
 7    0  0.4770865E-002  0.4543772E+03  0.7546771E-02  0.1026425E+00
         21   -1    0    0  502  501  0.00000000000E+00  0.00000000000E+00  0.60314383166E+02  0.60314383166E+02  0.00000000000E+00 0.  1.
         21   -1    0    0  501  502 -0.00000000000E+00 -0.00000000000E+00 -0.85576027545E+03  0.85576027545E+03  0.00000000000E+00 0.  1.
      99926    2    1    2    0    0  0.00000000000E+00  0.00000000000E+00 -0.79544589228E+03  0.91607465861E+03  0.45437716999E+03 0.  0.
      99925    2    3    3    0    0 -0.10121471407E+03  0.35755996144E+02 -0.43225457974E+03  0.51722838847E+03  0.26297960857E+03 0.  0.
         25    1    3    3    0    0  0.10121471407E+03 -0.35755996144E+02 -0.36319131254E+03  0.39884627014E+03  0.12509000000E+03 0.  0.
         25    1    4    4    0    0 -0.75415616153E+02  0.77010597683E+01 -0.28464007870E+03  0.32002234919E+03  0.12509000000E+03 0.  0.
         25    1    4    4    0    0 -0.25799097920E+02  0.28054936376E+02 -0.14761450105E+03  0.19720603928E+03  0.12509000000E+03 0.  0.
<mgrwt>
<rscale>  2 0.45437717E+03</rscale>
<asrwt>0</asrwt>
<pdfrwt beam="1">  1       21 0.88697620E-02 0.45437717E+03</pdfrwt>
<pdfrwt beam="2">  1       21 0.12584710E+00 0.45437717E+03</pdfrwt>
<totfact> 0.42753979E+04</totfact>
</mgrwt>
</event>
<event>
 7    0  0.4770865E-002  0.4575567E+03  0.7546771E-02  0.1025492E+00
         21   -1    0    0  502  501  0.00000000000E+00  0.00000000000E+00  0.21992667759E+03  0.21992667759E+03  0.00000000000E+00 0. -1.
         21   -1    0    0  501  502 -0.00000000000E+00 -0.00000000000E+00 -0.23798625928E+03  0.23798625928E+03  0.00000000000E+00 0. -1.
      99926    2    1    2    0    0  0.00000000000E+00  0.00000000000E+00 -0.18059581687E+02  0.45791293686E+03  0.45755667327E+03 0.  0.
      99925    2    3    3    0    0 -0.83118805676E+02 -0.65913598413E+02  0.34052209282E+02  0.28581852914E+03  0.26320968889E+03 0.  0.
         25    1    4    4    0    0 -0.63769214879E+02 -0.43826740045E+02 -0.15932748975E+02  0.14794815477E+03  0.12509000000E+03 0.  0.
         25    1    3    3    0    0  0.83118805676E+02  0.65913598413E+02 -0.52111790969E+02  0.17209440773E+03  0.12509000000E+03 0.  0.
         25    1    4    4    0    0 -0.19349590798E+02 -0.22086858368E+02  0.49984958257E+02  0.13787037437E+03  0.12509000000E+03 0.  0.
<mgrwt>
<rscale>  2 0.45755667E+03</rscale>
<asrwt>0</asrwt>
<pdfrwt beam="1">  1       21 0.32342159E-01 0.45755667E+03</pdfrwt>
<pdfrwt beam="2">  1       21 0.34997979E-01 0.45755667E+03</pdfrwt>
<totfact> 0.66956600E+04</totfact>
</mgrwt>
</event>
<event>
 7    0  0.4770865E-002  0.4179323E+03  0.7546771E-02  0.1037741E+00
         21   -1    0    0  502  501  0.00000000000E+00  0.00000000000E+00  0.63956267726E+02  0.63956267726E+02  0.00000000000E+00 0. -1.
         21   -1    0    0  501  502 -0.00000000000E+00 -0.00000000000E+00 -0.68276112379E+03  0.68276112379E+03  0.00000000000E+00 0. -1.
      99926    2    1    2    0    0  0.17763568394E-14  0.00000000000E+00 -0.61880485606E+03  0.74671739151E+03  0.41793230661E+03 0.  0.
      99925    2    3    3    0    0  0.15324701553E+02  0.71354207932E+02 -0.39033828778E+03  0.47621646658E+03  0.26285333300E+03 0.  0.
         25    1    4    4    0    0  0.34619639211E+01  0.85958027478E+01 -0.13151714322E+03  0.18174196015E+03  0.12509000000E+03 0.  0.
         25    1    3    3    0    0 -0.15324701553E+02 -0.71354207932E+02 -0.22846656828E+03  0.27050092493E+03  0.12509000000E+03 0.  0.
         25    1    4    4    0    0  0.11862737632E+02  0.62758405184E+02 -0.25882114456E+03  0.29447450643E+03  0.12509000000E+03 0.  0.
<mgrwt>
<rscale>  2 0.41793231E+03</rscale>
<asrwt>0</asrwt>
<pdfrwt beam="1">  1       21 0.94053329E-02 0.41793231E+03</pdfrwt>
<pdfrwt beam="2">  1       21 0.10040605E+00 0.41793231E+03</pdfrwt>
<totfact> 0.68253144E+04</totfact>
</mgrwt>
</event>
<event>
 7    0  0.4770865E-002  0.4608919E+03  0.7546771E-02  0.1024523E+00
         21   -1    0    0  502  501  0.00000000000E+00  0.00000000000E+00  0.35678205104E+02  0.35678205104E+02  0.00000000000E+00 0. -1.
         21   -1    0    0  501  502 -0.00000000000E+00 -0.00000000000E+00 -0.14884528795E+04  0.14884528795E+04  0.00000000000E+00 0. -1.
      99926    2    1    2    0    0  0.00000000000E+00  0.00000000000E+00 -0.14527746744E+04  0.15241310846E+04  0.46089186203E+03 0.  0.
      99925    2    3    3    0    0 -0.80824098323E+02  0.71623997786E+02 -0.10718817301E+04  0.11089329692E+04  0.26294363445E+03 0.  0.
         25    1    3    3    0    0  0.80824098323E+02 -0.71623997786E+02 -0.38089294426E+03  0.41519811538E+03  0.12509000000E+03 0.  0.
         25    1    4    4    0    0 -0.81450123480E+02  0.48868714895E+02 -0.58241238289E+03  0.60321966626E+03  0.12509000000E+03 0.  0.
         25    1    4    4    0    0  0.62602515700E+00  0.22755282891E+02 -0.48946934722E+03  0.50571330295E+03  0.12509000000E+03 0.  0.
<mgrwt>
<rscale>  2 0.46089186E+03</rscale>
<asrwt>0</asrwt>
<pdfrwt beam="1">  1       21 0.52467944E-02 0.46089186E+03</pdfrwt>
<pdfrwt beam="2">  1       21 0.21889015E+00 0.46089186E+03</pdfrwt>
<totfact> 0.22162218E+04</totfact>
</mgrwt>
</event>
<event>
 7    0  0.4770865E-002  0.4567518E+03  0.7546771E-02  0.1025728E+00
         21   -1    0    0  502  501  0.00000000000E+00  0.00000000000E+00  0.29232904304E+03  0.29232904304E+03  0.00000000000E+00 0.  1.
         21   -1    0    0  501  502 -0.00000000000E+00 -0.00000000000E+00 -0.17841386297E+03  0.17841386297E+03  0.00000000000E+00 0.  1.
      99926    2    1    2    0    0 -0.53290705182E-14  0.14210854715E-13  0.11391518007E+03  0.47074290602E+03  0.45675180932E+03 0.  0.
      99925    2    3    3    0    0  0.80108828950E+01 -0.86107648597E+02  0.14934342100E+03  0.31459755787E+03  0.26303890327E+03 0.  0.
         25    1    4    4    0    0  0.40964531744E+02 -0.33045182254E+02  0.57995888496E+02  0.14758424074E+03  0.12509000000E+03 0.  0.
         25    1    3    3    0    0 -0.80108828950E+01  0.86107648597E+02 -0.35428240928E+02  0.15614534814E+03  0.12509000000E+03 0.  0.
         25    1    4    4    0    0 -0.32953648849E+02 -0.53062466342E+02  0.91347532504E+02  0.16701331714E+03  0.12509000000E+03 0.  0.
<mgrwt>
<rscale>  2 0.45675181E+03</rscale>
<asrwt>0</asrwt>
<pdfrwt beam="1">  1       21 0.42989565E-01 0.45675181E+03</pdfrwt>
<pdfrwt beam="2">  1       21 0.26237333E-01 0.45675181E+03</pdfrwt>
<totfact> 0.66452237E+04</totfact>
</mgrwt>
</event>
<event>
 7    0  0.4770865E-002  0.4591208E+03  0.7546771E-02  0.1025037E+00
         21   -1    0    0  502  501  0.00000000000E+00  0.00000000000E+00  0.16217949130E+03  0.16217949130E+03  0.00000000000E+00 0. -1.
         21   -1    0    0  501  502 -0.00000000000E+00 -0.00000000000E+00 -0.32493617927E+03  0.32493617927E+03  0.00000000000E+00 0. -1.
      99926    2    1    2    0    0  0.17763568394E-14  0.14210854715E-13 -0.16275668797E+03  0.48711567057E+03  0.45912083055E+03 0.  0.
      99925    2    3    3    0    0  0.12790100927E+02 -0.11475877292E+03 -0.11694276628E+03  0.31082163731E+03  0.26382061518E+03 0.  0.
         25    1    4    4    0    0  0.36844001102E+02 -0.51630200289E+02 -0.88493460272E+02  0.16583654184E+03  0.12509000000E+03 0.  0.
         25    1    4    4    0    0 -0.24053900175E+02 -0.63128572631E+02 -0.28449306003E+02  0.14498509547E+03  0.12509000000E+03 0.  0.
         25    1    3    3    0    0 -0.12790100927E+02  0.11475877292E+03 -0.45813921693E+02  0.17629403326E+03  0.12509000000E+03 0.  0.
<mgrwt>
<rscale>  2 0.45912083E+03</rscale>
<asrwt>0</asrwt>
<pdfrwt beam="1">  1       21 0.23849925E-01 0.45912083E+03</pdfrwt>
<pdfrwt beam="2">  1       21 0.47784732E-01 0.45912083E+03</pdfrwt>
<totfact> 0.64064185E+04</totfact>
</mgrwt>
</event>
<event>
 7    0  0.4770865E-002  0.4502623E+03  0.7546771E-02  0.1027644E+00
         21   -1    0    0  502  501  0.00000000000E+00  0.00000000000E+00  0.21955667924E+03  0.21955667924E+03  0.00000000000E+00 0.  1.
         21   -1    0    0  501  502 -0.00000000000E+00 -0.00000000000E+00 -0.23084711839E+03  0.23084711839E+03  0.00000000000E+00 0.  1.
      99926    2    1    2    0    0  0.00000000000E+00  0.00000000000E+00 -0.11290439145E+02  0.45040379763E+03  0.45026226458E+03 0.  0.
      99925    2    3    3    0    0  0.45915073185E+02  0.51431593694E+02 -0.91166248351E+02  0.28675461256E+03  0.26298958195E+03 0.  0.
         25    1    4    4    0    0  0.19423610333E+02  0.65943095124E+02 -0.39641185708E+02  0.14813743665E+03  0.12509000000E+03 0.  0.
         25    1    4    4    0    0  0.26491462852E+02 -0.14511501431E+02 -0.51525062643E+02  0.13861717591E+03  0.12509000000E+03 0.  0.
         25    1    3    3    0    0 -0.45915073185E+02 -0.51431593694E+02  0.79875809207E+02  0.16364918506E+03  0.12509000000E+03 0.  0.
<mgrwt>
<rscale>  2 0.45026226E+03</rscale>
<asrwt>0</asrwt>
<pdfrwt beam="1">  1       21 0.32287747E-01 0.45026226E+03</pdfrwt>
<pdfrwt beam="2">  1       21 0.33948105E-01 0.45026226E+03</pdfrwt>
<totfact> 0.71550581E+04</totfact>
</mgrwt>
</event>
<event>
 7    0  0.4770865E-002  0.4518139E+03  0.7546771E-02  0.1027182E+00
         21   -1    0    0  502  501  0.00000000000E+00  0.00000000000E+00  0.78982319159E+02  0.78982319159E+02  0.00000000000E+00 0. -1.
         21   -1    0    0  501  502 -0.00000000000E+00 -0.00000000000E+00 -0.64614401054E+03  0.64614401054E+03  0.00000000000E+00 0. -1.
      99926    2    1    2    0    0  0.00000000000E+00  0.00000000000E+00 -0.56716169138E+03  0.72512632970E+03  0.45181391065E+03 0.  0.
      99925    2    3    3    0    0 -0.85005776412E+02 -0.68366687721E+02 -0.32518491186E+03  0.43169787855E+03  0.26214088852E+03 0.  0.
         25    1    4    4    0    0 -0.11600079615E+02 -0.49579400104E+02 -0.12696950344E+03  0.18536839446E+03  0.12509000000E+03 0.  0.
         25    1    3    3    0    0  0.85005776412E+02  0.68366687721E+02 -0.24197677952E+03  0.29342845115E+03  0.12509000000E+03 0.  0.
         25    1    4    4    0    0 -0.73405696797E+02 -0.18787287616E+02 -0.19821540842E+03  0.24632948409E+03  0.12509000000E+03 0.  0.
<mgrwt>
<rscale>  2 0.45181391E+03</rscale>
<asrwt>0</asrwt>
<pdfrwt beam="1">  1       21 0.11615047E-01 0.45181391E+03</pdfrwt>
<pdfrwt beam="2">  1       21 0.95021179E-01 0.45181391E+03</pdfrwt>
<totfact> 0.52872361E+04</totfact>
</mgrwt>
</event>
<event>
 7    0  0.4770865E-002  0.4553577E+03  0.7546771E-02  0.1026136E+00
         21   -1    0    0  502  501  0.00000000000E+00  0.00000000000E+00  0.62683322876E+02  0.62683322876E+02  0.00000000000E+00 0.  1.
         21   -1    0    0  501  502 -0.00000000000E+00 -0.00000000000E+00 -0.82697686605E+03  0.82697686605E+03  0.00000000000E+00 0.  1.
      99926    2    1    2    0    0  0.00000000000E+00  0.35527136788E-14 -0.76429354317E+03  0.88966018892E+03  0.45535769634E+03 0.  0.
      99925    2    3    3    0    0 -0.98672018885E+02 -0.29332172775E+02 -0.39290582631E+03  0.48447765227E+03  0.26409669353E+03 0.  0.
         25    1    4    4    0    0 -0.77602823358E+02  0.22786398641E+01 -0.16027897664E+03  0.21763328984E+03  0.12509000000E+03 0.  0.
         25    1    3    3    0    0  0.98672018885E+02  0.29332172775E+02 -0.37138771687E+03  0.40518253665E+03  0.12509000000E+03 0.  0.
         25    1    4    4    0    0 -0.21069195527E+02 -0.31610812639E+02 -0.23262684967E+03  0.26684436243E+03  0.12509000000E+03 0.  0.
<mgrwt>
<rscale>  2 0.45535770E+03</rscale>
<asrwt>0</asrwt>
<pdfrwt beam="1">  1       21 0.92181363E-02 0.45535770E+03</pdfrwt>
<pdfrwt beam="2">  1       21 0.12161424E+00 0.45535770E+03</pdfrwt>
<totfact> 0.43561625E+04</totfact>
</mgrwt>
</event>
<event>
 7    0  0.4770865E-002  0.5056101E+03  0.7546771E-02  0.1012325E+00
         21   -1    0    0  502  501  0.00000000000E+00  0.00000000000E+00  0.44918756724E+03  0.44918756724E+03  0.00000000000E+00 0.  1.
         21   -1    0    0  501  502 -0.00000000000E+00 -0.00000000000E+00 -0.14227994510E+03  0.14227994510E+03  0.00000000000E+00 0.  1.
      99926    2    1    2    0    0  0.00000000000E+00 -0.88817841970E-15  0.30690762213E+03  0.59146751234E+03  0.50561005689E+03 0.  0.
      99925    2    3    3    0    0 -0.10683634437E+03  0.50269554569E+01  0.52670134328E+02  0.28860866227E+03  0.26283367769E+03 0.  0.
         25    1    4    4    0    0 -0.91863897261E+02 -0.15917345029E+02  0.26623462851E+02  0.15826766684E+03  0.12509000000E+03 0.  0.
         25    1    4    4    0    0 -0.14972447108E+02  0.20944300486E+02  0.26046671477E+02  0.13034099543E+03  0.12509000000E+03 0.  0.
         25    1    3    3    0    0  0.10683634437E+03 -0.50269554569E+01  0.25423748781E+03  0.30285885007E+03  0.12509000000E+03 0.  0.
<mgrwt>
<rscale>  2 0.50561006E+03</rscale>
<asrwt>0</asrwt>
<pdfrwt beam="1">  1       21 0.66056995E-01 0.50561006E+03</pdfrwt>
<pdfrwt beam="2">  1       21 0.20923521E-01 0.50561006E+03</pdfrwt>
<totfact> 0.40427464E+04</totfact>
</mgrwt>
</event>
<event>
 7    0  0.4770865E-002  0.4513160E+03  0.7546771E-02  0.1027330E+00
         21   -1    0    0  502  501  0.00000000000E+00  0.00000000000E+00  0.88869758320E+03  0.88869758320E+03  0.00000000000E+00 0.  1.
         21   -1    0    0  501  502 -0.00000000000E+00 -0.00000000000E+00 -0.57299066062E+02  0.57299066062E+02  0.00000000000E+00 0.  1.
      99926    2    1    2    0    0  0.17763568394E-14  0.00000000000E+00  0.83139851714E+03  0.94599664927E+03  0.45131603795E+03 0.  0.
      99925    2    3    3    0    0  0.86707500030E+01 -0.98693106652E+02  0.62353934504E+03  0.68394998408E+03  0.26300333592E+03 0.  0.
         25    1    3    3    0    0 -0.86707500030E+01  0.98693106652E+02  0.20785917210E+03  0.26204666518E+03  0.12509000000E+03 0.  0.
         25    1    4    4    0    0 -0.20745324258E+01 -0.54971767792E+02  0.41231266374E+03  0.43436786221E+03  0.12509000000E+03 0.  0.
         25    1    4    4    0    0  0.10745282429E+02 -0.43721338860E+02  0.21122668130E+03  0.24958212187E+03  0.12509000000E+03 0.  0.
<mgrwt>
<rscale>  2 0.45131604E+03</rscale>
<asrwt>0</asrwt>
<pdfrwt beam="1">  1       21 0.13069081E+00 0.45131604E+03</pdfrwt>
<pdfrwt beam="2">  1       21 0.84263338E-02 0.45131604E+03</pdfrwt>
<totfact> 0.42514993E+04</totfact>
</mgrwt>
</event>
<event>
 7    0  0.4770865E-002  0.4558734E+03  0.7546771E-02  0.1025985E+00
         21   -1    0    0  502  501  0.00000000000E+00  0.00000000000E+00  0.65648983178E+02  0.65648983178E+02  0.00000000000E+00 0. -1.
         21   -1    0    0  501  502 -0.00000000000E+00 -0.00000000000E+00 -0.79140822095E+03  0.79140822095E+03  0.00000000000E+00 0. -1.
      99926    2    1    2    0    0  0.00000000000E+00  0.00000000000E+00 -0.72575923778E+03  0.85705720413E+03  0.45587342535E+03 0.  0.
      99925    2    3    3    0    0  0.10299956704E+03  0.29953373262E+02 -0.38411393521E+03  0.47774844303E+03  0.26304741819E+03 0.  0.
         25    1    4    4    0    0  0.54358706795E+02  0.55852151208E+02 -0.20057381023E+03  0.24890097077E+03  0.12509000000E+03 0.  0.
         25    1    3    3    0    0 -0.10299956704E+03 -0.29953373262E+02 -0.34164530257E+03  0.37930876110E+03  0.12509000000E+03 0.  0.
         25    1    4    4    0    0  0.48640860247E+02 -0.25898777946E+02 -0.18354012498E+03  0.22884747227E+03  0.12509000000E+03 0.  0.
<mgrwt>
<rscale>  2 0.45587343E+03</rscale>
<asrwt>0</asrwt>
<pdfrwt beam="1">  1       21 0.96542617E-02 0.45587343E+03</pdfrwt>
<pdfrwt beam="2">  1       21 0.11638357E+00 0.45587343E+03</pdfrwt>
<totfact> 0.44817464E+04</totfact>
</mgrwt>
</event>
<event>
 7    0  0.4770865E-002  0.4494842E+03  0.7546771E-02  0.1027876E+00
         21   -1    0    0  502  501  0.00000000000E+00  0.00000000000E+00  0.42943409309E+03  0.42943409309E+03  0.00000000000E+00 0.  1.
         21   -1    0    0  501  502 -0.00000000000E+00 -0.00000000000E+00 -0.11761759258E+03  0.11761759258E+03  0.00000000000E+00 0.  1.
      99926    2    1    2    0    0  0.00000000000E+00  0.00000000000E+00  0.31181650051E+03  0.54705168568E+03  0.44948416747E+03 0.  0.
      99925    2    3    3    0    0  0.93701669762E+02 -0.53703759427E+02  0.19459314521E+03  0.34443648432E+03  0.26288001612E+03 0.  0.
         25    1    4    4    0    0  0.64097992497E+02  0.23977015339E+01  0.70964321770E+02  0.15747299667E+03  0.12509000000E+03 0.  0.
         25    1    3    3    0    0 -0.93701669762E+02  0.53703759427E+02  0.11722335531E+03  0.20261520136E+03  0.12509000000E+03 0.  0.
         25    1    4    4    0    0  0.29603677264E+02 -0.56101460961E+02  0.12362882344E+03  0.18696348765E+03  0.12509000000E+03 0.  0.
<mgrwt>
<rscale>  2 0.44948417E+03</rscale>
<asrwt>0</asrwt>
<pdfrwt beam="1">  1       21 0.63152072E-01 0.44948417E+03</pdfrwt>
<pdfrwt beam="2">  1       21 0.17296705E-01 0.44948417E+03</pdfrwt>
<totfact> 0.64845864E+04</totfact>
</mgrwt>
</event>
<event>
 7    0  0.4770865E-002  0.4580164E+03  0.7546771E-02  0.1025358E+00
         21   -1    0    0  502  501  0.00000000000E+00  0.00000000000E+00  0.56302383107E+02  0.56302383107E+02  0.00000000000E+00 0.  1.
         21   -1    0    0  501  502 -0.00000000000E+00 -0.00000000000E+00 -0.93148369923E+03  0.93148369923E+03  0.00000000000E+00 0.  1.
      99926    2    1    2    0    0  0.00000000000E+00  0.00000000000E+00 -0.87518131612E+03  0.98778608233E+03  0.45801638439E+03 0.  0.
      99925    2    3    3    0    0  0.70867650355E+02 -0.77436754862E+02 -0.65600827156E+03  0.71446757504E+03  0.26286572342E+03 0.  0.
         25    1    4    4    0    0  0.76098800516E+02 -0.41593941101E+02 -0.33008704067E+03  0.36349146605E+03  0.12509000000E+03 0.  0.
         25    1    4    4    0    0 -0.52311501609E+01 -0.35842813761E+02 -0.32592123089E+03  0.35097610898E+03  0.12509000000E+03 0.  0.
         25    1    3    3    0    0 -0.70867650355E+02  0.77436754862E+02 -0.21917304456E+03  0.27331850730E+03  0.12509000000E+03 0.  0.
<mgrwt>
<rscale>  2 0.45801638E+03</rscale>
<asrwt>0</asrwt>
<pdfrwt beam="1">  1       21 0.82797636E-02 0.45801638E+03</pdfrwt>
<pdfrwt beam="2">  1       21 0.13698287E+00 0.45801638E+03</pdfrwt>
<totfact> 0.38724668E+04</totfact>
</mgrwt>
</event>
<event>
 7    0  0.4770865E-002  0.4484834E+03  0.7546771E-02  0.1028175E+00
         21   -1    0    0  502  501  0.00000000000E+00  0.00000000000E+00  0.14016456295E+04  0.14016456295E+04  0.00000000000E+00 0.  1.
         21   -1    0    0  501  502 -0.00000000000E+00 -0.00000000000E+00 -0.35875210991E+02  0.35875210991E+02  0.00000000000E+00 0.  1.
      99926    2    1    2    0    0 -0.71054273576E-14  0.00000000000E+00  0.13657704185E+04  0.14375208405E+04  0.44848336733E+03 0.  0.
      99925    2    3    3    0    0 -0.59675514798E+02 -0.56323355313E+02  0.64517139982E+03  0.70155620733E+03  0.26306175983E+03 0.  0.
         25    1    4    4    0    0 -0.69095317151E+02 -0.30274532913E+02  0.30868203308E+03  0.34150082847E+03  0.12509000000E+03 0.  0.
         25    1    4    4    0    0  0.94198023530E+01 -0.26048822400E+02  0.33648936673E+03  0.36005537887E+03  0.12509000000E+03 0.  0.
         25    1    3    3    0    0  0.59675514798E+02  0.56323355313E+02  0.72059901872E+03  0.73596463319E+03  0.12509000000E+03 0.  0.
<mgrwt>
<rscale>  2 0.44848337E+03</rscale>
<asrwt>0</asrwt>
<pdfrwt beam="1">  1       21 0.20612432E+00 0.44848337E+03</pdfrwt>
<pdfrwt beam="2">  1       21 0.52757672E-02 0.44848337E+03</pdfrwt>
<totfact> 0.26674385E+04</totfact>
</mgrwt>
</event>
<event>
 7    0  0.4770865E-002  0.4548328E+03  0.7546771E-02  0.1026291E+00
         21   -1    0    0  502  501  0.00000000000E+00  0.00000000000E+00  0.15736389866E+03  0.15736389866E+03  0.00000000000E+00 0. -1.
         21   -1    0    0  501  502 -0.00000000000E+00 -0.00000000000E+00 -0.32865364503E+03  0.32865364503E+03  0.00000000000E+00 0. -1.
      99926    2    1    2    0    0 -0.71054273576E-14  0.00000000000E+00 -0.17128974637E+03  0.48601754369E+03  0.45483279957E+03 0.  0.
      99925    2    3    3    0    0  0.43180673512E+02  0.59034938928E+02 -0.19989290011E+03  0.33831736399E+03  0.26296724640E+03 0.  0.
         25    1    3    3    0    0 -0.43180673512E+02 -0.59034938928E+02  0.28603153741E+02  0.14770017970E+03  0.12509000000E+03 0.  0.
         25    1    4    4    0    0 -0.81522611701E+01  0.56215743807E+02 -0.92492849319E+02  0.16561734356E+03  0.12509000000E+03 0.  0.
         25    1    4    4    0    0  0.51332934682E+02  0.28191951207E+01 -0.10740005080E+03  0.17270002043E+03  0.12509000000E+03 0.  0.
<mgrwt>
<rscale>  2 0.45483280E+03</rscale>
<asrwt>0</asrwt>
<pdfrwt beam="1">  1       21 0.23141750E-01 0.45483280E+03</pdfrwt>
<pdfrwt beam="2">  1       21 0.48331418E-01 0.45483280E+03</pdfrwt>
<totfact> 0.66352638E+04</totfact>
</mgrwt>
</event>
<event>
 7    0  0.4770865E-002  0.4531881E+03  0.7546771E-02  0.1026776E+00
         21   -1    0    0  502  501  0.00000000000E+00  0.00000000000E+00  0.83577441714E+03  0.83577441714E+03  0.00000000000E+00 0. -1.
         21   -1    0    0  501  502 -0.00000000000E+00 -0.00000000000E+00 -0.61433876722E+02  0.61433876722E+02  0.00000000000E+00 0. -1.
      99926    2    1    2    0    0  0.00000000000E+00 -0.71054273576E-14  0.77434054042E+03  0.89720829386E+03  0.45318809565E+03 0.  0.
      99925    2    3    3    0    0  0.12942882167E+02  0.46519019115E+02  0.68696503052E+03  0.73716603329E+03  0.26298530405E+03 0.  0.
         25    1    4    4    0    0 -0.24652452655E+01  0.63329690474E+02  0.36107105062E+03  0.38734550317E+03  0.12509000000E+03 0.  0.
         25    1    3    3    0    0 -0.12942882167E+02 -0.46519019115E+02  0.87375509902E+02  0.16004226057E+03  0.12509000000E+03 0.  0.
         25    1    4    4    0    0  0.15408127433E+02 -0.16810671359E+02  0.32589397990E+03  0.34982053012E+03  0.12509000000E+03 0.  0.
<mgrwt>
<rscale>  2 0.45318810E+03</rscale>
<asrwt>0</asrwt>
<pdfrwt beam="1">  1       21 0.12290800E+00 0.45318810E+03</pdfrwt>
<pdfrwt beam="2">  1       21 0.90343941E-02 0.45318810E+03</pdfrwt>
<totfact> 0.43975164E+04</totfact>
</mgrwt>
</event>
<event>
 7    0  0.4770865E-002  0.4625582E+03  0.7546771E-02  0.1024042E+00
         21   -1    0    0  502  501  0.00000000000E+00  0.00000000000E+00  0.15016069875E+03  0.15016069875E+03  0.00000000000E+00 0.  1.
         21   -1    0    0  501  502 -0.00000000000E+00 -0.00000000000E+00 -0.35621852685E+03  0.35621852685E+03  0.00000000000E+00 0.  1.
      99926    2    1    2    0    0  0.71054273576E-14  0.71054273576E-14 -0.20605782810E+03  0.50637922560E+03  0.46255820347E+03 0.  0.
      99925    2    3    3    0    0 -0.39356613143E+02 -0.57420341594E+02 -0.21505630273E+02  0.27281325966E+03  0.26290405832E+03 0.  0.
         25    1    4    4    0    0 -0.30097329635E+02 -0.35697746711E+02 -0.49627041548E+02  0.14244483046E+03  0.12509000000E+03 0.  0.
         25    1    4    4    0    0 -0.92592835081E+01 -0.21722594883E+02  0.28121411274E+02  0.13036842920E+03  0.12509000000E+03 0.  0.
         25    1    3    3    0    0  0.39356613143E+02  0.57420341594E+02 -0.18455219782E+03  0.23356596595E+03  0.12509000000E+03 0.  0.
<mgrwt>
<rscale>  2 0.46255820E+03</rscale>
<asrwt>0</asrwt>
<pdfrwt beam="1">  1       21 0.22082456E-01 0.46255820E+03</pdfrwt>
<pdfrwt beam="2">  1       21 0.52385076E-01 0.46255820E+03</pdfrwt>
<totfact> 0.61077366E+04</totfact>
</mgrwt>
</event>
<event>
 7    0  0.4770865E-002  0.4588414E+03  0.7546771E-02  0.1025118E+00
         21   -1    0    0  502  501  0.00000000000E+00  0.00000000000E+00  0.27173468898E+03  0.27173468898E+03  0.00000000000E+00 0. -1.
         21   -1    0    0  501  502 -0.00000000000E+00 -0.00000000000E+00 -0.19369573395E+03  0.19369573395E+03  0.00000000000E+00 0. -1.
      99926    2    1    2    0    0  0.00000000000E+00  0.00000000000E+00  0.78038955029E+02  0.46543042293E+03  0.45884136702E+03 0.  0.
      99925    2    3    3    0    0  0.85444500555E+02 -0.63800966178E+02  0.96704323760E+02  0.29999998423E+03  0.26320512598E+03 0.  0.
         25    1    4    4    0    0  0.13632342563E+02 -0.29513144313E+02  0.13390476264E+02  0.12993721332E+03  0.12509000000E+03 0.  0.
         25    1    4    4    0    0  0.71812157992E+02 -0.34287821865E+02  0.83313847495E+02  0.17006277091E+03  0.12509000000E+03 0.  0.
         25    1    3    3    0    0 -0.85444500555E+02  0.63800966178E+02 -0.18665368731E+02  0.16543043871E+03  0.12509000000E+03 0.  0.
<mgrwt>
<rscale>  2 0.45884137E+03</rscale>
<asrwt>0</asrwt>
<pdfrwt beam="1">  1       21 0.39960984E-01 0.45884137E+03</pdfrwt>
<pdfrwt beam="2">  1       21 0.28484667E-01 0.45884137E+03</pdfrwt>
<totfact> 0.65747417E+04</totfact>
</mgrwt>
</event>
<event>
 7    0  0.4770865E-002  0.4573080E+03  0.7546771E-02  0.1025565E+00
         21   -1    0    0  502  501  0.00000000000E+00  0.00000000000E+00  0.16380005516E+03  0.16380005516E+03  0.00000000000E+00 0.  1.
         21   -1    0    0  501  502 -0.00000000000E+00 -0.00000000000E+00 -0.31918577010E+03  0.31918577010E+03  0.00000000000E+00 0.  1.
      99926    2    1    2    0    0 -0.71054273576E-14 -0.35527136788E-14 -0.15538571494E+03  0.48298582526E+03  0.45730797828E+03 0.  0.
      99925    2    3    3    0    0  0.57234984154E+02  0.14953800236E+02 -0.20214221682E+03  0.33692714486E+03  0.26298092245E+03 0.  0.
         25    1    4    4    0    0  0.63361917446E+02  0.29274783426E+02 -0.11476028996E+03  0.18354611894E+03  0.12509000000E+03 0.  0.
         25    1    3    3    0    0 -0.57234984154E+02 -0.14953800236E+02  0.46756501877E+02  0.14605868040E+03  0.12509000000E+03 0.  0.
         25    1    4    4    0    0 -0.61269332918E+01 -0.14320983190E+02 -0.87381926854E+02  0.15338102592E+03  0.12509000000E+03 0.  0.
<mgrwt>
<rscale>  2 0.45730798E+03</rscale>
<asrwt>0</asrwt>
<pdfrwt beam="1">  1       21 0.24088244E-01 0.45730798E+03</pdfrwt>
<pdfrwt beam="2">  1       21 0.46939083E-01 0.45730798E+03</pdfrwt>
<totfact> 0.65279232E+04</totfact>
</mgrwt>
</event>
<event>
 7    0  0.4770865E-002  0.4561560E+03  0.7546771E-02  0.1025902E+00
         21   -1    0    0  502  501  0.00000000000E+00  0.00000000000E+00  0.14242285883E+03  0.14242285883E+03  0.00000000000E+00 0.  1.
         21   -1    0    0  501  502 -0.00000000000E+00 -0.00000000000E+00 -0.36524729587E+03  0.36524729587E+03  0.00000000000E+00 0.  1.
      99926    2    1    2    0    0  0.00000000000E+00  0.00000000000E+00 -0.22282443704E+03  0.50767015470E+03  0.45615595604E+03 0.  0.
      99925    2    3    3    0    0 -0.10627174268E+03 -0.32130030215E+02 -0.17245021511E+03  0.33299590798E+03  0.26233790406E+03 0.  0.
         25    1    4    4    0    0 -0.62209712088E+02 -0.76121488444E+01 -0.43803891883E+02  0.14660928392E+03  0.12509000000E+03 0.  0.
         25    1    4    4    0    0 -0.44062030590E+02 -0.24517881371E+02 -0.12864632323E+03  0.18638662406E+03  0.12509000000E+03 0.  0.
         25    1    3    3    0    0  0.10627174268E+03  0.32130030215E+02 -0.50374221924E+02  0.17467424672E+03  0.12509000000E+03 0.  0.
<mgrwt>
<rscale>  2 0.45615596E+03</rscale>
<asrwt>0</asrwt>
<pdfrwt beam="1">  1       21 0.20944539E-01 0.45615596E+03</pdfrwt>
<pdfrwt beam="2">  1       21 0.53712836E-01 0.45615596E+03</pdfrwt>
<totfact> 0.64144568E+04</totfact>
</mgrwt>
</event>
<event>
 7    0  0.4770865E-002  0.4577463E+03  0.7546771E-02  0.1025437E+00
         21   -1    0    0  502  501  0.00000000000E+00  0.00000000000E+00  0.82698171332E+02  0.82698171332E+02  0.00000000000E+00 0. -1.
         21   -1    0    0  501  502 -0.00000000000E+00 -0.00000000000E+00 -0.63342289909E+03  0.63342289909E+03  0.00000000000E+00 0. -1.
      99926    2    1    2    0    0  0.00000000000E+00  0.14210854715E-13 -0.55072472776E+03  0.71612107042E+03  0.45774628534E+03 0.  0.
      99925    2    3    3    0    0 -0.58704512262E+02  0.84106795277E+02 -0.43137767124E+03  0.51509519952E+03  0.26213774347E+03 0.  0.
         25    1    4    4    0    0 -0.51014610056E+02  0.74311341248E+02 -0.26465388517E+03  0.30629047147E+03  0.12509000000E+03 0.  0.
         25    1    3    3    0    0  0.58704512262E+02 -0.84106795277E+02 -0.11934705652E+03  0.20102587090E+03  0.12509000000E+03 0.  0.
         25    1    4    4    0    0 -0.76899022061E+01  0.97954540293E+01 -0.16672378607E+03  0.20880472805E+03  0.12509000000E+03 0.  0.
<mgrwt>
<rscale>  2 0.45774629E+03</rscale>
<asrwt>0</asrwt>
<pdfrwt beam="1">  1       21 0.12161496E-01 0.45774629E+03</pdfrwt>
<pdfrwt beam="2">  1       21 0.93150426E-01 0.45774629E+03</pdfrwt>
<totfact> 0.50927287E+04</totfact>
</mgrwt>
</event>
<event>
 7    0  0.4770865E-002  0.4555875E+03  0.7546771E-02  0.1026069E+00
         21   -1    0    0  502  501  0.00000000000E+00  0.00000000000E+00  0.51122421715E+03  0.51122421715E+03  0.00000000000E+00 0. -1.
         21   -1    0    0  501  502 -0.00000000000E+00 -0.00000000000E+00 -0.10150142138E+03  0.10150142138E+03  0.00000000000E+00 0. -1.
      99926    2    1    2    0    0  0.00000000000E+00  0.00000000000E+00  0.40972279577E+03  0.61272563853E+03  0.45558746552E+03 0.  0.
      99925    2    3    3    0    0 -0.82750907252E+02 -0.71390139472E+02  0.30025351716E+03  0.41379023262E+03  0.26291808112E+03 0.  0.
         25    1    3    3    0    0  0.82750907252E+02  0.71390139472E+02  0.10946927861E+03  0.19893540591E+03  0.12509000000E+03 0.  0.
         25    1    4    4    0    0 -0.45299933030E+02 -0.77573878968E+02  0.16168275816E+03  0.22329042303E+03  0.12509000000E+03 0.  0.
         25    1    4    4    0    0 -0.37450974222E+02  0.61837394968E+01  0.13857075900E+03  0.19049980959E+03  0.12509000000E+03 0.  0.
<mgrwt>
<rscale>  2 0.45558747E+03</rscale>
<asrwt>0</asrwt>
<pdfrwt beam="1">  1       21 0.75180031E-01 0.45558747E+03</pdfrwt>
<pdfrwt beam="2">  1       21 0.14926680E-01 0.45558747E+03</pdfrwt>
<totfact> 0.57633847E+04</totfact>
</mgrwt>
</event>
<event>
 7    0  0.4770865E-002  0.4598199E+03  0.7546771E-02  0.1024833E+00
         21   -1    0    0  502  501  0.00000000000E+00  0.00000000000E+00  0.21654339785E+04  0.21654339785E+04  0.00000000000E+00 0. -1.
         21   -1    0    0  501  502 -0.00000000000E+00 -0.00000000000E+00 -0.24410153487E+02  0.24410153487E+02  0.00000000000E+00 0. -1.
      99926    2    1    2    0    0 -0.71054273576E-14 -0.71054273576E-14  0.21410238250E+04  0.21898441320E+04  0.45981985943E+03 0.  0.
      99925    2    3    3    0    0 -0.43561091246E+02 -0.50014556619E+02  0.87874737137E+03  0.91965187171E+03  0.26298972966E+03 0.  0.
         25    1    4    4    0    0 -0.26154795192E+02 -0.56956568698E+02  0.54698446280E+03  0.56459510685E+03  0.12509000000E+03 0.  0.
         25    1    4    4    0    0 -0.17406296054E+02  0.69420120792E+01  0.33176290857E+03  0.35505676486E+03  0.12509000000E+03 0.  0.
         25    1    3    3    0    0  0.43561091246E+02  0.50014556619E+02  0.12622764536E+04  0.12701922603E+04  0.12509000000E+03 0.  0.
<mgrwt>
<rscale>  2 0.45981986E+03</rscale>
<asrwt>0</asrwt>
<pdfrwt beam="1">  1       21 0.31844604E+00 0.45981986E+03</pdfrwt>
<pdfrwt beam="2">  1       21 0.35897299E-02 0.45981986E+03</pdfrwt>
<totfact> 0.10453874E+04</totfact>
</mgrwt>
</event>
<event>
 7    0  0.4770865E-002  0.4469301E+03  0.7546771E-02  0.1028641E+00
         21   -1    0    0  502  501  0.00000000000E+00  0.00000000000E+00  0.12692229231E+04  0.12692229231E+04  0.00000000000E+00 0.  1.
         21   -1    0    0  501  502 -0.00000000000E+00 -0.00000000000E+00 -0.39344260145E+02  0.39344260145E+02  0.00000000000E+00 0.  1.
      99926    2    1    2    0    0  0.71054273576E-14  0.00000000000E+00  0.12298786630E+04  0.13085671833E+04  0.44693013714E+03 0.  0.
      99925    2    3    3    0    0  0.53618309883E+02  0.90665526461E+02  0.76392791167E+03  0.81475267195E+03  0.26294657515E+03 0.  0.
         25    1    3    3    0    0 -0.53618309883E+02 -0.90665526461E+02  0.46595075133E+03  0.49381451134E+03  0.12509000000E+03 0.  0.
         25    1    4    4    0    0  0.57507233260E+02  0.44001767857E+02  0.47380444069E+03  0.49535986269E+03  0.12509000000E+03 0.  0.
         25    1    4    4    0    0 -0.38889233770E+01  0.46663758604E+02  0.29012347098E+03  0.31939280926E+03  0.12509000000E+03 0.  0.
<mgrwt>
<rscale>  2 0.44693014E+03</rscale>
<asrwt>0</asrwt>
<pdfrwt beam="1">  1       21 0.18665040E+00 0.44693014E+03</pdfrwt>
<pdfrwt beam="2">  1       21 0.57859214E-02 0.44693014E+03</pdfrwt>
<totfact> 0.30751956E+04</totfact>
</mgrwt>
</event>
<event>
 7    0  0.4770865E-002  0.4591992E+03  0.7546771E-02  0.1025014E+00
         21   -1    0    0  502  501  0.00000000000E+00  0.00000000000E+00  0.93434599917E+02  0.93434599917E+02  0.00000000000E+00 0. -1.
         21   -1    0    0  501  502 -0.00000000000E+00 -0.00000000000E+00 -0.56420191666E+03  0.56420191666E+03  0.00000000000E+00 0. -1.
      99926    2    1    2    0    0  0.00000000000E+00  0.00000000000E+00 -0.47076731674E+03  0.65763651658E+03  0.45919921758E+03 0.  0.
      99925    2    3    3    0    0 -0.69087257918E+02  0.25485762579E+02 -0.42558869040E+03  0.50561286816E+03  0.26286130516E+03 0.  0.
         25    1    4    4    0    0 -0.35431081631E+01 -0.64910097878E+01 -0.16125593867E+03  0.20421966771E+03  0.12509000000E+03 0.  0.
         25    1    3    3    0    0  0.69087257918E+02 -0.25485762579E+02 -0.45178626344E+02  0.15202364842E+03  0.12509000000E+03 0.  0.
         25    1    4    4    0    0 -0.65544149755E+02  0.31976772367E+02 -0.26433275173E+03  0.30139320045E+03  0.12509000000E+03 0.  0.
<mgrwt>
<rscale>  2 0.45919922E+03</rscale>
<asrwt>0</asrwt>
<pdfrwt beam="1">  1       21 0.13740383E-01 0.45919922E+03</pdfrwt>
<pdfrwt beam="2">  1       21 0.82970867E-01 0.45919922E+03</pdfrwt>
<totfact> 0.53470598E+04</totfact>
</mgrwt>
</event>
<event>
 7    0  0.4770865E-002  0.4563478E+03  0.7546771E-02  0.1025846E+00
         21   -1    0    0  502  501  0.00000000000E+00  0.00000000000E+00  0.29502739747E+03  0.29502739747E+03  0.00000000000E+00 0.  1.
         21   -1    0    0  501  502 -0.00000000000E+00 -0.00000000000E+00 -0.17646947186E+03  0.17646947186E+03  0.00000000000E+00 0.  1.
      99926    2    1    2    0    0  0.14210854715E-13  0.17763568394E-14  0.11855792561E+03  0.47149686933E+03  0.45634780165E+03 0.  0.
      99925    2    3    3    0    0  0.83044593944E+02  0.12506430369E+02  0.15520633963E+03  0.31643742998E+03  0.26266104364E+03 0.  0.
         25    1    3    3    0    0 -0.83044593944E+02 -0.12506430369E+02 -0.36648414019E+02  0.15505943936E+03  0.12509000000E+03 0.  0.
         25    1    4    4    0    0  0.13184647847E+02  0.34605422378E+01  0.38991597116E+02  0.13173330269E+03  0.12509000000E+03 0.  0.
         25    1    4    4    0    0  0.69859946097E+02  0.90458881313E+01  0.11621474251E+03  0.18470412729E+03  0.12509000000E+03 0.  0.
<mgrwt>
<rscale>  2 0.45634780E+03</rscale>
<asrwt>0</asrwt>
<pdfrwt beam="1">  1       21 0.43386382E-01 0.45634780E+03</pdfrwt>
<pdfrwt beam="2">  1       21 0.25951393E-01 0.45634780E+03</pdfrwt>
<totfact> 0.66609477E+04</totfact>
</mgrwt>
</event>
<event>
 7    0  0.4770865E-002  0.4569604E+03  0.7546771E-02  0.1025666E+00
         21   -1    0    0  502  501  0.00000000000E+00  0.00000000000E+00  0.18600838176E+03  0.18600838176E+03  0.00000000000E+00 0.  1.
         21   -1    0    0  501  502 -0.00000000000E+00 -0.00000000000E+00 -0.28064968131E+03  0.28064968131E+03  0.00000000000E+00 0.  1.
      99926    2    1    2    0    0  0.00000000000E+00  0.00000000000E+00 -0.94641299550E+02  0.46665806307E+03  0.45696036179E+03 0.  0.
      99925    2    3    3    0    0 -0.11156435790E+03 -0.25888707155E+02 -0.69994688538E+02  0.29527604929E+03  0.26300543293E+03 0.  0.
         25    1    3    3    0    0  0.11156435790E+03  0.25888707155E+02 -0.24646611012E+02  0.17138201378E+03  0.12509000000E+03 0.  0.
         25    1    4    4    0    0 -0.26222979090E+02 -0.32753341891E+02 -0.55028490301E+02  0.14295477915E+03  0.12509000000E+03 0.  0.
         25    1    4    4    0    0 -0.85341378812E+02  0.68646347364E+01 -0.14966198237E+02  0.15232127014E+03  0.12509000000E+03 0.  0.
<mgrwt>
<rscale>  2 0.45696036E+03</rscale>
<asrwt>0</asrwt>
<pdfrwt beam="1">  1       21 0.27354174E-01 0.45696036E+03</pdfrwt>
<pdfrwt beam="2">  1       21 0.41272012E-01 0.45696036E+03</pdfrwt>
<totfact> 0.66642805E+04</totfact>
</mgrwt>
</event>
<event>
 7    0  0.4770865E-002  0.4387941E+03  0.7546771E-02  0.1031117E+00
         21   -1    0    0  502  501  0.00000000000E+00  0.00000000000E+00  0.46934333702E+03  0.46934333702E+03  0.00000000000E+00 0. -1.
         21   -1    0    0  501  502 -0.00000000000E+00 -0.00000000000E+00 -0.10255831777E+03  0.10255831777E+03  0.00000000000E+00 0. -1.
      99926    2    1    2    0    0  0.00000000000E+00  0.88817841970E-15  0.36678501924E+03  0.57190165479E+03  0.43879408885E+03 0.  0.
      99925    2    3    3    0    0  0.14810816183E+02  0.77515193732E+01  0.35920140253E+03  0.44547196812E+03  0.26294520433E+03 0.  0.
         25    1    3    3    0    0 -0.14810816183E+02 -0.77515193732E+01  0.75836167168E+01  0.12642968667E+03  0.12509000000E+03 0.  0.
         25    1    4    4    0    0 -0.10035013060E+02 -0.58514431687E+01  0.11832804393E+03  0.17258034348E+03  0.12509000000E+03 0.  0.
         25    1    4    4    0    0  0.24845829243E+02  0.13602962542E+02  0.24087335860E+03  0.27289162465E+03  0.12509000000E+03 0.  0.
<mgrwt>
<rscale>  2 0.43879409E+03</rscale>
<asrwt>0</asrwt>
<pdfrwt beam="1">  1       21 0.69021078E-01 0.43879409E+03</pdfrwt>
<pdfrwt beam="2">  1       21 0.15082106E-01 0.43879409E+03</pdfrwt>
<totfact> 0.68849389E+04</totfact>
</mgrwt>
</event>
<event>
 7    0  0.4770865E-002  0.4595941E+03  0.7546771E-02  0.1024899E+00
         21   -1    0    0  502  501  0.00000000000E+00  0.00000000000E+00  0.48094888458E+03  0.48094888458E+03  0.00000000000E+00 0. -1.
         21   -1    0    0  501  502 -0.00000000000E+00 -0.00000000000E+00 -0.10979685371E+03  0.10979685371E+03  0.00000000000E+00 0. -1.
      99926    2    1    2    0    0 -0.71054273576E-14  0.00000000000E+00  0.37115203087E+03  0.59074573829E+03  0.45959405706E+03 0.  0.
      99925    2    3    3    0    0  0.61009060325E+02 -0.40066950806E+02  0.35089181843E+03  0.44450808822E+03  0.26293517502E+03 0.  0.
         25    1    4    4    0    0 -0.17225592295E+00 -0.57232325711E+01  0.12501151271E+03  0.17694115257E+03  0.12509000000E+03 0.  0.
         25    1    3    3    0    0 -0.61009060325E+02  0.40066950806E+02  0.20260212433E+02  0.14623765006E+03  0.12509000000E+03 0.  0.
         25    1    4    4    0    0  0.61181316248E+02 -0.34343718235E+02  0.22588030572E+03  0.26756693565E+03  0.12509000000E+03 0.  0.
<mgrwt>
<rscale>  2 0.45959406E+03</rscale>
<asrwt>0</asrwt>
<pdfrwt beam="1">  1       21 0.70727777E-01 0.45959406E+03</pdfrwt>
<pdfrwt beam="2">  1       21 0.16146596E-01 0.45959406E+03</pdfrwt>
<totfact> 0.57148098E+04</totfact>
</mgrwt>
</event>
<event>
 7    0  0.4770865E-002  0.4556852E+03  0.7546771E-02  0.1026040E+00
         21   -1    0    0  502  501  0.00000000000E+00  0.00000000000E+00  0.31420534725E+02  0.31420534725E+02  0.00000000000E+00 0.  1.
         21   -1    0    0  501  502 -0.00000000000E+00 -0.00000000000E+00 -0.16521762310E+04  0.16521762310E+04  0.00000000000E+00 0.  1.
      99926    2    1    2    0    0  0.00000000000E+00  0.00000000000E+00 -0.16207556962E+04  0.16835967657E+04  0.45568524504E+03 0.  0.
      99925    2    3    3    0    0 -0.10720615858E+03  0.33944030640E+02 -0.10859459589E+04  0.11229593420E+04  0.26289484656E+03 0.  0.
         25    1    3    3    0    0  0.10720615858E+03 -0.33944030640E+02 -0.53480973730E+03  0.56063742371E+03  0.12509000000E+03 0.  0.
         25    1    4    4    0    0 -0.82721215677E+02  0.29641432659E+02 -0.69960819520E+03  0.71611489926E+03  0.12509000000E+03 0.  0.
         25    1    4    4    0    0 -0.24484942904E+02  0.43025979816E+01 -0.38633776374E+03  0.40684444272E+03  0.12509000000E+03 0.  0.
<mgrwt>
<rscale>  2 0.45568525E+03</rscale>
<asrwt>0</asrwt>
<pdfrwt beam="1">  1       21 0.46206647E-02 0.45568525E+03</pdfrwt>
<pdfrwt beam="2">  1       21 0.24296721E+00 0.45568525E+03</pdfrwt>
<totfact> 0.19501063E+04</totfact>
</mgrwt>
</event>
<event>
 7    0  0.4770865E-002  0.4616174E+03  0.7546771E-02  0.1024313E+00
         21   -1    0    0  502  501  0.00000000000E+00  0.00000000000E+00  0.95043552447E+02  0.95043552447E+02  0.00000000000E+00 0. -1.
         21   -1    0    0  501  502 -0.00000000000E+00 -0.00000000000E+00 -0.56050779223E+03  0.56050779223E+03  0.00000000000E+00 0. -1.
      99926    2    1    2    0    0  0.00000000000E+00  0.00000000000E+00 -0.46546423978E+03  0.65555134467E+03  0.46161738159E+03 0.  0.
      99925    2    3    3    0    0  0.11804886637E+03 -0.79424784274E+01 -0.31236275740E+03  0.42514693972E+03  0.26302245214E+03 0.  0.
         25    1    3    3    0    0 -0.11804886637E+03  0.79424784274E+01 -0.15310148238E+03  0.23040440495E+03  0.12509000000E+03 0.  0.
         25    1    4    4    0    0  0.62589257632E+02  0.77595400860E+01 -0.21447860612E+03  0.25617612343E+03  0.12509000000E+03 0.  0.
         25    1    4    4    0    0  0.55459608735E+02 -0.15702018513E+02 -0.97884151284E+02  0.16897081629E+03  0.12509000000E+03 0.  0.
<mgrwt>
<rscale>  2 0.46161738E+03</rscale>
<asrwt>0</asrwt>
<pdfrwt beam="1">  1       21 0.13976992E-01 0.46161738E+03</pdfrwt>
<pdfrwt beam="2">  1       21 0.82427620E-01 0.46161738E+03</pdfrwt>
<totfact> 0.52583828E+04</totfact>
</mgrwt>
</event>
<event>
 7    0  0.4770865E-002  0.4582638E+03  0.7546771E-02  0.1025286E+00
         21   -1    0    0  502  501  0.00000000000E+00  0.00000000000E+00  0.21190936030E+03  0.21190936030E+03  0.00000000000E+00 0. -1.
         21   -1    0    0  501  502 -0.00000000000E+00 -0.00000000000E+00 -0.24775421170E+03  0.24775421170E+03  0.00000000000E+00 0. -1.
      99926    2    1    2    0    0  0.00000000000E+00  0.00000000000E+00 -0.35844851397E+02  0.45966357200E+03  0.45826383891E+03 0.  0.
      99925    2    3    3    0    0  0.21909910852E+02 -0.71622350949E+02  0.66640518035E+02  0.28144863325E+03  0.26298777379E+03 0.  0.
         25    1    3    3    0    0 -0.21909910852E+02  0.71622350949E+02 -0.10248536943E+03  0.17821493876E+03  0.12509000000E+03 0.  0.
         25    1    4    4    0    0  0.37780629371E+02 -0.10593968643E+02  0.50282207058E+02  0.14041159701E+03  0.12509000000E+03 0.  0.
         25    1    4    4    0    0 -0.15870718519E+02 -0.61028382306E+02  0.16358310978E+02  0.14103703624E+03  0.12509000000E+03 0.  0.
<mgrwt>
<rscale>  2 0.45826384E+03</rscale>
<asrwt>0</asrwt>
<pdfrwt beam="1">  1       21 0.31163141E-01 0.45826384E+03</pdfrwt>
<pdfrwt beam="2">  1       21 0.36434443E-01 0.45826384E+03</pdfrwt>
<totfact> 0.66457936E+04</totfact>
</mgrwt>
</event>
<event>
 7    0  0.4770865E-002  0.4465752E+03  0.7546771E-02  0.1028748E+00
         21   -1    0    0  502  501  0.00000000000E+00  0.00000000000E+00  0.35276449071E+02  0.35276449071E+02  0.00000000000E+00 0.  1.
         21   -1    0    0  501  502 -0.00000000000E+00 -0.00000000000E+00 -0.14133327039E+04  0.14133327039E+04  0.00000000000E+00 0.  1.
      99926    2    1    2    0    0  0.00000000000E+00  0.00000000000E+00 -0.13780562548E+04  0.14486091530E+04  0.44657523061E+03 0.  0.
      99925    2    3    3    0    0  0.63593090345E+02  0.16239455031E+02 -0.60776152276E+03  0.66546849932E+03  0.26299515967E+03 0.  0.
         25    1    4    4    0    0  0.60648971632E+02  0.35160271976E+02 -0.29253934986E+03  0.32579337286E+03  0.12509000000E+03 0.  0.
         25    1    3    3    0    0 -0.63593090345E+02 -0.16239455031E+02 -0.77029473207E+03  0.78314065365E+03  0.12509000000E+03 0.  0.
         25    1    4    4    0    0  0.29441187124E+01 -0.18920816945E+02 -0.31522217289E+03  0.33967512646E+03  0.12509000000E+03 0.  0.
<mgrwt>
<rscale>  2 0.44657523E+03</rscale>
<asrwt>0</asrwt>
<pdfrwt beam="1">  1       21 0.51877124E-02 0.44657523E+03</pdfrwt>
<pdfrwt beam="2">  1       21 0.20784307E+00 0.44657523E+03</pdfrwt>
<totfact> 0.26775166E+04</totfact>
</mgrwt>
</event>
<event>
 7    0  0.4770865E-002  0.4525905E+03  0.7546771E-02  0.1026952E+00
         21   -1    0    0  502  501  0.00000000000E+00  0.00000000000E+00  0.63425898595E+02  0.63425898595E+02  0.00000000000E+00 0. -1.
         21   -1    0    0  501  502 -0.00000000000E+00 -0.00000000000E+00 -0.80739179333E+03  0.80739179333E+03  0.00000000000E+00 0. -1.
      99926    2    1    2    0    0  0.00000000000E+00  0.35527136788E-14 -0.74396589474E+03  0.87081769193E+03  0.45259054347E+03 0.  0.
      99925    2    3    3    0    0 -0.17516629688E+02  0.30172451839E+02 -0.26657111658E+03  0.37607483804E+03  0.26297322001E+03 0.  0.
         25    1    4    4    0    0  0.15597956759E+02  0.20817541816E+02 -0.87135415163E+02  0.15465042832E+03  0.12509000000E+03 0.  0.
         25    1    4    4    0    0 -0.33114586448E+02  0.93549100224E+01 -0.17943570142E+03  0.22142440972E+03  0.12509000000E+03 0.  0.
         25    1    3    3    0    0  0.17516629688E+02 -0.30172451839E+02 -0.47739477815E+03  0.49474285389E+03  0.12509000000E+03 0.  0.
<mgrwt>
<rscale>  2 0.45259054E+03</rscale>
<asrwt>0</asrwt>
<pdfrwt beam="1">  1       21 0.93273388E-02 0.45259054E+03</pdfrwt>
<pdfrwt beam="2">  1       21 0.11873408E+00 0.45259054E+03</pdfrwt>
<totfact> 0.45369749E+04</totfact>
</mgrwt>
</event>
<event>
 7    0  0.4770865E-002  0.4492284E+03  0.7546771E-02  0.1027952E+00
         21   -1    0    0  502  501  0.00000000000E+00  0.00000000000E+00  0.20731617277E+03  0.20731617277E+03  0.00000000000E+00 0.  1.
         21   -1    0    0  501  502 -0.00000000000E+00 -0.00000000000E+00 -0.24335559181E+03  0.24335559181E+03  0.00000000000E+00 0.  1.
      99926    2    1    2    0    0 -0.88817841970E-15  0.14210854715E-13 -0.36039419041E+02  0.45067176457E+03  0.44922844930E+03 0.  0.
      99925    2    3    3    0    0 -0.70588333289E+01  0.90358699674E+02 -0.81166019818E+02  0.28974184215E+03  0.26295986496E+03 0.  0.
         25    1    4    4    0    0 -0.13990926853E+02  0.76608972445E+02 -0.70238227647E+02  0.16323479230E+03  0.12509000000E+03 0.  0.
         25    1    3    3    0    0  0.70588333289E+01 -0.90358699674E+02  0.45126600777E+02  0.16092992243E+03  0.12509000000E+03 0.  0.
         25    1    4    4    0    0  0.69320935245E+01  0.13749727228E+02 -0.10927792170E+02  0.12650704985E+03  0.12509000000E+03 0.  0.
<mgrwt>
<rscale>  2 0.44922845E+03</rscale>
<asrwt>0</asrwt>
<pdfrwt beam="1">  1       21 0.30487672E-01 0.44922845E+03</pdfrwt>
<pdfrwt beam="2">  1       21 0.35787587E-01 0.44922845E+03</pdfrwt>
<totfact> 0.72128781E+04</totfact>
</mgrwt>
</event>
<event>
 7    0  0.4770865E-002  0.4763243E+03  0.7546771E-02  0.1020150E+00
         21   -1    0    0  502  501  0.00000000000E+00  0.00000000000E+00  0.87990724716E+03  0.87990724716E+03  0.00000000000E+00 0.  1.
         21   -1    0    0  501  502 -0.00000000000E+00 -0.00000000000E+00 -0.64462707779E+02  0.64462707779E+02  0.00000000000E+00 0.  1.
      99926    2    1    2    0    0 -0.14210854715E-13  0.14210854715E-13  0.81544453938E+03  0.94436995494E+03  0.47632427504E+03 0.  0.
      99925    2    3    3    0    0 -0.78592884226E+02  0.10583011971E+03  0.48355946894E+03  0.56598911006E+03  0.26293926489E+03 0.  0.
         25    1    3    3    0    0  0.78592884226E+02 -0.10583011971E+03  0.33188507044E+03  0.37838084488E+03  0.12509000000E+03 0.  0.
         25    1    4    4    0    0 -0.37508967352E+02  0.83132274437E+02  0.31425721904E+03  0.35031843444E+03  0.12509000000E+03 0.  0.
         25    1    4    4    0    0 -0.41083916874E+02  0.22697845270E+02  0.16930224990E+03  0.21567067563E+03  0.12509000000E+03 0.  0.
<mgrwt>
<rscale>  2 0.47632428E+03</rscale>
<asrwt>0</asrwt>
<pdfrwt beam="1">  1       21 0.12939812E+00 0.47632428E+03</pdfrwt>
<pdfrwt beam="2">  1       21 0.94798105E-02 0.47632428E+03</pdfrwt>
<totfact> 0.35131423E+04</totfact>
</mgrwt>
</event>
<event>
 7    0  0.4770865E-002  0.4589693E+03  0.7546771E-02  0.1025081E+00
         21   -1    0    0  502  501  0.00000000000E+00  0.00000000000E+00  0.97045163191E+03  0.97045163191E+03  0.00000000000E+00 0.  1.
         21   -1    0    0  501  502 -0.00000000000E+00 -0.00000000000E+00 -0.54266701869E+02  0.54266701869E+02  0.00000000000E+00 0.  1.
      99926    2    1    2    0    0 -0.71054273576E-14  0.14210854715E-13  0.91618493004E+03  0.10247183338E+04  0.45896932092E+03 0.  0.
      99925    2    3    3    0    0 -0.59639309106E+02  0.74442215830E+02  0.72514943708E+03  0.77725003609E+03  0.26301601058E+03 0.  0.
         25    1    4    4    0    0 -0.46671288056E+02  0.69390173221E+02  0.45466072894E+03  0.47891240515E+03  0.12509000000E+03 0.  0.
         25    1    4    4    0    0 -0.12968021050E+02  0.50520426089E+01  0.27048870814E+03  0.29833763094E+03  0.12509000000E+03 0.  0.
         25    1    3    3    0    0  0.59639309106E+02 -0.74442215830E+02  0.19103549296E+03  0.24746829769E+03  0.12509000000E+03 0.  0.
<mgrwt>
<rscale>  2 0.45896932E+03</rscale>
<asrwt>0</asrwt>
<pdfrwt beam="1">  1       21 0.14271346E+00 0.45896932E+03</pdfrwt>
<pdfrwt beam="2">  1       21 0.79803979E-02 0.45896932E+03</pdfrwt>
<totfact> 0.37057146E+04</totfact>
</mgrwt>
</event>
<event>
 7    0  0.4770865E-002  0.4443621E+03  0.7546771E-02  0.1029417E+00
         21   -1    0    0  502  501  0.00000000000E+00  0.00000000000E+00  0.18285843289E+03  0.18285843289E+03  0.00000000000E+00 0. -1.
         21   -1    0    0  501  502 -0.00000000000E+00 -0.00000000000E+00 -0.26995974251E+03  0.26995974251E+03  0.00000000000E+00 0. -1.
      99926    2    1    2    0    0 -0.71054273576E-14  0.00000000000E+00 -0.87101309619E+02  0.45281817541E+03  0.44436208416E+03 0.  0.
      99925    2    3    3    0    0  0.63582610130E+02 -0.80902811895E+02 -0.53852157124E+02  0.28746695066E+03  0.26296231595E+03 0.  0.
         25    1    3    3    0    0 -0.63582610130E+02  0.80902811895E+02 -0.33249152495E+02  0.16535122475E+03  0.12509000000E+03 0.  0.
         25    1    4    4    0    0  0.24735088986E+02 -0.69561219976E+02 -0.56794411895E+02  0.15596057603E+03  0.12509000000E+03 0.  0.
         25    1    4    4    0    0  0.38847521144E+02 -0.11341591919E+02  0.29422547712E+01  0.13150637463E+03  0.12509000000E+03 0.  0.
<mgrwt>
<rscale>  2 0.44436208E+03</rscale>
<asrwt>0</asrwt>
<pdfrwt beam="1">  1       21 0.26890946E-01 0.44436208E+03</pdfrwt>
<pdfrwt beam="2">  1       21 0.39699962E-01 0.44436208E+03</pdfrwt>
<totfact> 0.74855519E+04</totfact>
</mgrwt>
</event>
<event>
 7    0  0.4770865E-002  0.4542148E+03  0.7546771E-02  0.1026473E+00
         21   -1    0    0  502  501  0.00000000000E+00  0.00000000000E+00  0.16772544331E+03  0.16772544331E+03  0.00000000000E+00 0.  1.
         21   -1    0    0  501  502 -0.00000000000E+00 -0.00000000000E+00 -0.30751306762E+03  0.30751306762E+03  0.00000000000E+00 0.  1.
      99926    2    1    2    0    0  0.00000000000E+00  0.00000000000E+00 -0.13978762431E+03  0.47523851093E+03  0.45421477559E+03 0.  0.
      99925    2    3    3    0    0 -0.29216724900E+02  0.10041688351E+03 -0.44930286014E+02  0.28660502971E+03  0.26303335330E+03 0.  0.
         25    1    4    4    0    0 -0.30255635152E+02  0.23002077255E+02  0.61426865179E+01  0.13088063155E+03  0.12509000000E+03 0.  0.
         25    1    4    4    0    0  0.10389102518E+01  0.77414806252E+02 -0.51072972532E+02  0.15572439817E+03  0.12509000000E+03 0.  0.
         25    1    3    3    0    0  0.29216724900E+02 -0.10041688351E+03 -0.94857338298E+02  0.18863348122E+03  0.12509000000E+03 0.  0.
<mgrwt>
<rscale>  2 0.45421478E+03</rscale>
<asrwt>0</asrwt>
<pdfrwt beam="1">  1       21 0.24665506E-01 0.45421478E+03</pdfrwt>
<pdfrwt beam="2">  1       21 0.45222510E-01 0.45421478E+03</pdfrwt>
<totfact> 0.67467823E+04</totfact>
</mgrwt>
</event>
<event>
 7    0  0.4770865E-002  0.4498537E+03  0.7546771E-02  0.1027766E+00
         21   -1    0    0  502  501  0.00000000000E+00  0.00000000000E+00  0.38097784318E+03  0.38097784318E+03  0.00000000000E+00 0.  1.
         21   -1    0    0  501  502 -0.00000000000E+00 -0.00000000000E+00 -0.13279535941E+03  0.13279535941E+03  0.00000000000E+00 0.  1.
      99926    2    1    2    0    0 -0.35527136788E-14  0.00000000000E+00  0.24818248376E+03  0.51377320259E+03  0.44985370783E+03 0.  0.
      99925    2    3    3    0    0  0.17231391624E+02  0.64782891451E+02  0.25407164610E+03  0.37173118692E+03  0.26294092511E+03 0.  0.
         25    1    3    3    0    0 -0.17231391624E+02 -0.64782891451E+02 -0.58891623344E+01  0.14204201567E+03  0.12509000000E+03 0.  0.
         25    1    4    4    0    0  0.37052962488E+02  0.52830109026E+02  0.10406590419E+03  0.17504617380E+03  0.12509000000E+03 0.  0.
         25    1    4    4    0    0 -0.19821570864E+02  0.11952782425E+02  0.15000574191E+03  0.19668501312E+03  0.12509000000E+03 0.  0.
<mgrwt>
<rscale>  2 0.44985371E+03</rscale>
<asrwt>0</asrwt>
<pdfrwt beam="1">  1       21 0.56026153E-01 0.44985371E+03</pdfrwt>
<pdfrwt beam="2">  1       21 0.19528729E-01 0.44985371E+03</pdfrwt>
<totfact> 0.67008168E+04</totfact>
</mgrwt>
</event>
<event>
 7    0  0.4770865E-002  0.4454547E+03  0.7546771E-02  0.1029086E+00
         21   -1    0    0  502  501  0.00000000000E+00  0.00000000000E+00  0.13402038194E+04  0.13402038194E+04  0.00000000000E+00 0. -1.
         21   -1    0    0  501  502 -0.00000000000E+00 -0.00000000000E+00 -0.37014874636E+02  0.37014874636E+02  0.00000000000E+00 0. -1.
      99926    2    1    2    0    0  0.00000000000E+00  0.00000000000E+00  0.13031889447E+04  0.13772186940E+04  0.44545471761E+03 0.  0.
      99925    2    3    3    0    0  0.16231500212E+02 -0.90714663255E+02  0.97795382331E+03  0.10167772923E+04  0.26258288208E+03 0.  0.
         25    1    3    3    0    0 -0.16231500212E+02  0.90714663255E+02  0.32523512142E+03  0.36044140166E+03  0.12509000000E+03 0.  0.
         25    1    4    4    0    0  0.29997812892E+02 -0.41707770970E+02  0.61034054683E+03  0.62514198239E+03  0.12509000000E+03 0.  0.
         25    1    4    4    0    0 -0.13766312680E+02 -0.49006892285E+02  0.36761327648E+03  0.39163530995E+03  0.12509000000E+03 0.  0.
<mgrwt>
<rscale>  2 0.44545472E+03</rscale>
<asrwt>0</asrwt>
<pdfrwt beam="1">  1       21 0.19708876E+00 0.44545472E+03</pdfrwt>
<pdfrwt beam="2">  1       21 0.54433648E-02 0.44545472E+03</pdfrwt>
<totfact> 0.29040932E+04</totfact>
</mgrwt>
</event>
<event>
 7    0  0.4770865E-002  0.4536414E+03  0.7546771E-02  0.1026642E+00
         21   -1    0    0  502  501  0.00000000000E+00  0.00000000000E+00  0.12665840091E+04  0.12665840091E+04  0.00000000000E+00 0. -1.
         21   -1    0    0  501  502 -0.00000000000E+00 -0.00000000000E+00 -0.40619193488E+02  0.40619193488E+02  0.00000000000E+00 0. -1.
      99926    2    1    2    0    0  0.00000000000E+00 -0.17763568394E-14  0.12259648156E+04  0.13072032026E+04  0.45364136025E+03 0.  0.
      99925    2    3    3    0    0  0.20679525733E+02  0.66763646811E+01  0.45623934834E+03  0.52707691813E+03  0.26302759936E+03 0.  0.
         25    1    3    3    0    0 -0.20679525733E+02 -0.66763646811E+01  0.76972546724E+03  0.78012628442E+03  0.12509000000E+03 0.  0.
         25    1    4    4    0    0  0.33798829107E+01 -0.35438992662E+02  0.24531092956E+03  0.27765501269E+03  0.12509000000E+03 0.  0.
         25    1    4    4    0    0  0.17299642822E+02  0.42115357343E+02  0.21092841878E+03  0.24942190544E+03  0.12509000000E+03 0.  0.
<mgrwt>
<rscale>  2 0.45364136E+03</rscale>
<asrwt>0</asrwt>
<pdfrwt beam="1">  1       21 0.18626233E+00 0.45364136E+03</pdfrwt>
<pdfrwt beam="2">  1       21 0.59734116E-02 0.45364136E+03</pdfrwt>
<totfact> 0.29213650E+04</totfact>
</mgrwt>
</event>
<event>
 7    0  0.4770865E-002  0.4555098E+03  0.7546771E-02  0.1026092E+00
         21   -1    0    0  502  501  0.00000000000E+00  0.00000000000E+00  0.40621661743E+03  0.40621661743E+03  0.00000000000E+00 0.  1.
         21   -1    0    0  501  502 -0.00000000000E+00 -0.00000000000E+00 -0.12769613113E+03  0.12769613113E+03  0.00000000000E+00 0.  1.
      99926    2    1    2    0    0  0.00000000000E+00  0.00000000000E+00  0.27852048631E+03  0.53391274856E+03  0.45550978231E+03 0.  0.
      99925    2    3    3    0    0  0.84153274351E+02  0.73573804261E+02  0.19673443627E+03  0.34728117476E+03  0.26344809294E+03 0.  0.
         25    1    4    4    0    0  0.44293563824E+02  0.73600575478E+01  0.12962630964E+03  0.18565176674E+03  0.12509000000E+03 0.  0.
         25    1    4    4    0    0  0.39859710527E+02  0.66213746713E+02  0.67108126632E+02  0.16162940802E+03  0.12509000000E+03 0.  0.
         25    1    3    3    0    0 -0.84153274351E+02 -0.73573804261E+02  0.81786050037E+02  0.18663157380E+03  0.12509000000E+03 0.  0.
<mgrwt>
<rscale>  2 0.45550978E+03</rscale>
<asrwt>0</asrwt>
<pdfrwt beam="1">  1       21 0.59737738E-01 0.45550978E+03</pdfrwt>
<pdfrwt beam="2">  1       21 0.18778843E-01 0.45550978E+03</pdfrwt>
<totfact> 0.62688711E+04</totfact>
</mgrwt>
</event>
<event>
 7    0  0.4770865E-002  0.4546121E+03  0.7546771E-02  0.1026356E+00
         21   -1    0    0  502  501  0.00000000000E+00  0.00000000000E+00  0.35852263305E+03  0.35852263305E+03  0.00000000000E+00 0. -1.
         21   -1    0    0  501  502 -0.00000000000E+00 -0.00000000000E+00 -0.14411376176E+03  0.14411376176E+03  0.00000000000E+00 0. -1.
      99926    2    1    2    0    0  0.00000000000E+00 -0.71054273576E-14  0.21440887128E+03  0.50263639481E+03  0.45461212182E+03 0.  0.
      99925    2    3    3    0    0 -0.41364930169E+02 -0.63771235909E+02  0.22715414274E+03  0.35570859614E+03  0.26296724668E+03 0.  0.
         25    1    4    4    0    0 -0.49604222360E+02 -0.19410059439E+02  0.81649794363E+02  0.15859232738E+03  0.12509000000E+03 0.  0.
         25    1    4    4    0    0  0.82392921910E+01 -0.44361176470E+02  0.14550434838E+03  0.19711626876E+03  0.12509000000E+03 0.  0.
         25    1    3    3    0    0  0.41364930169E+02  0.63771235909E+02 -0.12745271461E+02  0.14692779867E+03  0.12509000000E+03 0.  0.
<mgrwt>
<rscale>  2 0.45461212E+03</rscale>
<asrwt>0</asrwt>
<pdfrwt beam="1">  1       21 0.52723917E-01 0.45461212E+03</pdfrwt>
<pdfrwt beam="2">  1       21 0.21193200E-01 0.45461212E+03</pdfrwt>
<totfact> 0.65286618E+04</totfact>
</mgrwt>
</event>
<event>
 7    0  0.4770865E-002  0.4587242E+03  0.7546771E-02  0.1025152E+00
         21   -1    0    0  502  501  0.00000000000E+00  0.00000000000E+00  0.32122006587E+02  0.32122006587E+02  0.00000000000E+00 0. -1.
         21   -1    0    0  501  502 -0.00000000000E+00 -0.00000000000E+00 -0.16377237516E+04  0.16377237516E+04  0.00000000000E+00 0. -1.
      99926    2    1    2    0    0  0.71054273576E-14  0.00000000000E+00 -0.16056017450E+04  0.16698457582E+04  0.45872420096E+03 0.  0.
      99925    2    3    3    0    0 -0.46266000520E+02 -0.72333583061E+02 -0.71809406504E+03  0.76946246194E+03  0.26275597815E+03 0.  0.
         25    1    4    4    0    0 -0.17035704653E+02 -0.76832293184E+02 -0.39458728863E+03  0.42135502010E+03  0.12509000000E+03 0.  0.
         25    1    3    3    0    0  0.46266000520E+02  0.72333583061E+02 -0.88750767996E+03  0.90038329623E+03  0.12509000000E+03 0.  0.
         25    1    4    4    0    0 -0.29230295866E+02  0.44987101223E+01 -0.32350677640E+03  0.34810744184E+03  0.12509000000E+03 0.  0.
<mgrwt>
<rscale>  2 0.45872420E+03</rscale>
<asrwt>0</asrwt>
<pdfrwt beam="1">  1       21 0.47238237E-02 0.45872420E+03</pdfrwt>
<pdfrwt beam="2">  1       21 0.24084177E+00 0.45872420E+03</pdfrwt>
<totfact> 0.19331466E+04</totfact>
</mgrwt>
</event>
<event>
 7    0  0.4770865E-002  0.4658818E+03  0.7546771E-02  0.1023089E+00
         21   -1    0    0  502  501  0.00000000000E+00  0.00000000000E+00  0.84581789075E+02  0.84581789075E+02  0.00000000000E+00 0. -1.
         21   -1    0    0  501  502 -0.00000000000E+00 -0.00000000000E+00 -0.64152662951E+03  0.64152662951E+03  0.00000000000E+00 0. -1.
      99926    2    1    2    0    0  0.71054273576E-14  0.00000000000E+00 -0.55694484043E+03  0.72610841858E+03  0.46588183078E+03 0.  0.
      99925    2    3    3    0    0 -0.43490324443E+02  0.92042682577E+02 -0.45485156455E+03  0.53523199569E+03  0.26309709177E+03 0.  0.
         25    1    4    4    0    0 -0.15375418928E+02  0.83829001552E+02 -0.21198237861E+03  0.26047599112E+03  0.12509000000E+03 0.  0.
         25    1    4    4    0    0 -0.28114905515E+02  0.82136810245E+01 -0.24286918594E+03  0.27475600457E+03  0.12509000000E+03 0.  0.
         25    1    3    3    0    0  0.43490324443E+02 -0.92042682577E+02 -0.10209327588E+03  0.19087642289E+03  0.12509000000E+03 0.  0.
<mgrwt>
<rscale>  2 0.46588183E+03</rscale>
<asrwt>0</asrwt>
<pdfrwt beam="1">  1       21 0.12438498E-01 0.46588183E+03</pdfrwt>
<pdfrwt beam="2">  1       21 0.94342151E-01 0.46588183E+03</pdfrwt>
<totfact> 0.47326167E+04</totfact>
</mgrwt>
</event>
<event>
 7    0  0.4770865E-002  0.4422119E+03  0.7546771E-02  0.1030070E+00
         21   -1    0    0  502  501  0.00000000000E+00  0.00000000000E+00  0.19824133355E+03  0.19824133355E+03  0.00000000000E+00 0. -1.
         21   -1    0    0  501  502 -0.00000000000E+00 -0.00000000000E+00 -0.24660773328E+03  0.24660773328E+03  0.00000000000E+00 0. -1.
      99926    2    1    2    0    0  0.00000000000E+00  0.14210854715E-13 -0.48366399736E+02  0.44484906683E+03  0.44221192163E+03 0.  0.
      99925    2    3    3    0    0  0.18540025996E+02 -0.84830667594E+02 -0.82029600640E+02  0.28889813248E+03  0.26304619526E+03 0.  0.
         25    1    4    4    0    0  0.15165583941E+02 -0.27037980089E+02 -0.73940804703E+00  0.12887630553E+03  0.12509000000E+03 0.  0.
         25    1    4    4    0    0  0.33744420554E+01 -0.57792687505E+02 -0.81290192593E+02  0.16002182695E+03  0.12509000000E+03 0.  0.
         25    1    3    3    0    0 -0.18540025996E+02  0.84830667594E+02  0.33663200904E+02  0.15595093435E+03  0.12509000000E+03 0.  0.
<mgrwt>
<rscale>  2 0.44221192E+03</rscale>
<asrwt>0</asrwt>
<pdfrwt beam="1">  1       21 0.29153138E-01 0.44221192E+03</pdfrwt>
<pdfrwt beam="2">  1       21 0.36265843E-01 0.44221192E+03</pdfrwt>
<totfact> 0.76841767E+04</totfact>
</mgrwt>
</event>
<event>
 7    0  0.4770865E-002  0.4221178E+03  0.7546771E-02  0.1036379E+00
         21   -1    0    0  502  501  0.00000000000E+00  0.00000000000E+00  0.20570231062E+03  0.20570231062E+03  0.00000000000E+00 0. -1.
         21   -1    0    0  501  502 -0.00000000000E+00 -0.00000000000E+00 -0.21655492970E+03  0.21655492970E+03  0.00000000000E+00 0. -1.
      99926    2    1    2    0    0  0.00000000000E+00  0.00000000000E+00 -0.10852619086E+02  0.42225724032E+03  0.42211775331E+03 0.  0.
      99925    2    3    3    0    0 -0.61219189409E+02 -0.47623806343E+02  0.50495880329E+01  0.27421601507E+03  0.26296978628E+03 0.  0.
         25    1    4    4    0    0 -0.10310887288E+02  0.98010917692E+01  0.16704882320E+02  0.12699975193E+03  0.12509000000E+03 0.  0.
         25    1    3    3    0    0  0.61219189409E+02  0.47623806343E+02 -0.15902207119E+02  0.14804122525E+03  0.12509000000E+03 0.  0.
         25    1    4    4    0    0 -0.50908302120E+02 -0.57424898112E+02 -0.11655294287E+02  0.14721626314E+03  0.12509000000E+03 0.  0.
<mgrwt>
<rscale>  2 0.42211775E+03</rscale>
<asrwt>0</asrwt>
<pdfrwt beam="1">  1       21 0.30250340E-01 0.42211775E+03</pdfrwt>
<pdfrwt beam="2">  1       21 0.31846313E-01 0.42211775E+03</pdfrwt>
<totfact> 0.93160435E+04</totfact>
</mgrwt>
</event>
<event>
 7    0  0.4770865E-002  0.4642481E+03  0.7546771E-02  0.1023556E+00
         21   -1    0    0  502  501  0.00000000000E+00  0.00000000000E+00  0.85925434882E+03  0.85925434882E+03  0.00000000000E+00 0. -1.
         21   -1    0    0  501  502 -0.00000000000E+00 -0.00000000000E+00 -0.62707355562E+02  0.62707355562E+02  0.00000000000E+00 0. -1.
      99926    2    1    2    0    0  0.00000000000E+00  0.00000000000E+00  0.79654699326E+03  0.92196170439E+03  0.46424807149E+03 0.  0.
      99925    2    3    3    0    0  0.52224298399E+02  0.47132074487E+02  0.69424104099E+03  0.74571521291E+03  0.26300522043E+03 0.  0.
         25    1    4    4    0    0  0.26301328405E+02  0.35523167706E+02  0.24616559117E+03  0.27964023619E+03  0.12509000000E+03 0.  0.
         25    1    3    3    0    0 -0.52224298399E+02 -0.47132074487E+02  0.10230595227E+03  0.17624649148E+03  0.12509000000E+03 0.  0.
         25    1    4    4    0    0  0.25922969993E+02  0.11608906780E+02  0.44807544982E+03  0.46607497672E+03  0.12509000000E+03 0.  0.
<mgrwt>
<rscale>  2 0.46424807E+03</rscale>
<asrwt>0</asrwt>
<pdfrwt beam="1">  1       21 0.12636093E+00 0.46424807E+03</pdfrwt>
<pdfrwt beam="2">  1       21 0.92216705E-02 0.46424807E+03</pdfrwt>
<totfact> 0.39369749E+04</totfact>
</mgrwt>
</event>
<event>
 7    0  0.4770865E-002  0.4612372E+03  0.7546771E-02  0.1024423E+00
         21   -1    0    0  502  501  0.00000000000E+00  0.00000000000E+00  0.97896524591E+02  0.97896524591E+02  0.00000000000E+00 0.  1.
         21   -1    0    0  501  502 -0.00000000000E+00 -0.00000000000E+00 -0.54327712581E+03  0.54327712581E+03  0.00000000000E+00 0.  1.
      99926    2    1    2    0    0 -0.71054273576E-14  0.00000000000E+00 -0.44538060122E+03  0.64117365040E+03  0.46123721665E+03 0.  0.
      99925    2    3    3    0    0  0.55013963365E+02 -0.64807083159E+02 -0.16353459071E+03  0.32131246812E+03  0.26319507141E+03 0.  0.
         25    1    4    4    0    0  0.65860452373E+01 -0.64317696690E+02 -0.66294564426E+02  0.15563617662E+03  0.12509000000E+03 0.  0.
         25    1    3    3    0    0 -0.55013963365E+02  0.64807083159E+02 -0.28184601050E+03  0.31986118228E+03  0.12509000000E+03 0.  0.
         25    1    4    4    0    0  0.48427918128E+02 -0.48938646901E+00 -0.97240026286E+02  0.16567629150E+03  0.12509000000E+03 0.  0.
<mgrwt>
<rscale>  2 0.46123722E+03</rscale>
<asrwt>0</asrwt>
<pdfrwt beam="1">  1       21 0.14396548E-01 0.46123722E+03</pdfrwt>
<pdfrwt beam="2">  1       21 0.79893694E-01 0.46123722E+03</pdfrwt>
<totfact> 0.53529004E+04</totfact>
</mgrwt>
</event>
<event>
 7    0  0.4770865E-002  0.4567513E+03  0.7546771E-02  0.1025728E+00
         21   -1    0    0  502  501  0.00000000000E+00  0.00000000000E+00  0.22805100365E+03  0.22805100365E+03  0.00000000000E+00 0.  1.
         21   -1    0    0  501  502 -0.00000000000E+00 -0.00000000000E+00 -0.22870072858E+03  0.22870072858E+03  0.00000000000E+00 0.  1.
      99926    2    1    2    0    0  0.00000000000E+00  0.00000000000E+00 -0.64972493438E+00  0.45675173223E+03  0.45675127012E+03 0.  0.
      99925    2    3    3    0    0 -0.34672287580E+02 -0.10500179642E+03 -0.31385535938E+02  0.28698794647E+03  0.26296289619E+03 0.  0.
         25    1    4    4    0    0 -0.19514188139E+02 -0.59056940553E+02 -0.56220067301E+02  0.15058794717E+03  0.12509000000E+03 0.  0.
         25    1    3    3    0    0  0.34672287580E+02  0.10500179642E+03  0.30735811003E+02  0.16976378576E+03  0.12509000000E+03 0.  0.
         25    1    4    4    0    0 -0.15158099441E+02 -0.45944855872E+02  0.24834531363E+02  0.13639999930E+03  0.12509000000E+03 0.  0.
<mgrwt>
<rscale>  2 0.45675127E+03</rscale>
<asrwt>0</asrwt>
<pdfrwt beam="1">  1       21 0.33536913E-01 0.45675127E+03</pdfrwt>
<pdfrwt beam="2">  1       21 0.33632460E-01 0.45675127E+03</pdfrwt>
<totfact> 0.67469930E+04</totfact>
</mgrwt>
</event>
<event>
 7    0  0.4770865E-002  0.4526974E+03  0.7546771E-02  0.1026921E+00
         21   -1    0    0  502  501  0.00000000000E+00  0.00000000000E+00  0.25068923734E+02  0.25068923734E+02  0.00000000000E+00 0. -1.
         21   -1    0    0  501  502 -0.00000000000E+00 -0.00000000000E+00 -0.20437148002E+04  0.20437148002E+04  0.00000000000E+00 0. -1.
      99926    2    1    2    0    0 -0.88817841970E-15  0.00000000000E+00 -0.20186458764E+04  0.20687837239E+04  0.45269738440E+03 0.  0.
      99925    2    3    3    0    0  0.70017944924E+01  0.95218252849E+02 -0.10065130388E+04  0.10444908313E+04  0.26225380552E+03 0.  0.
         25    1    4    4    0    0 -0.53368670082E+01  0.84809958441E+02 -0.49022015565E+03  0.51301512678E+03  0.12509000000E+03 0.  0.
         25    1    4    4    0    0  0.12338661501E+02  0.10408294407E+02 -0.51629288318E+03  0.53147570450E+03  0.12509000000E+03 0.  0.
         25    1    3    3    0    0 -0.70017944924E+01 -0.95218252849E+02 -0.10121328376E+04  0.10242928926E+04  0.12509000000E+03 0.  0.
<mgrwt>
<rscale>  2 0.45269738E+03</rscale>
<asrwt>0</asrwt>
<pdfrwt beam="1">  1       21 0.36866069E-02 0.45269738E+03</pdfrwt>
<pdfrwt beam="2">  1       21 0.30054626E+00 0.45269738E+03</pdfrwt>
<totfact> 0.12847313E+04</totfact>
</mgrwt>
</event>
<event>
 7    0  0.4770865E-002  0.4175614E+03  0.7546771E-02  0.1037863E+00
         21   -1    0    0  502  501  0.00000000000E+00  0.00000000000E+00  0.27684466010E+03  0.27684466010E+03  0.00000000000E+00 0. -1.
         21   -1    0    0  501  502 -0.00000000000E+00 -0.00000000000E+00 -0.15745069294E+03  0.15745069294E+03  0.00000000000E+00 0. -1.
      99926    2    1    2    0    0  0.00000000000E+00  0.00000000000E+00  0.11939396716E+03  0.43429535304E+03  0.41756141378E+03 0.  0.
      99925    2    3    3    0    0 -0.65082054456E+02  0.31956505054E+02  0.75923685754E+02  0.28331831673E+03  0.26315009122E+03 0.  0.
         25    1    4    4    0    0 -0.40498336462E+02 -0.16759688224E+02  0.13457077356E+02  0.13322763766E+03  0.12509000000E+03 0.  0.
         25    1    3    3    0    0  0.65082054456E+02 -0.31956505054E+02  0.43470281410E+02  0.15097703631E+03  0.12509000000E+03 0.  0.
         25    1    4    4    0    0 -0.24583717994E+02  0.48716193277E+02  0.62466608398E+02  0.15009067907E+03  0.12509000000E+03 0.  0.
<mgrwt>
<rscale>  2 0.41756141E+03</rscale>
<asrwt>0</asrwt>
<pdfrwt beam="1">  1       21 0.40712450E-01 0.41756141E+03</pdfrwt>
<pdfrwt beam="2">  1       21 0.23154514E-01 0.41756141E+03</pdfrwt>
<totfact> 0.95566318E+04</totfact>
</mgrwt>
</event>
<event>
 7    0  0.4770865E-002  0.4520349E+03  0.7546771E-02  0.1027117E+00
         21   -1    0    0  502  501  0.00000000000E+00  0.00000000000E+00  0.22640599021E+03  0.22640599021E+03  0.00000000000E+00 0.  1.
         21   -1    0    0  501  502 -0.00000000000E+00 -0.00000000000E+00 -0.22562956560E+03  0.22562956560E+03  0.00000000000E+00 0.  1.
      99926    2    1    2    0    0  0.00000000000E+00  0.00000000000E+00  0.77642460258E+00  0.45203555581E+03  0.45203488901E+03 0.  0.
      99925    2    3    3    0    0  0.54065931835E+02  0.94408260720E+02  0.19141996081E+02  0.28523973154E+03  0.26298145136E+03 0.  0.
         25    1    4    4    0    0  0.42048047951E+02  0.85479747795E+02  0.24562839138E+02  0.15914039960E+03  0.12509000000E+03 0.  0.
         25    1    4    4    0    0  0.12017883884E+02  0.89285129245E+01 -0.54208430566E+01  0.12609933194E+03  0.12509000000E+03 0.  0.
         25    1    3    3    0    0 -0.54065931835E+02 -0.94408260720E+02 -0.18365571478E+02  0.16679582427E+03  0.12509000000E+03 0.  0.
<mgrwt>
<rscale>  2 0.45203489E+03</rscale>
<asrwt>0</asrwt>
<pdfrwt beam="1">  1       21 0.33294999E-01 0.45203489E+03</pdfrwt>
<pdfrwt beam="2">  1       21 0.33180819E-01 0.45203489E+03</pdfrwt>
<totfact> 0.70414730E+04</totfact>
</mgrwt>
</event>
<event>
 7    0  0.4770865E-002  0.4565309E+03  0.7546771E-02  0.1025792E+00
         21   -1    0    0  502  501  0.00000000000E+00  0.00000000000E+00  0.11430994144E+04  0.11430994144E+04  0.00000000000E+00 0.  1.
         21   -1    0    0  501  502 -0.00000000000E+00 -0.00000000000E+00 -0.45582310336E+02  0.45582310336E+02  0.00000000000E+00 0.  1.
      99926    2    1    2    0    0  0.00000000000E+00 -0.14210854715E-13  0.10975171041E+04  0.11886817247E+04  0.45653088506E+03 0.  0.
      99925    2    3    3    0    0  0.56443653819E+02 -0.84355801594E+02  0.82836249746E+03  0.87500434640E+03  0.26295701496E+03 0.  0.
         25    1    3    3    0    0 -0.56443653819E+02  0.84355801594E+02  0.26915460661E+03  0.31367737834E+03  0.12509000000E+03 0.  0.
         25    1    4    4    0    0  0.35277900754E+02 -0.84123316741E+02  0.47072926300E+03  0.49553487249E+03  0.12509000000E+03 0.  0.
         25    1    4    4    0    0  0.21165753065E+02 -0.23248485286E+00  0.35763323445E+03  0.37946947392E+03  0.12509000000E+03 0.  0.
<mgrwt>
<rscale>  2 0.45653089E+03</rscale>
<asrwt>0</asrwt>
<pdfrwt beam="1">  1       21 0.16810284E+00 0.45653089E+03</pdfrwt>
<pdfrwt beam="2">  1       21 0.67032817E-02 0.45653089E+03</pdfrwt>
<totfact> 0.32131802E+04</totfact>
</mgrwt>
</event>
<event>
 7    0  0.4770865E-002  0.4613402E+03  0.7546771E-02  0.1024393E+00
         21   -1    0    0  502  501  0.00000000000E+00  0.00000000000E+00  0.88261016361E+02  0.88261016361E+02  0.00000000000E+00 0.  1.
         21   -1    0    0  501  502 -0.00000000000E+00 -0.00000000000E+00 -0.60285617159E+03  0.60285617159E+03  0.00000000000E+00 0.  1.
      99926    2    1    2    0    0  0.00000000000E+00  0.00000000000E+00 -0.51459515523E+03  0.69111718795E+03  0.46134021470E+03 0.  0.
      99925    2    3    3    0    0  0.30143305176E+02  0.76688399493E+02 -0.45012138640E+03  0.52804019868E+03  0.26349090964E+03 0.  0.
         25    1    4    4    0    0 -0.29696611955E+01  0.40704237678E+02 -0.15186459253E+03  0.20093784217E+03  0.12509000000E+03 0.  0.
         25    1    3    3    0    0 -0.30143305176E+02 -0.76688399493E+02 -0.64473768835E+02  0.16307698928E+03  0.12509000000E+03 0.  0.
         25    1    4    4    0    0  0.33112966371E+02  0.35984161815E+02 -0.29825679387E+03  0.32710235651E+03  0.12509000000E+03 0.  0.
<mgrwt>
<rscale>  2 0.46134021E+03</rscale>
<asrwt>0</asrwt>
<pdfrwt beam="1">  1       21 0.12979561E-01 0.46134021E+03</pdfrwt>
<pdfrwt beam="2">  1       21 0.88655320E-01 0.46134021E+03</pdfrwt>
<totfact> 0.50804150E+04</totfact>
</mgrwt>
</event>
<event>
 7    0  0.4770865E-002  0.4202692E+03  0.7546771E-02  0.1036979E+00
         21   -1    0    0  502  501  0.00000000000E+00  0.00000000000E+00  0.97580675426E+03  0.97580675426E+03  0.00000000000E+00 0. -1.
         21   -1    0    0  501  502 -0.00000000000E+00 -0.00000000000E+00 -0.45251325527E+02  0.45251325527E+02  0.00000000000E+00 0. -1.
      99926    2    1    2    0    0 -0.71054273576E-14 -0.88817841970E-15  0.93055542873E+03  0.10210580798E+04  0.42026919510E+03 0.  0.
      99925    2    3    3    0    0 -0.55880830056E+02  0.45615900253E+01  0.73147149270E+03  0.77934461934E+03  0.26302854560E+03 0.  0.
         25    1    3    3    0    0  0.55880830056E+02 -0.45615900253E+01  0.19908393603E+03  0.24171346044E+03  0.12509000000E+03 0.  0.
         25    1    4    4    0    0 -0.49017836389E+02 -0.55542886566E+01  0.27855076803E+03  0.30930832009E+03  0.12509000000E+03 0.  0.
         25    1    4    4    0    0 -0.68629936674E+01  0.10115878682E+02  0.45292072466E+03  0.47003629925E+03  0.12509000000E+03 0.  0.
<mgrwt>
<rscale>  2 0.42026920E+03</rscale>
<asrwt>0</asrwt>
<pdfrwt beam="1">  1       21 0.14350098E+00 0.42026920E+03</pdfrwt>
<pdfrwt beam="2">  1       21 0.66546073E-02 0.42026920E+03</pdfrwt>
<totfact> 0.50796305E+04</totfact>
</mgrwt>
</event>
<event>
 7    0  0.4770865E-002  0.4769922E+03  0.7546771E-02  0.1019965E+00
         21   -1    0    0  502  501  0.00000000000E+00  0.00000000000E+00  0.33524623604E+03  0.33524623604E+03  0.00000000000E+00 0.  1.
         21   -1    0    0  501  502 -0.00000000000E+00 -0.00000000000E+00 -0.16966749717E+03  0.16966749717E+03  0.00000000000E+00 0.  1.
      99926    2    1    2    0    0  0.00000000000E+00  0.00000000000E+00  0.16557873887E+03  0.50491373320E+03  0.47699220037E+03 0.  0.
      99925    2    3    3    0    0  0.66759763215E+02  0.89176294860E+02  0.25480865057E+02  0.28654661137E+03  0.26277444407E+03 0.  0.
         25    1    4    4    0    0  0.42231756596E+01  0.45580856273E+02  0.40668894256E+02  0.13927281404E+03  0.12509000000E+03 0.  0.
         25    1    3    3    0    0 -0.66759763215E+02 -0.89176294860E+02  0.14009787381E+03  0.21836712183E+03  0.12509000000E+03 0.  0.
         25    1    4    4    0    0  0.62536587555E+02  0.43595438587E+02 -0.15188029199E+02  0.14727379733E+03  0.12509000000E+03 0.  0.
<mgrwt>
<rscale>  2 0.47699220E+03</rscale>
<asrwt>0</asrwt>
<pdfrwt beam="1">  1       21 0.49300917E-01 0.47699220E+03</pdfrwt>
<pdfrwt beam="2">  1       21 0.24951102E-01 0.47699220E+03</pdfrwt>
<totfact> 0.54729550E+04</totfact>
</mgrwt>
</event>
<event>
 7    0  0.4770865E-002  0.4505718E+03  0.7546771E-02  0.1027552E+00
         21   -1    0    0  502  501  0.00000000000E+00  0.00000000000E+00  0.19871097307E+03  0.19871097307E+03  0.00000000000E+00 0.  1.
         21   -1    0    0  501  502 -0.00000000000E+00 -0.00000000000E+00 -0.25541490421E+03  0.25541490421E+03  0.00000000000E+00 0.  1.
      99926    2    1    2    0    0  0.00000000000E+00  0.00000000000E+00 -0.56703931139E+02  0.45412587728E+03  0.45057183291E+03 0.  0.
      99925    2    3    3    0    0 -0.63551747933E+02 -0.86933788330E+02 -0.52976250418E+02  0.28902678000E+03  0.26293285879E+03 0.  0.
         25    1    4    4    0    0 -0.54459411283E+02 -0.80695637267E+02 -0.26971266108E+02  0.16078734604E+03  0.12509000000E+03 0.  0.
         25    1    3    3    0    0  0.63551747933E+02  0.86933788330E+02 -0.37276807203E+01  0.16509909728E+03  0.12509000000E+03 0.  0.
         25    1    4    4    0    0 -0.90923366498E+01 -0.62381510632E+01 -0.26004984311E+02  0.12823943396E+03  0.12509000000E+03 0.  0.
<mgrwt>
<rscale>  2 0.45057183E+03</rscale>
<asrwt>0</asrwt>
<pdfrwt beam="1">  1       21 0.29222202E-01 0.45057183E+03</pdfrwt>
<pdfrwt beam="2">  1       21 0.37561015E-01 0.45057183E+03</pdfrwt>
<totfact> 0.71088208E+04</totfact>
</mgrwt>
</event>
<event>
 7    0  0.4770865E-002  0.4550889E+03  0.7546771E-02  0.1026215E+00
         21   -1    0    0  502  501  0.00000000000E+00  0.00000000000E+00  0.43448627365E+03  0.43448627365E+03  0.00000000000E+00 0. -1.
         21   -1    0    0  501  502 -0.00000000000E+00 -0.00000000000E+00 -0.11916710071E+03  0.11916710071E+03  0.00000000000E+00 0. -1.
      99926    2    1    2    0    0 -0.26645352591E-14  0.00000000000E+00  0.31531917295E+03  0.55365337436E+03  0.45508886837E+03 0.  0.
      99925    2    3    3    0    0  0.14405264829E+01  0.11323285424E+03  0.19815459940E+03  0.34822990980E+03  0.26301154048E+03 0.  0.
         25    1    4    4    0    0  0.41157325522E+02  0.58120116009E+02  0.10337364286E+03  0.17721594586E+03  0.12509000000E+03 0.  0.
         25    1    4    4    0    0 -0.39716799039E+02  0.55112738229E+02  0.94780956536E+02  0.17101396394E+03  0.12509000000E+03 0.  0.
         25    1    3    3    0    0 -0.14405264829E+01 -0.11323285424E+03  0.11716457355E+03  0.20542346456E+03  0.12509000000E+03 0.  0.
<mgrwt>
<rscale>  2 0.45508887E+03</rscale>
<asrwt>0</asrwt>
<pdfrwt beam="1">  1       21 0.63895040E-01 0.45508887E+03</pdfrwt>
<pdfrwt beam="2">  1       21 0.17524574E-01 0.45508887E+03</pdfrwt>
<totfact> 0.61582431E+04</totfact>
</mgrwt>
</event>
<event>
 7    0  0.4770865E-002  0.5002566E+03  0.7546771E-02  0.1013712E+00
         21   -1    0    0  502  501  0.00000000000E+00  0.00000000000E+00  0.33149847095E+03  0.33149847095E+03  0.00000000000E+00 0. -1.
         21   -1    0    0  501  502 -0.00000000000E+00 -0.00000000000E+00 -0.18873136742E+03  0.18873136742E+03  0.00000000000E+00 0. -1.
      99926    2    1    2    0    0  0.00000000000E+00 -0.71054273576E-14  0.14276710353E+03  0.52022983837E+03  0.50025657305E+03 0.  0.
      99925    2    3    3    0    0  0.63822801210E+02 -0.60970873771E+02  0.21525925921E+03  0.35083852178E+03  0.26260297464E+03 0.  0.
         25    1    4    4    0    0  0.40019210484E+02 -0.28876315547E+01  0.68928143276E+02  0.14835252832E+03  0.12509000000E+03 0.  0.
         25    1    3    3    0    0 -0.63822801210E+02  0.60970873771E+02 -0.72492155674E+02  0.16939131659E+03  0.12509000000E+03 0.  0.
         25    1    4    4    0    0  0.23803590726E+02 -0.58083242216E+02  0.14633111593E+03  0.20248599346E+03  0.12509000000E+03 0.  0.
<mgrwt>
<rscale>  2 0.50025657E+03</rscale>
<asrwt>0</asrwt>
<pdfrwt beam="1">  1       21 0.48749775E-01 0.50025657E+03</pdfrwt>
<pdfrwt beam="2">  1       21 0.27754613E-01 0.50025657E+03</pdfrwt>
<totfact> 0.45282710E+04</totfact>
</mgrwt>
</event>
<event>
 7    0  0.4770865E-002  0.4563602E+03  0.7546771E-02  0.1025842E+00
         21   -1    0    0  502  501  0.00000000000E+00  0.00000000000E+00  0.97443716311E+02  0.97443716311E+02  0.00000000000E+00 0.  1.
         21   -1    0    0  501  502 -0.00000000000E+00 -0.00000000000E+00 -0.53432025044E+03  0.53432025044E+03  0.00000000000E+00 0.  1.
      99926    2    1    2    0    0  0.00000000000E+00  0.88817841970E-15 -0.43687653413E+03  0.63176396675E+03  0.45636016874E+03 0.  0.
      99925    2    3    3    0    0 -0.84390537892E+02 -0.77278575307E+01 -0.38075152017E+03  0.47058391848E+03  0.26324137509E+03 0.  0.
         25    1    3    3    0    0  0.84390537892E+02  0.77278575307E+01 -0.56125013965E+02  0.16118004827E+03  0.12509000000E+03 0.  0.
         25    1    4    4    0    0 -0.74949144867E+02 -0.30534470017E+02 -0.20043523728E+03  0.24974290904E+03  0.12509000000E+03 0.  0.
         25    1    4    4    0    0 -0.94413930254E+01  0.22806612487E+02 -0.18031628289E+03  0.22084100944E+03  0.12509000000E+03 0.  0.
<mgrwt>
<rscale>  2 0.45636017E+03</rscale>
<asrwt>0</asrwt>
<pdfrwt beam="1">  1       21 0.14329958E-01 0.45636017E+03</pdfrwt>
<pdfrwt beam="2">  1       21 0.78576508E-01 0.45636017E+03</pdfrwt>
<totfact> 0.56159094E+04</totfact>
</mgrwt>
</event>
<event>
 7    0  0.4770865E-002  0.4594413E+03  0.7546771E-02  0.1024943E+00
         21   -1    0    0  502  501  0.00000000000E+00  0.00000000000E+00  0.90734868184E+02  0.90734868184E+02  0.00000000000E+00 0. -1.
         21   -1    0    0  501  502 -0.00000000000E+00 -0.00000000000E+00 -0.58160191014E+03  0.58160191014E+03  0.00000000000E+00 0. -1.
      99926    2    1    2    0    0  0.14210854715E-13  0.00000000000E+00 -0.49086704196E+03  0.67233677833E+03  0.45944128092E+03 0.  0.
      99925    2    3    3    0    0  0.86591302152E+02  0.48273689867E+02 -0.21613569271E+03  0.35460540577E+03  0.26306264159E+03 0.  0.
         25    1    4    4    0    0  0.25181093226E+01  0.10442524888E+02 -0.90296326214E+02  0.15464902789E+03  0.12509000000E+03 0.  0.
         25    1    3    3    0    0 -0.86591302152E+02 -0.48273689867E+02 -0.27473134925E+03  0.31773137255E+03  0.12509000000E+03 0.  0.
         25    1    4    4    0    0  0.84073192830E+02  0.37831164980E+02 -0.12583936649E+03  0.19995637788E+03  0.12509000000E+03 0.  0.
<mgrwt>
<rscale>  2 0.45944128E+03</rscale>
<asrwt>0</asrwt>
<pdfrwt beam="1">  1       21 0.13343363E-01 0.45944128E+03</pdfrwt>
<pdfrwt beam="2">  1       21 0.85529692E-01 0.45944128E+03</pdfrwt>
<totfact> 0.52566365E+04</totfact>
</mgrwt>
</event>
<event>
 7    0  0.4770865E-002  0.4556632E+03  0.7546771E-02  0.1026047E+00
         21   -1    0    0  502  501  0.00000000000E+00  0.00000000000E+00  0.29799143874E+03  0.29799143874E+03  0.00000000000E+00 0. -1.
         21   -1    0    0  501  502 -0.00000000000E+00 -0.00000000000E+00 -0.17419037852E+03  0.17419037852E+03  0.00000000000E+00 0. -1.
      99926    2    1    2    0    0  0.00000000000E+00  0.00000000000E+00  0.12380106022E+03  0.47218181726E+03  0.45566321559E+03 0.  0.
      99925    2    3    3    0    0  0.30928709011E+02  0.96909696588E+02  0.25058531471E+02  0.28311656552E+03  0.26301898285E+03 0.  0.
         25    1    4    4    0    0  0.46476339346E+02  0.43243539443E+02  0.38482226734E+02  0.14545942285E+03  0.12509000000E+03 0.  0.
         25    1    3    3    0    0 -0.30928709011E+02 -0.96909696588E+02  0.98742528749E+02  0.18906525175E+03  0.12509000000E+03 0.  0.
         25    1    4    4    0    0 -0.15547630335E+02  0.53666157145E+02 -0.13423695263E+02  0.13765714266E+03  0.12509000000E+03 0.  0.
<mgrwt>
<rscale>  2 0.45566322E+03</rscale>
<asrwt>0</asrwt>
<pdfrwt beam="1">  1       21 0.43822270E-01 0.45566322E+03</pdfrwt>
<pdfrwt beam="2">  1       21 0.25616232E-01 0.45566322E+03</pdfrwt>
<totfact> 0.66920993E+04</totfact>
</mgrwt>
</event>
<event>
 7    0  0.4770865E-002  0.4346688E+03  0.7546771E-02  0.1032395E+00
         21   -1    0    0  502  501  0.00000000000E+00  0.00000000000E+00  0.72239879056E+02  0.72239879056E+02  0.00000000000E+00 0.  1.
         21   -1    0    0  501  502 -0.00000000000E+00 -0.00000000000E+00 -0.65385270327E+03  0.65385270327E+03  0.00000000000E+00 0.  1.
      99926    2    1    2    0    0 -0.71054273576E-14  0.00000000000E+00 -0.58161282421E+03  0.72609258232E+03  0.43466879439E+03 0.  0.
      99925    2    3    3    0    0  0.55783582190E+02 -0.20295979174E+01 -0.49706084585E+03  0.56511906757E+03  0.26300978829E+03 0.  0.
         25    1    4    4    0    0  0.50690041726E+01  0.13777142631E+01 -0.16871380058E+03  0.21009390164E+03  0.12509000000E+03 0.  0.
         25    1    4    4    0    0  0.50714578018E+02 -0.34073121805E+01 -0.32834704528E+03  0.35502516593E+03  0.12509000000E+03 0.  0.
         25    1    3    3    0    0 -0.55783582190E+02  0.20295979174E+01 -0.84551978358E+02  0.16097351476E+03  0.12509000000E+03 0.  0.
<mgrwt>
<rscale>  2 0.43466879E+03</rscale>
<asrwt>0</asrwt>
<pdfrwt beam="1">  1       21 0.10623512E-01 0.43466879E+03</pdfrwt>
<pdfrwt beam="2">  1       21 0.96154805E-01 0.43466879E+03</pdfrwt>
<totfact> 0.60638384E+04</totfact>
</mgrwt>
</event>
<event>
 7    0  0.4770865E-002  0.4512077E+03  0.7546771E-02  0.1027363E+00
         21   -1    0    0  502  501  0.00000000000E+00  0.00000000000E+00  0.10573239580E+03  0.10573239580E+03  0.00000000000E+00 0.  1.
         21   -1    0    0  501  502 -0.00000000000E+00 -0.00000000000E+00 -0.48137647667E+03  0.48137647667E+03  0.00000000000E+00 0.  1.
      99926    2    1    2    0    0  0.00000000000E+00  0.00000000000E+00 -0.37564408087E+03  0.58710887247E+03  0.45120766022E+03 0.  0.
      99925    2    3    3    0    0 -0.34965239585E+02 -0.91720463923E+02 -0.17352059560E+03  0.32993845645E+03  0.26289689322E+03 0.  0.
         25    1    4    4    0    0 -0.11590160180E+02 -0.63517760841E+02 -0.47319830962E+02  0.14851098363E+03  0.12509000000E+03 0.  0.
         25    1    3    3    0    0  0.34965239585E+02  0.91720463923E+02 -0.20212348527E+03  0.25717041602E+03  0.12509000000E+03 0.  0.
         25    1    4    4    0    0 -0.23375079405E+02 -0.28202703081E+02 -0.12620076464E+03  0.18142747282E+03  0.12509000000E+03 0.  0.
<mgrwt>
<rscale>  2 0.45120766E+03</rscale>
<asrwt>0</asrwt>
<pdfrwt beam="1">  1       21 0.15548882E-01 0.45120766E+03</pdfrwt>
<pdfrwt beam="2">  1       21 0.70790659E-01 0.45120766E+03</pdfrwt>
<totfact> 0.61295614E+04</totfact>
</mgrwt>
</event>
<event>
 7    0  0.4770865E-002  0.4568971E+03  0.7546771E-02  0.1025685E+00
         21   -1    0    0  502  501  0.00000000000E+00  0.00000000000E+00  0.21392341333E+03  0.21392341333E+03  0.00000000000E+00 0. -1.
         21   -1    0    0  501  502 -0.00000000000E+00 -0.00000000000E+00 -0.24395992450E+03  0.24395992450E+03  0.00000000000E+00 0. -1.
      99926    2    1    2    0    0  0.00000000000E+00  0.00000000000E+00 -0.30036511177E+02  0.45788333783E+03  0.45689709898E+03 0.  0.
      99925    2    3    3    0    0  0.83137568180E+02 -0.51591609038E+02 -0.79290808640E+02  0.29160933720E+03  0.26301221234E+03 0.  0.
         25    1    3    3    0    0 -0.83137568180E+02  0.51591609038E+02  0.49254297463E+02  0.16627400063E+03  0.12509000000E+03 0.  0.
         25    1    4    4    0    0  0.93461276518E+01 -0.34812572495E+02 -0.62635454104E+02  0.14446443686E+03  0.12509000000E+03 0.  0.
         25    1    4    4    0    0  0.73791440529E+02 -0.16779036544E+02 -0.16655354536E+02  0.14714490034E+03  0.12509000000E+03 0.  0.
<mgrwt>
<rscale>  2 0.45689710E+03</rscale>
<asrwt>0</asrwt>
<pdfrwt beam="1">  1       21 0.31459326E-01 0.45689710E+03</pdfrwt>
<pdfrwt beam="2">  1       21 0.35876459E-01 0.45689710E+03</pdfrwt>
<totfact> 0.67310479E+04</totfact>
</mgrwt>
</event>
<event>
 7    0  0.4770865E-002  0.4496903E+03  0.7546771E-02  0.1027814E+00
         21   -1    0    0  502  501  0.00000000000E+00  0.00000000000E+00  0.32289781459E+02  0.32289781459E+02  0.00000000000E+00 0. -1.
         21   -1    0    0  501  502 -0.00000000000E+00 -0.00000000000E+00 -0.15656764026E+04  0.15656764026E+04  0.00000000000E+00 0. -1.
      99926    2    1    2    0    0 -0.35527136788E-14  0.00000000000E+00 -0.15333866211E+04  0.15979661841E+04  0.44969033290E+03 0.  0.
      99925    2    3    3    0    0 -0.16845054028E+02  0.51353721042E+02 -0.13023840701E+04  0.13297672892E+04  0.26297493589E+03 0.  0.
         25    1    4    4    0    0 -0.18430145025E+02 -0.14128509472E+02 -0.62905643275E+03  0.64179341592E+03  0.12509000000E+03 0.  0.
         25    1    4    4    0    0  0.15850909973E+01  0.65482230514E+02 -0.67332763731E+03  0.68797387326E+03  0.12509000000E+03 0.  0.
         25    1    3    3    0    0  0.16845054028E+02 -0.51353721042E+02 -0.23100255107E+03  0.26819889487E+03  0.12509000000E+03 0.  0.
<mgrwt>
<rscale>  2 0.44969033E+03</rscale>
<asrwt>0</asrwt>
<pdfrwt beam="1">  1       21 0.47484967E-02 0.44969033E+03</pdfrwt>
<pdfrwt beam="2">  1       21 0.23024656E+00 0.44969033E+03</pdfrwt>
<totfact> 0.22384563E+04</totfact>
</mgrwt>
</event>
<event>
 7    0  0.4770865E-002  0.4512972E+03  0.7546771E-02  0.1027336E+00
         21   -1    0    0  502  501  0.00000000000E+00  0.00000000000E+00  0.66981107090E+03  0.66981107090E+03  0.00000000000E+00 0. -1.
         21   -1    0    0  501  502 -0.00000000000E+00 -0.00000000000E+00 -0.76017401542E+02  0.76017401542E+02  0.00000000000E+00 0. -1.
      99926    2    1    2    0    0  0.00000000000E+00  0.00000000000E+00  0.59379366936E+03  0.74582847245E+03  0.45129722859E+03 0.  0.
      99925    2    3    3    0    0 -0.77849115582E+02 -0.72645431697E+02  0.33114640866E+03  0.43603993941E+03  0.26293543172E+03 0.  0.
         25    1    4    4    0    0 -0.40171662778E+02 -0.56659556283E+02  0.22643834892E+03  0.26785425472E+03  0.12509000000E+03 0.  0.
         25    1    4    4    0    0 -0.37677452805E+02 -0.15985875413E+02  0.10470805974E+03  0.16818568470E+03  0.12509000000E+03 0.  0.
         25    1    3    3    0    0  0.77849115582E+02  0.72645431697E+02  0.26264726070E+03  0.30978853303E+03  0.12509000000E+03 0.  0.
<mgrwt>
<rscale>  2 0.45129723E+03</rscale>
<asrwt>0</asrwt>
<pdfrwt beam="1">  1       21 0.98501625E-01 0.45129723E+03</pdfrwt>
<pdfrwt beam="2">  1       21 0.11179030E-01 0.45129723E+03</pdfrwt>
<totfact> 0.51980835E+04</totfact>
</mgrwt>
</event>
<event>
 7    0  0.4770865E-002  0.4451816E+03  0.7546771E-02  0.1029169E+00
         21   -1    0    0  502  501  0.00000000000E+00  0.00000000000E+00  0.18182289025E+03  0.18182289025E+03  0.00000000000E+00 0. -1.
         21   -1    0    0  501  502 -0.00000000000E+00 -0.00000000000E+00 -0.27249965124E+03  0.27249965124E+03  0.00000000000E+00 0. -1.
      99926    2    1    2    0    0  0.00000000000E+00 -0.71054273576E-14 -0.90676760994E+02  0.45432254149E+03  0.44518164463E+03 0.  0.
      99925    2    3    3    0    0 -0.59860994228E+02 -0.60168408230E+02  0.31797131185E+01  0.27638962769E+03  0.26301623475E+03 0.  0.
         25    1    4    4    0    0 -0.27213935589E+02 -0.55783142243E+02  0.33337510663E+02  0.14356620412E+03  0.12509000000E+03 0.  0.
         25    1    4    4    0    0 -0.32647058640E+02 -0.43852659871E+01 -0.30157797545E+02  0.13282342357E+03  0.12509000000E+03 0.  0.
         25    1    3    3    0    0  0.59860994228E+02  0.60168408230E+02 -0.93856474112E+02  0.17793291380E+03  0.12509000000E+03 0.  0.
<mgrwt>
<rscale>  2 0.44518164E+03</rscale>
<asrwt>0</asrwt>
<pdfrwt beam="1">  1       21 0.26738661E-01 0.44518164E+03</pdfrwt>
<pdfrwt beam="2">  1       21 0.40073477E-01 0.44518164E+03</pdfrwt>
<totfact> 0.74235312E+04</totfact>
</mgrwt>
</event>
<event>
 7    0  0.4770865E-002  0.4586128E+03  0.7546771E-02  0.1025184E+00
         21   -1    0    0  502  501  0.00000000000E+00  0.00000000000E+00  0.15671043138E+03  0.15671043138E+03  0.00000000000E+00 0.  1.
         21   -1    0    0  501  502 -0.00000000000E+00 -0.00000000000E+00 -0.33553231638E+03  0.33553231638E+03  0.00000000000E+00 0.  1.
      99926    2    1    2    0    0  0.00000000000E+00 -0.71054273576E-14 -0.17882188500E+03  0.49224274776E+03  0.45861275186E+03 0.  0.
      99925    2    3    3    0    0 -0.99442734528E+02 -0.61428559080E+02 -0.11747640418E+03  0.31038263274E+03  0.26243922695E+03 0.  0.
         25    1    4    4    0    0 -0.44781949540E+02 -0.70106453887E+02 -0.54650097370E+02  0.15985768397E+03  0.12509000000E+03 0.  0.
         25    1    3    3    0    0  0.99442734528E+02  0.61428559080E+02 -0.61345480821E+02  0.18186011503E+03  0.12509000000E+03 0.  0.
         25    1    4    4    0    0 -0.54660784989E+02  0.86778948066E+01 -0.62826306810E+02  0.15052494877E+03  0.12509000000E+03 0.  0.
<mgrwt>
<rscale>  2 0.45861275E+03</rscale>
<asrwt>0</asrwt>
<pdfrwt beam="1">  1       21 0.23045652E-01 0.45861275E+03</pdfrwt>
<pdfrwt beam="2">  1       21 0.49342987E-01 0.45861275E+03</pdfrwt>
<totfact> 0.63964821E+04</totfact>
</mgrwt>
</event>
<event>
 7    0  0.4770865E-002  0.4563621E+03  0.7546771E-02  0.1025842E+00
         21   -1    0    0  502  501  0.00000000000E+00  0.00000000000E+00  0.16144829885E+03  0.16144829885E+03  0.00000000000E+00 0.  1.
         21   -1    0    0  501  502 -0.00000000000E+00 -0.00000000000E+00 -0.32249693438E+03  0.32249693438E+03  0.00000000000E+00 0.  1.
      99926    2    1    2    0    0  0.00000000000E+00  0.00000000000E+00 -0.16104863553E+03  0.48394523323E+03  0.45636205557E+03 0.  0.
      99925    2    3    3    0    0 -0.10110113850E+03  0.12924526750E+02 -0.15564585240E+03  0.32249808472E+03  0.26342152471E+03 0.  0.
         25    1    3    3    0    0  0.10110113850E+03 -0.12924526750E+02 -0.54027831260E+01  0.16144714851E+03  0.12509000000E+03 0.  0.
         25    1    4    4    0    0 -0.77289996793E+02  0.10766162773E+02 -0.45995018610E+02  0.15444320543E+03  0.12509000000E+03 0.  0.
         25    1    4    4    0    0 -0.23811141705E+02  0.21583639773E+01 -0.10965083379E+03  0.16805487930E+03  0.12509000000E+03 0.  0.
<mgrwt>
<rscale>  2 0.45636206E+03</rscale>
<asrwt>0</asrwt>
<pdfrwt beam="1">  1       21 0.23742397E-01 0.45636206E+03</pdfrwt>
<pdfrwt beam="2">  1       21 0.47426019E-01 0.45636206E+03</pdfrwt>
<totfact> 0.65700778E+04</totfact>
</mgrwt>
</event>
<event>
 7    0  0.4770865E-002  0.4502218E+03  0.7546771E-02  0.1027656E+00
         21   -1    0    0  502  501  0.00000000000E+00  0.00000000000E+00  0.10730107207E+04  0.10730107207E+04  0.00000000000E+00 0.  1.
         21   -1    0    0  501  502 -0.00000000000E+00 -0.00000000000E+00 -0.47226855449E+02  0.47226855449E+02  0.00000000000E+00 0.  1.
      99926    2    1    2    0    0 -0.88817841970E-15  0.00000000000E+00  0.10257838653E+04  0.11202375762E+04  0.45022182178E+03 0.  0.
      99925    2    3    3    0    0 -0.68577394105E+01  0.10031941033E+03  0.54571557314E+03  0.61405175466E+03  0.26295067591E+03 0.  0.
         25    1    3    3    0    0  0.68577394105E+01 -0.10031941033E+03  0.48006829212E+03  0.50618582149E+03  0.12509000000E+03 0.  0.
         25    1    4    4    0    0  0.93380473363E+01  0.58237161651E+02  0.19573909872E+03  0.23966657880E+03  0.12509000000E+03 0.  0.
         25    1    4    4    0    0 -0.16195786747E+02  0.42082248683E+02  0.34997647442E+03  0.37438517587E+03  0.12509000000E+03 0.  0.
<mgrwt>
<rscale>  2 0.45022182E+03</rscale>
<asrwt>0</asrwt>
<pdfrwt beam="1">  1       21 0.15779568E+00 0.45022182E+03</pdfrwt>
<pdfrwt beam="2">  1       21 0.69451265E-02 0.45022182E+03</pdfrwt>
<totfact> 0.36118561E+04</totfact>
</mgrwt>
</event>
<event>
 7    0  0.4770865E-002  0.4387231E+03  0.7546771E-02  0.1031139E+00
         21   -1    0    0  502  501  0.00000000000E+00  0.00000000000E+00  0.90439284859E+02  0.90439284859E+02  0.00000000000E+00 0.  1.
         21   -1    0    0  501  502 -0.00000000000E+00 -0.00000000000E+00 -0.53206393219E+03  0.53206393219E+03  0.00000000000E+00 0.  1.
      99926    2    1    2    0    0  0.00000000000E+00  0.00000000000E+00 -0.44162464733E+03  0.62250321705E+03  0.43872306311E+03 0.  0.
      99925    2    3    3    0    0  0.34381357236E+02  0.22622696244E+02 -0.15735118101E+03  0.30920978293E+03  0.26297800589E+03 0.  0.
         25    1    4    4    0    0  0.29649635321E+01 -0.25390634019E+02 -0.63179394298E+02  0.14245216484E+03  0.12509000000E+03 0.  0.
         25    1    3    3    0    0 -0.34381357236E+02 -0.22622696244E+02 -0.28427346632E+03  0.31329343412E+03  0.12509000000E+03 0.  0.
         25    1    4    4    0    0  0.31416393704E+02  0.48013330264E+02 -0.94171786716E+02  0.16675761809E+03  0.12509000000E+03 0.  0.
<mgrwt>
<rscale>  2 0.43872306E+03</rscale>
<asrwt>0</asrwt>
<pdfrwt beam="1">  1       21 0.13299895E-01 0.43872306E+03</pdfrwt>
<pdfrwt beam="2">  1       21 0.78244696E-01 0.43872306E+03</pdfrwt>
<totfact> 0.65311009E+04</totfact>
</mgrwt>
</event>
<event>
 7    0  0.4770865E-002  0.4587121E+03  0.7546771E-02  0.1025155E+00
         21   -1    0    0  502  501  0.00000000000E+00  0.00000000000E+00  0.87460621481E+02  0.87460621481E+02  0.00000000000E+00 0. -1.
         21   -1    0    0  501  502 -0.00000000000E+00 -0.00000000000E+00 -0.60146161545E+03  0.60146161545E+03  0.00000000000E+00 0. -1.
      99926    2    1    2    0    0  0.00000000000E+00  0.00000000000E+00 -0.51400099396E+03  0.68892223693E+03  0.45871213929E+03 0.  0.
      99925    2    3    3    0    0 -0.60699482403E+02  0.78351078745E+02 -0.22991763940E+03  0.36307844130E+03  0.26294584030E+03 0.  0.
         25    1    3    3    0    0  0.60699482403E+02 -0.78351078745E+02 -0.28408335457E+03  0.32584379562E+03  0.12509000000E+03 0.  0.
         25    1    4    4    0    0 -0.16400184606E+02 -0.12970364197E+01 -0.99291901528E+02  0.16055229107E+03  0.12509000000E+03 0.  0.
         25    1    4    4    0    0 -0.44299297797E+02  0.79648115165E+02 -0.13062573787E+03  0.20252615023E+03  0.12509000000E+03 0.  0.
<mgrwt>
<rscale>  2 0.45871214E+03</rscale>
<asrwt>0</asrwt>
<pdfrwt beam="1">  1       21 0.12861856E-01 0.45871214E+03</pdfrwt>
<pdfrwt beam="2">  1       21 0.88450236E-01 0.45871214E+03</pdfrwt>
<totfact> 0.51973119E+04</totfact>
</mgrwt>
</event>
<event>
 7    0  0.4770865E-002  0.4464215E+03  0.7546771E-02  0.1028795E+00
         21   -1    0    0  502  501  0.00000000000E+00  0.00000000000E+00  0.72859113169E+02  0.72859113169E+02  0.00000000000E+00 0.  1.
         21   -1    0    0  501  502 -0.00000000000E+00 -0.00000000000E+00 -0.68382727269E+03  0.68382727269E+03  0.00000000000E+00 0.  1.
      99926    2    1    2    0    0  0.00000000000E+00  0.00000000000E+00 -0.61096815953E+03  0.75668638586E+03  0.44642154361E+03 0.  0.
      99925    2    3    3    0    0  0.68378841197E+02  0.74634460095E+02 -0.34049701797E+03  0.44196728083E+03  0.26296556718E+03 0.  0.
         25    1    3    3    0    0 -0.68378841197E+02 -0.74634460095E+02 -0.27047114155E+03  0.31471910503E+03  0.12509000000E+03 0.  0.
         25    1    4    4    0    0  0.48616426373E+02  0.13637441707E+02 -0.21340369972E+03  0.25246422298E+03  0.12509000000E+03 0.  0.
         25    1    4    4    0    0  0.19762414825E+02  0.60997018388E+02 -0.12709331825E+03  0.18950305785E+03  0.12509000000E+03 0.  0.
<mgrwt>
<rscale>  2 0.44642154E+03</rscale>
<asrwt>0</asrwt>
<pdfrwt beam="1">  1       21 0.10714576E-01 0.44642154E+03</pdfrwt>
<pdfrwt beam="2">  1       21 0.10056283E+00 0.44642154E+03</pdfrwt>
<totfact> 0.53440162E+04</totfact>
</mgrwt>
</event>
<event>
 7    0  0.4770865E-002  0.4403401E+03  0.7546771E-02  0.1030643E+00
         21   -1    0    0  502  501  0.00000000000E+00  0.00000000000E+00  0.22102233489E+03  0.22102233489E+03  0.00000000000E+00 0.  1.
         21   -1    0    0  501  502 -0.00000000000E+00 -0.00000000000E+00 -0.21932102240E+03  0.21932102240E+03  0.00000000000E+00 0.  1.
      99926    2    1    2    0    0  0.00000000000E+00 -0.35527136788E-14  0.17013124848E+01  0.44034335729E+03  0.44034007068E+03 0.  0.
      99925    2    3    3    0    0  0.77111738805E+02  0.19443471317E+02  0.59652334743E+02  0.28118903621E+03  0.26302966411E+03 0.  0.
         25    1    4    4    0    0  0.87261687664E+01 -0.19525481298E+02  0.23951582342E+02  0.12914556453E+03  0.12509000000E+03 0.  0.
         25    1    3    3    0    0 -0.77111738805E+02 -0.19443471317E+02 -0.57951022259E+02  0.15915432108E+03  0.12509000000E+03 0.  0.
         25    1    4    4    0    0  0.68385570038E+02  0.38968952615E+02  0.35700752401E+02  0.15204347168E+03  0.12509000000E+03 0.  0.
<mgrwt>
<rscale>  2 0.44034007E+03</rscale>
<asrwt>0</asrwt>
<pdfrwt beam="1">  1       21 0.32503285E-01 0.44034007E+03</pdfrwt>
<pdfrwt beam="2">  1       21 0.32253091E-01 0.44034007E+03</pdfrwt>
<totfact> 0.78411396E+04</totfact>
</mgrwt>
</event>
<event>
 7    0  0.4770865E-002  0.4562704E+03  0.7546771E-02  0.1025868E+00
         21   -1    0    0  502  501  0.00000000000E+00  0.00000000000E+00  0.46586660273E+03  0.46586660273E+03  0.00000000000E+00 0.  1.
         21   -1    0    0  501  502 -0.00000000000E+00 -0.00000000000E+00 -0.11171794384E+03  0.11171794384E+03  0.00000000000E+00 0.  1.
      99926    2    1    2    0    0  0.00000000000E+00  0.17763568394E-14  0.35414865889E+03  0.57758454657E+03  0.45627035390E+03 0.  0.
      99925    2    3    3    0    0  0.41935705889E+02 -0.12537208490E+02  0.35606006080E+03  0.44504418826E+03  0.26338142984E+03 0.  0.
         25    1    3    3    0    0 -0.41935705889E+02  0.12537208490E+02 -0.19114019095E+01  0.13254035832E+03  0.12509000000E+03 0.  0.
         25    1    4    4    0    0 -0.11129480379E+02 -0.36549477968E+01  0.21475458486E+03  0.24880567477E+03  0.12509000000E+03 0.  0.
         25    1    4    4    0    0  0.53065186268E+02 -0.88822606927E+01  0.14130547593E+03  0.19623851349E+03  0.12509000000E+03 0.  0.
<mgrwt>
<rscale>  2 0.45627035E+03</rscale>
<asrwt>0</asrwt>
<pdfrwt beam="1">  1       21 0.68509794E-01 0.45627035E+03</pdfrwt>
<pdfrwt beam="2">  1       21 0.16429110E-01 0.45627035E+03</pdfrwt>
<totfact> 0.59479999E+04</totfact>
</mgrwt>
</event>
<event>
 7    0  0.4770865E-002  0.4521979E+03  0.7546771E-02  0.1027069E+00
         21   -1    0    0  502  501  0.00000000000E+00  0.00000000000E+00  0.10750341088E+03  0.10750341088E+03  0.00000000000E+00 0. -1.
         21   -1    0    0  501  502 -0.00000000000E+00 -0.00000000000E+00 -0.47552665471E+03  0.47552665471E+03  0.00000000000E+00 0. -1.
      99926    2    1    2    0    0  0.35527136788E-14 -0.14210854715E-13 -0.36802324383E+03  0.58303006559E+03  0.45219790953E+03 0.  0.
      99925    2    3    3    0    0  0.19902166099E+02 -0.10729696704E+03 -0.20988782949E+03  0.35376372981E+03  0.26303448484E+03 0.  0.
         25    1    3    3    0    0 -0.19902166099E+02  0.10729696704E+03 -0.15813541434E+03  0.22926633578E+03  0.12509000000E+03 0.  0.
         25    1    4    4    0    0 -0.39483582846E+00 -0.41067804028E+02 -0.14762733251E+03  0.19780813388E+03  0.12509000000E+03 0.  0.
         25    1    4    4    0    0  0.20297001928E+02 -0.66229163011E+02 -0.62260496978E+02  0.15595559594E+03  0.12509000000E+03 0.  0.
<mgrwt>
<rscale>  2 0.45219791E+03</rscale>
<asrwt>0</asrwt>
<pdfrwt beam="1">  1       21 0.15809326E-01 0.45219791E+03</pdfrwt>
<pdfrwt beam="2">  1       21 0.69930388E-01 0.45219791E+03</pdfrwt>
<totfact> 0.61076838E+04</totfact>
</mgrwt>
</event>
<event>
 7    0  0.4770865E-002  0.4580527E+03  0.7546771E-02  0.1025348E+00
         21   -1    0    0  502  501  0.00000000000E+00  0.00000000000E+00  0.45431221029E+03  0.45431221029E+03  0.00000000000E+00 0. -1.
         21   -1    0    0  501  502 -0.00000000000E+00 -0.00000000000E+00 -0.11545599309E+03  0.11545599309E+03  0.00000000000E+00 0. -1.
      99926    2    1    2    0    0  0.00000000000E+00  0.71054273576E-14  0.33885621720E+03  0.56976820339E+03  0.45805269309E+03 0.  0.
      99925    2    3    3    0    0  0.10565175587E+03 -0.47449772480E+02  0.22088344598E+03  0.36245477575E+03  0.26300226868E+03 0.  0.
         25    1    4    4    0    0  0.54885791178E+02 -0.60071238954E+02  0.13974682796E+03  0.20444482837E+03  0.12509000000E+03 0.  0.
         25    1    4    4    0    0  0.50765964694E+02  0.12621466474E+02  0.81136618023E+02  0.15800994738E+03  0.12509000000E+03 0.  0.
         25    1    3    3    0    0 -0.10565175587E+03  0.47449772480E+02  0.11797277122E+03  0.20731342763E+03  0.12509000000E+03 0.  0.
<mgrwt>
<rscale>  2 0.45805269E+03</rscale>
<asrwt>0</asrwt>
<pdfrwt beam="1">  1       21 0.66810619E-01 0.45805269E+03</pdfrwt>
<pdfrwt beam="2">  1       21 0.16978823E-01 0.45805269E+03</pdfrwt>
<totfact> 0.59138195E+04</totfact>
</mgrwt>
</event>
<event>
 7    0  0.4770865E-002  0.4533115E+03  0.7546771E-02  0.1026739E+00
         21   -1    0    0  502  501  0.00000000000E+00  0.00000000000E+00  0.15640671940E+03  0.15640671940E+03  0.00000000000E+00 0.  1.
         21   -1    0    0  501  502 -0.00000000000E+00 -0.00000000000E+00 -0.32845665117E+03  0.32845665117E+03  0.00000000000E+00 0.  1.
      99926    2    1    2    0    0  0.17763568394E-14  0.00000000000E+00 -0.17204993177E+03  0.48486337057E+03  0.45331149235E+03 0.  0.
      99925    2    3    3    0    0  0.90153763722E+01 -0.11013029276E+03 -0.90215641721E+02  0.29897545401E+03  0.26274988429E+03 0.  0.
         25    1    3    3    0    0 -0.90153763722E+01  0.11013029276E+03 -0.81834290051E+02  0.18588791656E+03  0.12509000000E+03 0.  0.
         25    1    4    4    0    0 -0.23832747278E+02 -0.61030919016E+02 -0.74755083572E+02  0.15977673028E+03  0.12509000000E+03 0.  0.
         25    1    4    4    0    0  0.32848123650E+02 -0.49099373747E+02 -0.15460558149E+02  0.13919872373E+03  0.12509000000E+03 0.  0.
<mgrwt>
<rscale>  2 0.45331149E+03</rscale>
<asrwt>0</asrwt>
<pdfrwt beam="1">  1       21 0.23000988E-01 0.45331149E+03</pdfrwt>
<pdfrwt beam="2">  1       21 0.48302448E-01 0.45331149E+03</pdfrwt>
<totfact> 0.67244600E+04</totfact>
</mgrwt>
</event>
<event>
 7    0  0.4770865E-002  0.4734727E+03  0.7546771E-02  0.1020945E+00
         21   -1    0    0  502  501  0.00000000000E+00  0.00000000000E+00  0.14259188214E+03  0.14259188214E+03  0.00000000000E+00 0. -1.
         21   -1    0    0  501  502 -0.00000000000E+00 -0.00000000000E+00 -0.39303844106E+03  0.39303844106E+03  0.00000000000E+00 0. -1.
      99926    2    1    2    0    0  0.14210854715E-13  0.16653345369E-15 -0.25044655892E+03  0.53563032320E+03  0.47347266474E+03 0.  0.
      99925    2    3    3    0    0  0.80679849825E+02 -0.46513273322E+00 -0.27001178607E+03  0.38549784593E+03  0.26304518640E+03 0.  0.
         25    1    4    4    0    0  0.88130357254E+01 -0.27363727856E+02 -0.12276580673E+03  0.17761023226E+03  0.12509000000E+03 0.  0.
         25    1    4    4    0    0  0.71866814099E+02  0.26898595123E+02 -0.14724597934E+03  0.20788761367E+03  0.12509000000E+03 0.  0.
         25    1    3    3    0    0 -0.80679849825E+02  0.46513273322E+00  0.19565227144E+02  0.15013247726E+03  0.12509000000E+03 0.  0.
<mgrwt>
<rscale>  2 0.47347266E+03</rscale>
<asrwt>0</asrwt>
<pdfrwt beam="1">  1       21 0.20969394E-01 0.47347266E+03</pdfrwt>
<pdfrwt beam="2">  1       21 0.57799771E-01 0.47347266E+03</pdfrwt>
<totfact> 0.54411733E+04</totfact>
</mgrwt>
</event>
<event>
 7    0  0.4770865E-002  0.4548356E+03  0.7546771E-02  0.1026290E+00
         21   -1    0    0  502  501  0.00000000000E+00  0.00000000000E+00  0.10975768102E+03  0.10975768102E+03  0.00000000000E+00 0.  1.
         21   -1    0    0  501  502 -0.00000000000E+00 -0.00000000000E+00 -0.47120939918E+03  0.47120939918E+03  0.00000000000E+00 0.  1.
      99926    2    1    2    0    0  0.71054273576E-14  0.00000000000E+00 -0.36145171817E+03  0.58096708020E+03  0.45483557876E+03 0.  0.
      99925    2    3    3    0    0 -0.55648871085E+02 -0.97688110387E+02 -0.24196982271E+03  0.37465858497E+03  0.26302071481E+03 0.  0.
         25    1    3    3    0    0  0.55648871085E+02  0.97688110387E+02 -0.11948189545E+03  0.20630849523E+03  0.12509000000E+03 0.  0.
         25    1    4    4    0    0 -0.57678057833E+02 -0.59041893118E+02 -0.93248558267E+02  0.17650922134E+03  0.12509000000E+03 0.  0.
         25    1    4    4    0    0  0.20291867481E+01 -0.38646217269E+02 -0.14872126445E+03  0.19814936363E+03  0.12509000000E+03 0.  0.
<mgrwt>
<rscale>  2 0.45483558E+03</rscale>
<asrwt>0</asrwt>
<pdfrwt beam="1">  1       21 0.16140835E-01 0.45483558E+03</pdfrwt>
<pdfrwt beam="2">  1       21 0.69295501E-01 0.45483558E+03</pdfrwt>
<totfact> 0.59943235E+04</totfact>
</mgrwt>
</event>
<event>
 7    0  0.4770865E-002  0.4389553E+03  0.7546771E-02  0.1031068E+00
         21   -1    0    0  502  501  0.00000000000E+00  0.00000000000E+00  0.62179606692E+03  0.62179606692E+03  0.00000000000E+00 0. -1.
         21   -1    0    0  501  502 -0.00000000000E+00 -0.00000000000E+00 -0.77469835442E+02  0.77469835442E+02  0.00000000000E+00 0. -1.
      99926    2    1    2    0    0  0.00000000000E+00 -0.71054273576E-14  0.54432623147E+03  0.69926590236E+03  0.43895530061E+03 0.  0.
      99925    2    3    3    0    0  0.85151947184E+02 -0.44021805678E+02  0.31955742128E+03  0.42475306182E+03  0.26288675232E+03 0.  0.
         25    1    4    4    0    0  0.43785625891E+02 -0.53299714312E+02  0.20532816273E+03  0.25013037219E+03  0.12509000000E+03 0.  0.
         25    1    4    4    0    0  0.41366321293E+02  0.92779086341E+01  0.11422925856E+03  0.17462268964E+03  0.12509000000E+03 0.  0.
         25    1    3    3    0    0 -0.85151947184E+02  0.44021805678E+02  0.22476881019E+03  0.27451284054E+03  0.12509000000E+03 0.  0.
<mgrwt>
<rscale>  2 0.43895530E+03</rscale>
<asrwt>0</asrwt>
<pdfrwt beam="1">  1       21 0.91440596E-01 0.43895530E+03</pdfrwt>
<pdfrwt beam="2">  1       21 0.11392623E-01 0.43895530E+03</pdfrwt>
<totfact> 0.60190465E+04</totfact>
</mgrwt>
</event>
<event>
 7    0  0.4770865E-002  0.4562023E+03  0.7546771E-02  0.1025888E+00
         21   -1    0    0  502  501  0.00000000000E+00  0.00000000000E+00  0.14499050502E+04  0.14499050502E+04  0.00000000000E+00 0. -1.
         21   -1    0    0  501  502 -0.00000000000E+00 -0.00000000000E+00 -0.35885201171E+02  0.35885201171E+02  0.00000000000E+00 0. -1.
      99926    2    1    2    0    0  0.00000000000E+00 -0.71054273576E-14  0.14140198490E+04  0.14857902514E+04  0.45620229901E+03 0.  0.
      99925    2    3    3    0    0 -0.29472365711E+02 -0.37446418675E+02  0.12271236301E+04  0.12559021060E+04  0.26303391761E+03 0.  0.
         25    1    4    4    0    0 -0.98445295239E+01 -0.40546732914E+02  0.46542621284E+03  0.48374582170E+03  0.12509000000E+03 0.  0.
         25    1    4    4    0    0 -0.19627836187E+02  0.31003142387E+01  0.76169741722E+03  0.77215628431E+03  0.12509000000E+03 0.  0.
         25    1    3    3    0    0  0.29472365711E+02  0.37446418675E+02  0.18689621896E+03  0.22988814536E+03  0.12509000000E+03 0.  0.
<mgrwt>
<rscale>  2 0.45620230E+03</rscale>
<asrwt>0</asrwt>
<pdfrwt beam="1">  1       21 0.21322129E+00 0.45620230E+03</pdfrwt>
<pdfrwt beam="2">  1       21 0.52772364E-02 0.45620230E+03</pdfrwt>
<totfact> 0.23905512E+04</totfact>
</mgrwt>
</event>
<event>
 7    0  0.4770865E-002  0.4610475E+03  0.7546771E-02  0.1024478E+00
         21   -1    0    0  502  501  0.00000000000E+00  0.00000000000E+00  0.51562429954E+02  0.51562429954E+02  0.00000000000E+00 0. -1.
         21   -1    0    0  501  502 -0.00000000000E+00 -0.00000000000E+00 -0.10306187060E+04  0.10306187060E+04  0.00000000000E+00 0. -1.
      99926    2    1    2    0    0 -0.71054273576E-14 -0.35527136788E-14 -0.97905627602E+03  0.10821811359E+04  0.46104752395E+03 0.  0.
      99925    2    3    3    0    0 -0.47103302895E+02  0.26699519526E+02 -0.86085383160E+03  0.90176242444E+03  0.26301058015E+03 0.  0.
         25    1    3    3    0    0  0.47103302895E+02 -0.26699519526E+02 -0.11820244442E+03  0.18041871148E+03  0.12509000000E+03 0.  0.
         25    1    4    4    0    0 -0.47617546250E+02  0.45785684905E+02 -0.42613706678E+03  0.44900341584E+03  0.12509000000E+03 0.  0.
         25    1    4    4    0    0  0.51424335527E+00 -0.19086165379E+02 -0.43471676481E+03  0.45275900860E+03  0.12509000000E+03 0.  0.
<mgrwt>
<rscale>  2 0.46104752E+03</rscale>
<asrwt>0</asrwt>
<pdfrwt beam="1">  1       21 0.75827112E-02 0.46104752E+03</pdfrwt>
<pdfrwt beam="2">  1       21 0.15156156E+00 0.46104752E+03</pdfrwt>
<totfact> 0.34463113E+04</totfact>
</mgrwt>
</event>
<event>
 7    0  0.4770865E-002  0.4552279E+03  0.7546771E-02  0.1026174E+00
         21   -1    0    0  502  501  0.00000000000E+00  0.00000000000E+00  0.28070771161E+02  0.28070771161E+02  0.00000000000E+00 0. -1.
         21   -1    0    0  501  502 -0.00000000000E+00 -0.00000000000E+00 -0.18456246313E+04  0.18456246313E+04  0.00000000000E+00 0. -1.
      99926    2    1    2    0    0  0.00000000000E+00  0.00000000000E+00 -0.18175538602E+04  0.18736954025E+04  0.45522788436E+03 0.  0.
      99925    2    3    3    0    0 -0.62486548124E+02  0.83670255866E+02 -0.13229975574E+04  0.13529855744E+04  0.26332897125E+03 0.  0.
         25    1    4    4    0    0 -0.31050719670E+02  0.76155983729E+02 -0.59049094386E+03  0.60917234337E+03  0.12509000000E+03 0.  0.
         25    1    3    3    0    0  0.62486548124E+02 -0.83670255866E+02 -0.49455630272E+03  0.52070982809E+03  0.12509000000E+03 0.  0.
         25    1    4    4    0    0 -0.31435828453E+02  0.75142721371E+01 -0.73250661359E+03  0.74381323103E+03  0.12509000000E+03 0.  0.
<mgrwt>
<rscale>  2 0.45522788E+03</rscale>
<asrwt>0</asrwt>
<pdfrwt beam="1">  1       21 0.41280538E-02 0.45522788E+03</pdfrwt>
<pdfrwt beam="2">  1       21 0.27141544E+00 0.45522788E+03</pdfrwt>
<totfact> 0.15855486E+04</totfact>
</mgrwt>
</event>
<event>
 7    0  0.4770865E-002  0.4608744E+03  0.7546771E-02  0.1024528E+00
         21   -1    0    0  502  501  0.00000000000E+00  0.00000000000E+00  0.42650215850E+03  0.42650215850E+03  0.00000000000E+00 0. -1.
         21   -1    0    0  501  502 -0.00000000000E+00 -0.00000000000E+00 -0.12450418113E+03  0.12450418113E+03  0.00000000000E+00 0. -1.
      99926    2    1    2    0    0 -0.71054273576E-14  0.00000000000E+00  0.30199797737E+03  0.55100633963E+03  0.46087439501E+03 0.  0.
      99925    2    3    3    0    0 -0.51979029928E+02  0.76350587859E+02  0.27805157131E+03  0.39367811495E+03  0.26294210401E+03 0.  0.
         25    1    3    3    0    0  0.51979029928E+02 -0.76350587859E+02  0.23946406068E+02  0.15732822468E+03  0.12509000000E+03 0.  0.
         25    1    4    4    0    0 -0.46785502852E+02  0.26851223081E+02  0.18615867536E+03  0.23067820003E+03  0.12509000000E+03 0.  0.
         25    1    4    4    0    0 -0.51935270760E+01  0.49499364778E+02  0.91892895947E+02  0.16299991492E+03  0.12509000000E+03 0.  0.
<mgrwt>
<rscale>  2 0.46087440E+03</rscale>
<asrwt>0</asrwt>
<pdfrwt beam="1">  1       21 0.62720905E-01 0.46087440E+03</pdfrwt>
<pdfrwt beam="2">  1       21 0.18309439E-01 0.46087440E+03</pdfrwt>
<totfact> 0.59009280E+04</totfact>
</mgrwt>
</event>
<event>
 7    0  0.4770865E-002  0.4861967E+03  0.7546771E-02  0.1017446E+00
         21   -1    0    0  502  501  0.00000000000E+00  0.00000000000E+00  0.30747858845E+02  0.30747858845E+02  0.00000000000E+00 0. -1.
         21   -1    0    0  501  502 -0.00000000000E+00 -0.00000000000E+00 -0.19219814627E+04  0.19219814627E+04  0.00000000000E+00 0. -1.
      99926    2    1    2    0    0  0.27755575616E-15  0.14210854715E-13 -0.18912336039E+04  0.19527293216E+04  0.48619672857E+03 0.  0.
      99925    2    3    3    0    0  0.28999279880E+00 -0.10839693940E+03 -0.80113052762E+03  0.85013138690E+03  0.26298911031E+03 0.  0.
         25    1    3    3    0    0 -0.28999279880E+00  0.10839693940E+03 -0.10901030763E+04  0.11025979347E+04  0.12509000000E+03 0.  0.
         25    1    4    4    0    0 -0.68276799853E+01 -0.96081516394E+02 -0.41636458289E+03  0.44529231859E+03  0.12509000000E+03 0.  0.
         25    1    4    4    0    0  0.71176727841E+01 -0.12315423004E+02 -0.38476594473E+03  0.40483906832E+03  0.12509000000E+03 0.  0.
<mgrwt>
<rscale>  2 0.48619673E+03</rscale>
<asrwt>0</asrwt>
<pdfrwt beam="1">  1       21 0.45217431E-02 0.48619673E+03</pdfrwt>
<pdfrwt beam="2">  1       21 0.28264439E+00 0.48619673E+03</pdfrwt>
<totfact> 0.11460350E+04</totfact>
</mgrwt>
</event>
<event>
 7    0  0.4770865E-002  0.4025260E+03  0.7546771E-02  0.1042908E+00
         21   -1    0    0  502  501  0.00000000000E+00  0.00000000000E+00  0.49860573496E+02  0.49860573496E+02  0.00000000000E+00 0. -1.
         21   -1    0    0  501  502 -0.00000000000E+00 -0.00000000000E+00 -0.81240149697E+03  0.81240149697E+03  0.00000000000E+00 0. -1.
      99926    2    1    2    0    0  0.17763568394E-14  0.35527136788E-14 -0.76254092348E+03  0.86226207047E+03  0.40252604660E+03 0.  0.
      99925    2    3    3    0    0  0.15350627578E+02 -0.18595825202E+02 -0.41176615071E+03  0.48907057030E+03  0.26278739199E+03 0.  0.
         25    1    3    3    0    0 -0.15350627578E+02  0.18595825202E+02 -0.35077477277E+03  0.37319150016E+03  0.12509000000E+03 0.  0.
         25    1    4    4    0    0 -0.20312017721E+01 -0.47350599604E+02 -0.19270811027E+03  0.23458501429E+03  0.12509000000E+03 0.  0.
         25    1    4    4    0    0  0.17381829351E+02  0.28754774402E+02 -0.21905804043E+03  0.25448555602E+03  0.12509000000E+03 0.  0.
<mgrwt>
<rscale>  2 0.40252605E+03</rscale>
<asrwt>0</asrwt>
<pdfrwt beam="1">  1       21 0.73324374E-02 0.40252605E+03</pdfrwt>
<pdfrwt beam="2">  1       21 0.11947081E+00 0.40252605E+03</pdfrwt>
<totfact> 0.69289551E+04</totfact>
</mgrwt>
</event>
<event>
 7    0  0.4770865E-002  0.4550263E+03  0.7546771E-02  0.1026234E+00
         21   -1    0    0  502  501  0.00000000000E+00  0.00000000000E+00  0.39894639906E+03  0.39894639906E+03  0.00000000000E+00 0. -1.
         21   -1    0    0  501  502 -0.00000000000E+00 -0.00000000000E+00 -0.12974736622E+03  0.12974736622E+03  0.00000000000E+00 0. -1.
      99926    2    1    2    0    0  0.00000000000E+00  0.00000000000E+00  0.26919903284E+03  0.52869376528E+03  0.45502634886E+03 0.  0.
      99925    2    3    3    0    0 -0.53653858419E+02 -0.22238449574E+02  0.28225498195E+03  0.39016127425E+03  0.26302977003E+03 0.  0.
         25    1    3    3    0    0  0.53653858419E+02  0.22238449574E+02 -0.13055949111E+02  0.13853249103E+03  0.12509000000E+03 0.  0.
         25    1    4    4    0    0 -0.35373432796E+02 -0.28539059256E+02  0.92556158384E+02  0.16211078991E+03  0.12509000000E+03 0.  0.
         25    1    4    4    0    0 -0.18280425623E+02  0.63006096824E+01  0.18969882357E+03  0.22805048434E+03  0.12509000000E+03 0.  0.
<mgrwt>
<rscale>  2 0.45502635E+03</rscale>
<asrwt>0</asrwt>
<pdfrwt beam="1">  1       21 0.58668588E-01 0.45502635E+03</pdfrwt>
<pdfrwt beam="2">  1       21 0.19080495E-01 0.45502635E+03</pdfrwt>
<totfact> 0.63281832E+04</totfact>
</mgrwt>
</event>
<event>
 7    0  0.4770865E-002  0.4588141E+03  0.7546771E-02  0.1025126E+00
         21   -1    0    0  502  501  0.00000000000E+00  0.00000000000E+00  0.24449748979E+03  0.24449748979E+03  0.00000000000E+00 0.  1.
         21   -1    0    0  501  502 -0.00000000000E+00 -0.00000000000E+00 -0.21524798227E+03  0.21524798227E+03  0.00000000000E+00 0.  1.
      99926    2    1    2    0    0 -0.14210854715E-13 -0.17763568394E-14  0.29249507521E+02  0.45974547206E+03  0.45881408587E+03 0.  0.
      99925    2    3    3    0    0  0.92956340182E+02 -0.11800507564E+02  0.88105272374E+02  0.29273756113E+03  0.26296883373E+03 0.  0.
         25    1    3    3    0    0 -0.92956340182E+02  0.11800507564E+02 -0.58855764853E+02  0.16700791094E+03  0.12509000000E+03 0.  0.
         25    1    4    4    0    0  0.84468177014E+02  0.12414947781E+02  0.49613818808E+02  0.15936763465E+03  0.12509000000E+03 0.  0.
         25    1    4    4    0    0  0.84881631677E+01 -0.24215455346E+02  0.38491453566E+02  0.13336992648E+03  0.12509000000E+03 0.  0.
<mgrwt>
<rscale>  2 0.45881409E+03</rscale>
<asrwt>0</asrwt>
<pdfrwt beam="1">  1       21 0.35955513E-01 0.45881409E+03</pdfrwt>
<pdfrwt beam="2">  1       21 0.31654115E-01 0.45881409E+03</pdfrwt>
<totfact> 0.66163064E+04</totfact>
</mgrwt>
</event>
<event>
 7    0  0.4770865E-002  0.4553374E+03  0.7546771E-02  0.1026142E+00
         21   -1    0    0  502  501  0.00000000000E+00  0.00000000000E+00  0.65157825984E+02  0.65157825984E+02  0.00000000000E+00 0.  1.
         21   -1    0    0  501  502 -0.00000000000E+00 -0.00000000000E+00 -0.79549982285E+03  0.79549982285E+03  0.00000000000E+00 0.  1.
      99926    2    1    2    0    0  0.00000000000E+00 -0.71054273576E-14 -0.73034199687E+03  0.86065764883E+03  0.45533740908E+03 0.  0.
      99925    2    3    3    0    0  0.27199034319E+02  0.59014416984E+02 -0.63533005686E+03  0.69066569102E+03  0.26296829983E+03 0.  0.
         25    1    4    4    0    0 -0.11135965625E+02 -0.16781464045E+01 -0.32631797108E+03  0.34965376054E+03  0.12509000000E+03 0.  0.
         25    1    3    3    0    0 -0.27199034319E+02 -0.59014416984E+02 -0.95011940004E+02  0.16999195782E+03  0.12509000000E+03 0.  0.
         25    1    4    4    0    0  0.38334999944E+02  0.60692563389E+02 -0.30901208578E+03  0.34101193048E+03  0.12509000000E+03 0.  0.
<mgrwt>
<rscale>  2 0.45533741E+03</rscale>
<asrwt>0</asrwt>
<pdfrwt beam="1">  1       21 0.95820343E-02 0.45533741E+03</pdfrwt>
<pdfrwt beam="2">  1       21 0.11698525E+00 0.45533741E+03</pdfrwt>
<totfact> 0.44847486E+04</totfact>
</mgrwt>
</event>
<event>
 7    0  0.4770865E-002  0.4505894E+03  0.7546771E-02  0.1027546E+00
         21   -1    0    0  502  501  0.00000000000E+00  0.00000000000E+00  0.90843743963E+02  0.90843743963E+02  0.00000000000E+00 0.  1.
         21   -1    0    0  501  502 -0.00000000000E+00 -0.00000000000E+00 -0.55873631925E+03  0.55873631925E+03  0.00000000000E+00 0.  1.
      99926    2    1    2    0    0  0.14210854715E-13  0.14210854715E-13 -0.46789257529E+03  0.64958006321E+03  0.45058938793E+03 0.  0.
      99925    2    3    3    0    0 -0.65714767732E+02 -0.86859091318E+02 -0.30012948006E+03  0.41366716263E+03  0.26302069157E+03 0.  0.
         25    1    4    4    0    0 -0.52915590347E+02 -0.31789506646E+02 -0.10277216479E+03  0.17326355182E+03  0.12509000000E+03 0.  0.
         25    1    3    3    0    0  0.65714767732E+02  0.86859091318E+02 -0.16776309523E+03  0.23591290059E+03  0.12509000000E+03 0.  0.
         25    1    4    4    0    0 -0.12799177385E+02 -0.55069584671E+02 -0.19735731527E+03  0.24040361080E+03  0.12509000000E+03 0.  0.
<mgrwt>
<rscale>  2 0.45058939E+03</rscale>
<asrwt>0</asrwt>
<pdfrwt beam="1">  1       21 0.13359374E-01 0.45058939E+03</pdfrwt>
<pdfrwt beam="2">  1       21 0.82167105E-01 0.45058939E+03</pdfrwt>
<totfact> 0.57707522E+04</totfact>
</mgrwt>
</event>
<event>
 7    0  0.4770865E-002  0.4527329E+03  0.7546771E-02  0.1026910E+00
         21   -1    0    0  502  501  0.00000000000E+00  0.00000000000E+00  0.28024693031E+03  0.28024693031E+03  0.00000000000E+00 0.  1.
         21   -1    0    0  501  502 -0.00000000000E+00 -0.00000000000E+00 -0.18284505231E+03  0.18284505231E+03  0.00000000000E+00 0.  1.
      99926    2    1    2    0    0  0.00000000000E+00  0.14210854715E-13  0.97401878001E+02  0.46309198262E+03  0.45273287768E+03 0.  0.
      99925    2    3    3    0    0  0.58959413500E+02  0.93317051491E+02  0.49475496925E+02  0.28951568631E+03  0.26303464274E+03 0.  0.
         25    1    3    3    0    0 -0.58959413500E+02 -0.93317051491E+02  0.47926381076E+02  0.17357629631E+03  0.12509000000E+03 0.  0.
         25    1    4    4    0    0  0.87052411943E+00  0.69566039133E+02  0.71838649923E+01  0.14331541309E+03  0.12509000000E+03 0.  0.
         25    1    4    4    0    0  0.58088889380E+02  0.23751012359E+02  0.42291631933E+02  0.14620027322E+03  0.12509000000E+03 0.  0.
<mgrwt>
<rscale>  2 0.45273288E+03</rscale>
<asrwt>0</asrwt>
<pdfrwt beam="1">  1       21 0.41212784E-01 0.45273288E+03</pdfrwt>
<pdfrwt beam="2">  1       21 0.26888978E-01 0.45273288E+03</pdfrwt>
<totfact> 0.69189434E+04</totfact>
</mgrwt>
</event>
<event>
 7    0  0.4770865E-002  0.4518727E+03  0.7546771E-02  0.1027165E+00
         21   -1    0    0  502  501  0.00000000000E+00  0.00000000000E+00  0.45541140570E+03  0.45541140570E+03  0.00000000000E+00 0. -1.
         21   -1    0    0  501  502 -0.00000000000E+00 -0.00000000000E+00 -0.11209038123E+03  0.11209038123E+03  0.00000000000E+00 0. -1.
      99926    2    1    2    0    0  0.00000000000E+00 -0.35527136788E-14  0.34332102447E+03  0.56750178693E+03  0.45187271695E+03 0.  0.
      99925    2    3    3    0    0  0.87022544332E+02 -0.20495081505E+02  0.29750886764E+03  0.40706727256E+03  0.26305753453E+03 0.  0.
         25    1    3    3    0    0 -0.87022544332E+02  0.20495081505E+02  0.45812156825E+02  0.16043451437E+03  0.12509000000E+03 0.  0.
         25    1    4    4    0    0  0.57601913739E+02  0.21736798624E+02  0.12039656298E+03  0.18420995998E+03  0.12509000000E+03 0.  0.
         25    1    4    4    0    0  0.29420630593E+02 -0.42231880129E+02  0.17711230467E+03  0.22285731258E+03  0.12509000000E+03 0.  0.
<mgrwt>
<rscale>  2 0.45187272E+03</rscale>
<asrwt>0</asrwt>
<pdfrwt beam="1">  1       21 0.66972265E-01 0.45187272E+03</pdfrwt>
<pdfrwt beam="2">  1       21 0.16483880E-01 0.45187272E+03</pdfrwt>
<totfact> 0.62249884E+04</totfact>
</mgrwt>
</event>
<event>
 7    0  0.4770865E-002  0.4514658E+03  0.7546771E-02  0.1027286E+00
         21   -1    0    0  502  501  0.00000000000E+00  0.00000000000E+00  0.51589995163E+02  0.51589995163E+02  0.00000000000E+00 0. -1.
         21   -1    0    0  501  502 -0.00000000000E+00 -0.00000000000E+00 -0.98769828851E+03  0.98769828851E+03  0.00000000000E+00 0. -1.
      99926    2    1    2    0    0  0.00000000000E+00  0.17763568394E-14 -0.93610829335E+03  0.10392882837E+04  0.45146583448E+03 0.  0.
      99925    2    3    3    0    0  0.10868161520E+03 -0.11983027465E+02 -0.61500412781E+03  0.67774896402E+03  0.26297964670E+03 0.  0.
         25    1    4    4    0    0  0.40644630727E+02 -0.26733660944E+02 -0.37496153126E+03  0.39825912753E+03  0.12509000000E+03 0.  0.
         25    1    4    4    0    0  0.68036984471E+02  0.14750633478E+02 -0.24004259655E+03  0.27948983649E+03  0.12509000000E+03 0.  0.
         25    1    3    3    0    0 -0.10868161520E+03  0.11983027465E+02 -0.32110416554E+03  0.36153931966E+03  0.12509000000E+03 0.  0.
<mgrwt>
<rscale>  2 0.45146583E+03</rscale>
<asrwt>0</asrwt>
<pdfrwt beam="1">  1       21 0.75867642E-02 0.45146583E+03</pdfrwt>
<pdfrwt beam="2">  1       21 0.14524974E+00 0.45146583E+03</pdfrwt>
<totfact> 0.38730425E+04</totfact>
</mgrwt>
</event>
<event>
 7    0  0.4770865E-002  0.4253680E+03  0.7546771E-02  0.1035333E+00
         21   -1    0    0  502  501  0.00000000000E+00  0.00000000000E+00  0.55909595562E+03  0.55909595562E+03  0.00000000000E+00 0. -1.
         21   -1    0    0  501  502 -0.00000000000E+00 -0.00000000000E+00 -0.80906480480E+02  0.80906480480E+02  0.00000000000E+00 0. -1.
      99926    2    1    2    0    0  0.00000000000E+00  0.00000000000E+00  0.47818947514E+03  0.64000243610E+03  0.42536801017E+03 0.  0.
      99925    2    3    3    0    0 -0.38018199450E+02 -0.71450749263E+02  0.33200501300E+03  0.43127295057E+03  0.26309396833E+03 0.  0.
         25    1    3    3    0    0  0.38018199450E+02  0.71450749263E+02  0.14618446213E+03  0.20872948553E+03  0.12509000000E+03 0.  0.
         25    1    4    4    0    0 -0.51355394878E+02 -0.14179037620E+02  0.18369553564E+03  0.22853879234E+03  0.12509000000E+03 0.  0.
         25    1    4    4    0    0  0.13337195428E+02 -0.57271711643E+02  0.14830947736E+03  0.20273415823E+03  0.12509000000E+03 0.  0.
<mgrwt>
<rscale>  2 0.42536801E+03</rscale>
<asrwt>0</asrwt>
<pdfrwt beam="1">  1       21 0.82219991E-01 0.42536801E+03</pdfrwt>
<pdfrwt beam="2">  1       21 0.11898012E-01 0.42536801E+03</pdfrwt>
<totfact> 0.71604602E+04</totfact>
</mgrwt>
</event>
<event>
 7    0  0.4770865E-002  0.4555767E+03  0.7546771E-02  0.1026072E+00
         21   -1    0    0  502  501  0.00000000000E+00  0.00000000000E+00  0.14023067340E+03  0.14023067340E+03  0.00000000000E+00 0. -1.
         21   -1    0    0  501  502 -0.00000000000E+00 -0.00000000000E+00 -0.37001554230E+03  0.37001554230E+03  0.00000000000E+00 0. -1.
      99926    2    1    2    0    0 -0.35527136788E-14  0.00000000000E+00 -0.22978486890E+03  0.51024621570E+03  0.45557668363E+03 0.  0.
      99925    2    3    3    0    0 -0.31202054503E+02  0.70735481358E+02 -0.51184844044E+02  0.27889679706E+03  0.26303318921E+03 0.  0.
         25    1    4    4    0    0  0.15120179183E+02  0.10220105213E+02 -0.37093206688E+02  0.13174401106E+03  0.12509000000E+03 0.  0.
         25    1    3    3    0    0  0.31202054503E+02 -0.70735481358E+02 -0.17860002485E+03  0.23134941864E+03  0.12509000000E+03 0.  0.
         25    1    4    4    0    0 -0.46322233686E+02  0.60515376145E+02 -0.14091637356E+02  0.14715278600E+03  0.12509000000E+03 0.  0.
<mgrwt>
<rscale>  2 0.45557668E+03</rscale>
<asrwt>0</asrwt>
<pdfrwt beam="1">  1       21 0.20622158E-01 0.45557668E+03</pdfrwt>
<pdfrwt beam="2">  1       21 0.54414050E-01 0.45557668E+03</pdfrwt>
<totfact> 0.64262047E+04</totfact>
</mgrwt>
</event>
<event>
 7    0  0.4770865E-002  0.4597949E+03  0.7546771E-02  0.1024841E+00
         21   -1    0    0  502  501  0.00000000000E+00  0.00000000000E+00  0.10208198913E+03  0.10208198913E+03  0.00000000000E+00 0. -1.
         21   -1    0    0  501  502 -0.00000000000E+00 -0.00000000000E+00 -0.51774893840E+03  0.51774893840E+03  0.00000000000E+00 0. -1.
      99926    2    1    2    0    0  0.00000000000E+00  0.00000000000E+00 -0.41566694927E+03  0.61983092754E+03  0.45979491735E+03 0.  0.
      99925    2    3    3    0    0 -0.73061110791E+02 -0.89022039827E+02 -0.22773270102E+03  0.36639525671E+03  0.26290768634E+03 0.  0.
         25    1    3    3    0    0  0.73061110791E+02  0.89022039827E+02 -0.18793424825E+03  0.25343567083E+03  0.12509000000E+03 0.  0.
         25    1    4    4    0    0 -0.32475448545E+02 -0.13081236504E+02 -0.14014476531E+03  0.19108594100E+03  0.12509000000E+03 0.  0.
         25    1    4    4    0    0 -0.40585662245E+02 -0.75940803323E+02 -0.87587935717E+02  0.17530931570E+03  0.12509000000E+03 0.  0.
<mgrwt>
<rscale>  2 0.45979492E+03</rscale>
<asrwt>0</asrwt>
<pdfrwt beam="1">  1       21 0.15012057E-01 0.45979492E+03</pdfrwt>
<pdfrwt beam="2">  1       21 0.76139549E-01 0.45979492E+03</pdfrwt>
<totfact> 0.55348233E+04</totfact>
</mgrwt>
</event>
<event>
 7    0  0.4770865E-002  0.4500773E+03  0.7546771E-02  0.1027699E+00
         21   -1    0    0  502  501  0.00000000000E+00  0.00000000000E+00  0.52203043301E+03  0.52203043301E+03  0.00000000000E+00 0.  1.
         21   -1    0    0  501  502 -0.00000000000E+00 -0.00000000000E+00 -0.97010404525E+02  0.97010404525E+02  0.00000000000E+00 0.  1.
      99926    2    1    2    0    0 -0.71054273576E-14  0.00000000000E+00  0.42502002848E+03  0.61904083753E+03  0.45007725328E+03 0.  0.
      99925    2    3    3    0    0 -0.58806865246E+02  0.56254665386E+02  0.36729115018E+03  0.45903156821E+03  0.26302919389E+03 0.  0.
         25    1    4    4    0    0 -0.35849461746E+02 -0.97164824176E+01  0.19962860580E+03  0.23849252041E+03  0.12509000000E+03 0.  0.
         25    1    3    3    0    0  0.58806865246E+02 -0.56254665386E+02  0.57728878303E+02  0.16000926932E+03  0.12509000000E+03 0.  0.
         25    1    4    4    0    0 -0.22957403500E+02  0.65971147803E+02  0.16766254438E+03  0.22053904780E+03  0.12509000000E+03 0.  0.
<mgrwt>
<rscale>  2 0.45007725E+03</rscale>
<asrwt>0</asrwt>
<pdfrwt beam="1">  1       21 0.76769180E-01 0.45007725E+03</pdfrwt>
<pdfrwt beam="2">  1       21 0.14266236E-01 0.45007725E+03</pdfrwt>
<totfact> 0.59812682E+04</totfact>
</mgrwt>
</event>
<event>
 7    0  0.4770865E-002  0.4538792E+03  0.7546771E-02  0.1026572E+00
         21   -1    0    0  502  501  0.00000000000E+00  0.00000000000E+00  0.40777276324E+03  0.40777276324E+03  0.00000000000E+00 0.  1.
         21   -1    0    0  501  502 -0.00000000000E+00 -0.00000000000E+00 -0.12629968305E+03  0.12629968305E+03  0.00000000000E+00 0.  1.
      99926    2    1    2    0    0  0.00000000000E+00  0.14210854715E-13  0.28147308019E+03  0.53407244629E+03  0.45387915023E+03 0.  0.
      99925    2    3    3    0    0 -0.73810719995E+02  0.82962581577E+02  0.15928202199E+03  0.32692762948E+03  0.26302110193E+03 0.  0.
         25    1    3    3    0    0  0.73810719995E+02 -0.82962581577E+02  0.12219105820E+03  0.20714481681E+03  0.12509000000E+03 0.  0.
         25    1    4    4    0    0 -0.74926182751E+02  0.37912832890E+02  0.10324034503E+03  0.18264006325E+03  0.12509000000E+03 0.  0.
         25    1    4    4    0    0  0.11154627560E+01  0.45049748687E+02  0.56041676958E+02  0.14428756624E+03  0.12509000000E+03 0.  0.
<mgrwt>
<rscale>  2 0.45387915E+03</rscale>
<asrwt>0</asrwt>
<pdfrwt beam="1">  1       21 0.59966583E-01 0.45387915E+03</pdfrwt>
<pdfrwt beam="2">  1       21 0.18573483E-01 0.45387915E+03</pdfrwt>
<totfact> 0.63492860E+04</totfact>
</mgrwt>
</event>
<event>
 7    0  0.4770865E-002  0.4720591E+03  0.7546771E-02  0.1021341E+00
         21   -1    0    0  502  501  0.00000000000E+00  0.00000000000E+00  0.37000909934E+02  0.37000909934E+02  0.00000000000E+00 0. -1.
         21   -1    0    0  501  502 -0.00000000000E+00 -0.00000000000E+00 -0.15056373103E+04  0.15056373103E+04  0.00000000000E+00 0. -1.
      99926    2    1    2    0    0  0.71054273576E-14  0.00000000000E+00 -0.14686364003E+04  0.15426382202E+04  0.47205910863E+03 0.  0.
      99925    2    3    3    0    0 -0.61634710346E+02 -0.10540257836E+03 -0.77790812264E+03  0.83013446389E+03  0.26281864438E+03 0.  0.
         25    1    3    3    0    0  0.61634710346E+02  0.10540257836E+03 -0.69072827770E+03  0.71250375631E+03  0.12509000000E+03 0.  0.
         25    1    4    4    0    0 -0.10760111736E+02 -0.22022581752E+02 -0.41257833455E+03  0.43182075488E+03  0.12509000000E+03 0.  0.
         25    1    4    4    0    0 -0.50874598610E+02 -0.83379996609E+02 -0.36532978809E+03  0.39831370901E+03  0.12509000000E+03 0.  0.
<mgrwt>
<rscale>  2 0.47205911E+03</rscale>
<asrwt>0</asrwt>
<pdfrwt beam="1">  1       21 0.54413102E-02 0.47205911E+03</pdfrwt>
<pdfrwt beam="2">  1       21 0.22141726E+00 0.47205911E+03</pdfrwt>
<totfact> 0.19973112E+04</totfact>
</mgrwt>
</event>
<event>
 7    0  0.4770865E-002  0.4574619E+03  0.7546771E-02  0.1025520E+00
         21   -1    0    0  502  501  0.00000000000E+00  0.00000000000E+00  0.19247396610E+04  0.19247396610E+04  0.00000000000E+00 0. -1.
         21   -1    0    0  501  502 -0.00000000000E+00 -0.00000000000E+00 -0.27181780277E+02  0.27181780277E+02  0.00000000000E+00 0. -1.
      99926    2    1    2    0    0  0.00000000000E+00  0.00000000000E+00  0.18975578807E+04  0.19519214413E+04  0.45746191342E+03 0.  0.
      99925    2    3    3    0    0 -0.85150492167E+02  0.66563507446E+02  0.10182536950E+04  0.10572121779E+04  0.26301272761E+03 0.  0.
         25    1    4    4    0    0 -0.23770957023E+02  0.63344529557E+02  0.44064306672E+03  0.46302419825E+03  0.12509000000E+03 0.  0.
         25    1    3    3    0    0  0.85150492167E+02 -0.66563507446E+02  0.87930418575E+03  0.89470926341E+03  0.12509000000E+03 0.  0.
         25    1    4    4    0    0 -0.61379535144E+02  0.32189778889E+01  0.57761062824E+03  0.59418797961E+03  0.12509000000E+03 0.  0.
<mgrwt>
<rscale>  2 0.45746191E+03</rscale>
<asrwt>0</asrwt>
<pdfrwt beam="1">  1       21 0.28304986E+00 0.45746191E+03</pdfrwt>
<pdfrwt beam="2">  1       21 0.39973219E-02 0.45746191E+03</pdfrwt>
<totfact> 0.14236958E+04</totfact>
</mgrwt>
</event>
<event>
 7    0  0.4770865E-002  0.4160595E+03  0.7546771E-02  0.1038356E+00
         21   -1    0    0  502  501  0.00000000000E+00  0.00000000000E+00  0.23734437838E+02  0.23734437838E+02  0.00000000000E+00 0.  1.
         21   -1    0    0  501  502 -0.00000000000E+00 -0.00000000000E+00 -0.18233577855E+04  0.18233577855E+04  0.00000000000E+00 0.  1.
      99926    2    1    2    0    0  0.00000000000E+00  0.00000000000E+00 -0.17996233476E+04  0.18470922233E+04  0.41605947660E+03 0.  0.
      99925    2    3    3    0    0  0.13813808392E+02 -0.14479144790E+02 -0.14787016515E+04  0.15020723542E+04  0.26317734733E+03 0.  0.
         25    1    4    4    0    0  0.42472992054E+01 -0.16689176193E+02 -0.96710452814E+03  0.97531289574E+03  0.12509000000E+03 0.  0.
         25    1    4    4    0    0  0.95665091870E+01  0.22100314030E+01 -0.51159712337E+03  0.52675945846E+03  0.12509000000E+03 0.  0.
         25    1    3    3    0    0 -0.13813808392E+02  0.14479144790E+02 -0.32092169612E+03  0.34501986911E+03  0.12509000000E+03 0.  0.
<mgrwt>
<rscale>  2 0.41605948E+03</rscale>
<asrwt>0</asrwt>
<pdfrwt beam="1">  1       21 0.34903576E-02 0.41605948E+03</pdfrwt>
<pdfrwt beam="2">  1       21 0.26814092E+00 0.41605948E+03</pdfrwt>
<totfact> 0.22419656E+04</totfact>
</mgrwt>
</event>
<event>
 7    0  0.4770865E-002  0.4562230E+03  0.7546771E-02  0.1025882E+00
         21   -1    0    0  502  501  0.00000000000E+00  0.00000000000E+00  0.18478108700E+04  0.18478108700E+04  0.00000000000E+00 0.  1.
         21   -1    0    0  501  502 -0.00000000000E+00 -0.00000000000E+00 -0.28160268884E+02  0.28160268884E+02  0.00000000000E+00 0.  1.
      99926    2    1    2    0    0  0.14210854715E-13  0.14210854715E-13  0.18196506011E+04  0.18759711389E+04  0.45622297595E+03 0.  0.
      99925    2    3    3    0    0 -0.66026391484E+02  0.86160660955E+02  0.12910063262E+04  0.13219897120E+04  0.26301391672E+03 0.  0.
         25    1    4    4    0    0 -0.42785635102E+02  0.67437617598E+02  0.83986738088E+03  0.85287933989E+03  0.12509000000E+03 0.  0.
         25    1    4    4    0    0 -0.23240756381E+02  0.18723043356E+02  0.45113894534E+03  0.46911037210E+03  0.12509000000E+03 0.  0.
         25    1    3    3    0    0  0.66026391484E+02 -0.86160660955E+02  0.52864427493E+03  0.55398142693E+03  0.12509000000E+03 0.  0.
<mgrwt>
<rscale>  2 0.45622298E+03</rscale>
<asrwt>0</asrwt>
<pdfrwt beam="1">  1       21 0.27173681E+00 0.45622298E+03</pdfrwt>
<pdfrwt beam="2">  1       21 0.41412172E-02 0.45622298E+03</pdfrwt>
<totfact> 0.15692879E+04</totfact>
</mgrwt>
</event>
<event>
 7    0  0.4770865E-002  0.4216900E+03  0.7546771E-02  0.1036518E+00
         21   -1    0    0  502  501  0.00000000000E+00  0.00000000000E+00  0.33583709453E+03  0.33583709453E+03  0.00000000000E+00 0.  1.
         21   -1    0    0  501  502 -0.00000000000E+00 -0.00000000000E+00 -0.13237258531E+03  0.13237258531E+03  0.00000000000E+00 0.  1.
      99926    2    1    2    0    0  0.00000000000E+00  0.00000000000E+00  0.20346450922E+03  0.46820967984E+03  0.42169004942E+03 0.  0.
      99925    2    3    3    0    0 -0.59059422154E+02 -0.38639403577E+02  0.96300792922E+02  0.28900982201E+03  0.26319539443E+03 0.  0.
         25    1    4    4    0    0 -0.67374301174E+01 -0.47286762826E+02  0.68200476090E+02  0.15026724175E+03  0.12509000000E+03 0.  0.
         25    1    3    3    0    0  0.59059422154E+02  0.38639403577E+02  0.10716371630E+03  0.17919985783E+03  0.12509000000E+03 0.  0.
         25    1    4    4    0    0 -0.52321992036E+02  0.86473592486E+01  0.28100316832E+02  0.13874258027E+03  0.12509000000E+03 0.  0.
<mgrwt>
<rscale>  2 0.42169005E+03</rscale>
<asrwt>0</asrwt>
<pdfrwt beam="1">  1       21 0.49387808E-01 0.42169005E+03</pdfrwt>
<pdfrwt beam="2">  1       21 0.19466557E-01 0.42169005E+03</pdfrwt>
<totfact> 0.88834461E+04</totfact>
</mgrwt>
</event>
<event>
 7    0  0.4770865E-002  0.4538710E+03  0.7546771E-02  0.1026574E+00
         21   -1    0    0  502  501  0.00000000000E+00  0.00000000000E+00  0.21854199507E+03  0.21854199507E+03  0.00000000000E+00 0.  1.
         21   -1    0    0  501  502 -0.00000000000E+00 -0.00000000000E+00 -0.23565138321E+03  0.23565138321E+03  0.00000000000E+00 0.  1.
      99926    2    1    2    0    0  0.00000000000E+00 -0.19984014443E-14 -0.17109388137E+02  0.45419337829E+03  0.45387101000E+03 0.  0.
      99925    2    3    3    0    0 -0.98473642106E+02  0.19211709249E+01 -0.64150083166E+02  0.28817806521E+03  0.26311711273E+03 0.  0.
         25    1    4    4    0    0 -0.84949519343E+02 -0.21539935406E+02 -0.40639941872E+02  0.15804905134E+03  0.12509000000E+03 0.  0.
         25    1    3    3    0    0  0.98473642106E+02 -0.19211709249E+01  0.47040695028E+02  0.16601531308E+03  0.12509000000E+03 0.  0.
         25    1    4    4    0    0 -0.13524122763E+02  0.23461106331E+02 -0.23510141293E+02  0.13012901387E+03  0.12509000000E+03 0.  0.
<mgrwt>
<rscale>  2 0.45387101E+03</rscale>
<asrwt>0</asrwt>
<pdfrwt beam="1">  1       21 0.32138529E-01 0.45387101E+03</pdfrwt>
<pdfrwt beam="2">  1       21 0.34654615E-01 0.45387101E+03</pdfrwt>
<totfact> 0.69226442E+04</totfact>
</mgrwt>
</event>
<event>
 7    0  0.4770865E-002  0.4417849E+03  0.7546771E-02  0.1030201E+00
         21   -1    0    0  502  501  0.00000000000E+00  0.00000000000E+00  0.26333592230E+03  0.26333592230E+03  0.00000000000E+00 0. -1.
         21   -1    0    0  501  502 -0.00000000000E+00 -0.00000000000E+00 -0.18528985860E+03  0.18528985860E+03  0.00000000000E+00 0. -1.
      99926    2    1    2    0    0  0.00000000000E+00  0.00000000000E+00  0.78046063693E+02  0.44862578090E+03  0.44178490607E+03 0.  0.
      99925    2    3    3    0    0  0.66003395852E+02  0.35590791988E+02 -0.17790008260E+02  0.27411155934E+03  0.26305419562E+03 0.  0.
         25    1    3    3    0    0 -0.66003395852E+02 -0.35590791988E+02  0.95836071952E+02  0.17451422156E+03  0.12509000000E+03 0.  0.
         25    1    4    4    0    0  0.18204794849E+02  0.49590817596E+02  0.11661336399E+02  0.13628704492E+03  0.12509000000E+03 0.  0.
         25    1    4    4    0    0  0.47798601003E+02 -0.14000025608E+02 -0.29451344659E+02  0.13782451443E+03  0.12509000000E+03 0.  0.
<mgrwt>
<rscale>  2 0.44178491E+03</rscale>
<asrwt>0</asrwt>
<pdfrwt beam="1">  1       21 0.38725871E-01 0.44178491E+03</pdfrwt>
<pdfrwt beam="2">  1       21 0.27248508E-01 0.44178491E+03</pdfrwt>
<totfact> 0.76796803E+04</totfact>
</mgrwt>
</event>
<event>
 7    0  0.4770865E-002  0.4438044E+03  0.7546771E-02  0.1029586E+00
         21   -1    0    0  502  501  0.00000000000E+00  0.00000000000E+00  0.86870156577E+03  0.86870156577E+03  0.00000000000E+00 0.  1.
         21   -1    0    0  501  502 -0.00000000000E+00 -0.00000000000E+00 -0.56682966082E+02  0.56682966082E+02  0.00000000000E+00 0.  1.
      99926    2    1    2    0    0  0.00000000000E+00  0.71054273576E-14  0.81201859969E+03  0.92538453186E+03  0.44380437757E+03 0.  0.
      99925    2    3    3    0    0 -0.59444827467E+02 -0.54267895795E+02  0.38221684912E+03  0.47057056448E+03  0.26242759835E+03 0.  0.
         25    1    4    4    0    0 -0.27757986922E+02 -0.58454440215E+02  0.24175468924E+03  0.27978610632E+03  0.12509000000E+03 0.  0.
         25    1    4    4    0    0 -0.31686840545E+02  0.41865444197E+01  0.14046215988E+03  0.19078445816E+03  0.12509000000E+03 0.  0.
         25    1    3    3    0    0  0.59444827467E+02  0.54267895795E+02  0.42980175057E+03  0.45481396738E+03  0.12509000000E+03 0.  0.
<mgrwt>
<rscale>  2 0.44380438E+03</rscale>
<asrwt>0</asrwt>
<pdfrwt beam="1">  1       21 0.12775022E+00 0.44380438E+03</pdfrwt>
<pdfrwt beam="2">  1       21 0.83357308E-02 0.44380438E+03</pdfrwt>
<totfact> 0.46056857E+04</totfact>
</mgrwt>
</event>
<event>
 7    0  0.4770865E-002  0.4588776E+03  0.7546771E-02  0.1025107E+00
         21   -1    0    0  502  501  0.00000000000E+00  0.00000000000E+00  0.16248238224E+03  0.16248238224E+03  0.00000000000E+00 0.  1.
         21   -1    0    0  501  502 -0.00000000000E+00 -0.00000000000E+00 -0.32398688353E+03  0.32398688353E+03  0.00000000000E+00 0.  1.
      99926    2    1    2    0    0  0.00000000000E+00 -0.14210854715E-13 -0.16150450129E+03  0.48646926576E+03  0.45887758999E+03 0.  0.
      99925    2    3    3    0    0 -0.78873521462E+02 -0.71392856051E+02 -0.15239442065E+03  0.32200506312E+03  0.26295480400E+03 0.  0.
         25    1    4    4    0    0 -0.28471922496E+02 -0.74970448584E+02 -0.74443227124E+02  0.16619422582E+03  0.12509000000E+03 0.  0.
         25    1    3    3    0    0  0.78873521462E+02  0.71392856051E+02 -0.91100806340E+01  0.16446420265E+03  0.12509000000E+03 0.  0.
         25    1    4    4    0    0 -0.50401598966E+02  0.35775925327E+01 -0.77951193529E+02  0.15581083730E+03  0.12509000000E+03 0.  0.
<mgrwt>
<rscale>  2 0.45887759E+03</rscale>
<asrwt>0</asrwt>
<pdfrwt beam="1">  1       21 0.23894468E-01 0.45887759E+03</pdfrwt>
<pdfrwt beam="2">  1       21 0.47645130E-01 0.45887759E+03</pdfrwt>
<totfact> 0.64232088E+04</totfact>
</mgrwt>
</event>
<event>
 7    0  0.4770865E-002  0.4712851E+03  0.7546771E-02  0.1021558E+00
         21   -1    0    0  502  501  0.00000000000E+00  0.00000000000E+00  0.12633303373E+03  0.12633303373E+03  0.00000000000E+00 0. -1.
         21   -1    0    0  501  502 -0.00000000000E+00 -0.00000000000E+00 -0.43953198373E+03  0.43953198373E+03  0.00000000000E+00 0. -1.
      99926    2    1    2    0    0  0.00000000000E+00  0.00000000000E+00 -0.31319895000E+03  0.56586501746E+03  0.47128508963E+03 0.  0.
      99925    2    3    3    0    0 -0.19550514439E+02 -0.12635418361E+03 -0.20149856640E+03  0.35498095897E+03  0.26279689237E+03 0.  0.
         25    1    4    4    0    0  0.19732426646E+01 -0.55794741198E+02 -0.14412092278E+03  0.19883484431E+03  0.12509000000E+03 0.  0.
         25    1    4    4    0    0 -0.21523757104E+02 -0.70559442414E+02 -0.57377643629E+02  0.15614611466E+03  0.12509000000E+03 0.  0.
         25    1    3    3    0    0  0.19550514439E+02  0.12635418361E+03 -0.11170038360E+03  0.21088405849E+03  0.12509000000E+03 0.  0.
<mgrwt>
<rscale>  2 0.47128509E+03</rscale>
<asrwt>0</asrwt>
<pdfrwt beam="1">  1       21 0.18578387E-01 0.47128509E+03</pdfrwt>
<pdfrwt beam="2">  1       21 0.64637057E-01 0.47128509E+03</pdfrwt>
<totfact> 0.53587278E+04</totfact>
</mgrwt>
</event>
<event>
 7    0  0.4770865E-002  0.4578980E+03  0.7546771E-02  0.1025393E+00
         21   -1    0    0  502  501  0.00000000000E+00  0.00000000000E+00  0.59418439967E+02  0.59418439967E+02  0.00000000000E+00 0.  1.
         21   -1    0    0  501  502 -0.00000000000E+00 -0.00000000000E+00 -0.88217787733E+03  0.88217787733E+03  0.00000000000E+00 0.  1.
      99926    2    1    2    0    0  0.00000000000E+00  0.88817841970E-15 -0.82275943736E+03  0.94159631730E+03  0.45789795040E+03 0.  0.
      99925    2    3    3    0    0 -0.10338210142E+03  0.71862795418E+01 -0.40994769979E+03  0.49797424809E+03  0.26302420743E+03 0.  0.
         25    1    4    4    0    0 -0.10240664452E+02 -0.88306513136E+01 -0.17574043721E+03  0.21613667200E+03  0.12509000000E+03 0.  0.
         25    1    4    4    0    0 -0.93141436967E+02  0.16016930855E+02 -0.23420726257E+03  0.28183757609E+03  0.12509000000E+03 0.  0.
         25    1    3    3    0    0  0.10338210142E+03 -0.71862795418E+01 -0.41281173758E+03  0.44362206921E+03  0.12509000000E+03 0.  0.
<mgrwt>
<rscale>  2 0.45789795E+03</rscale>
<asrwt>0</asrwt>
<pdfrwt beam="1">  1       21 0.87380069E-02 0.45789795E+03</pdfrwt>
<pdfrwt beam="2">  1       21 0.12973203E+00 0.45789795E+03</pdfrwt>
<totfact> 0.40556002E+04</totfact>
</mgrwt>
</event>
<event>
 7    0  0.4770865E-002  0.4193508E+03  0.7546771E-02  0.1037278E+00
         21   -1    0    0  502  501  0.00000000000E+00  0.00000000000E+00  0.20555201338E+03  0.20555201338E+03  0.00000000000E+00 0.  1.
         21   -1    0    0  501  502 -0.00000000000E+00 -0.00000000000E+00 -0.21388149712E+03  0.21388149712E+03  0.00000000000E+00 0.  1.
      99926    2    1    2    0    0 -0.14210854715E-13  0.00000000000E+00 -0.83294837355E+01  0.41943351050E+03  0.41935079520E+03 0.  0.
      99925    2    3    3    0    0 -0.67672728933E+02  0.82336682681E+01  0.25967855627E+02  0.27290294331E+03  0.26297204301E+03 0.  0.
         25    1    4    4    0    0 -0.27917352243E+02  0.40025851246E+02  0.30824842482E+02  0.13776474998E+03  0.12509000000E+03 0.  0.
         25    1    3    3    0    0  0.67672728933E+02 -0.82336682681E+01 -0.34297339363E+02  0.14653056719E+03  0.12509000000E+03 0.  0.
         25    1    4    4    0    0 -0.39755376689E+02 -0.31792182978E+02 -0.48569868545E+01  0.13513819333E+03  0.12509000000E+03 0.  0.
<mgrwt>
<rscale>  2 0.41935080E+03</rscale>
<asrwt>0</asrwt>
<pdfrwt beam="1">  1       21 0.30228238E-01 0.41935080E+03</pdfrwt>
<pdfrwt beam="2">  1       21 0.31453161E-01 0.41935080E+03</pdfrwt>
<totfact> 0.95691159E+04</totfact>
</mgrwt>
</event>
<event>
 7    0  0.4770865E-002  0.4567858E+03  0.7546771E-02  0.1025718E+00
         21   -1    0    0  502  501  0.00000000000E+00  0.00000000000E+00  0.97213736361E+03  0.97213736361E+03  0.00000000000E+00 0.  1.
         21   -1    0    0  501  502 -0.00000000000E+00 -0.00000000000E+00 -0.53658375390E+02  0.53658375390E+02  0.00000000000E+00 0.  1.
      99926    2    1    2    0    0 -0.71054273576E-14  0.35527136788E-14  0.91847898822E+03  0.10257957390E+04  0.45678577730E+03 0.  0.
      99925    2    3    3    0    0 -0.41714115463E+02  0.27803247029E+02  0.34493116117E+03  0.43662877965E+03  0.26297166634E+03 0.  0.
         25    1    4    4    0    0 -0.14463968233E+02  0.33845063365E+02  0.23043380302E+03  0.26476771020E+03  0.12509000000E+03 0.  0.
         25    1    4    4    0    0 -0.27250147229E+02 -0.60418163365E+01  0.11449735815E+03  0.17186106945E+03  0.12509000000E+03 0.  0.
         25    1    3    3    0    0  0.41714115463E+02 -0.27803247029E+02  0.57354782705E+03  0.58916695935E+03  0.12509000000E+03 0.  0.
<mgrwt>
<rscale>  2 0.45678578E+03</rscale>
<asrwt>0</asrwt>
<pdfrwt beam="1">  1       21 0.14296137E+00 0.45678578E+03</pdfrwt>
<pdfrwt beam="2">  1       21 0.78909382E-02 0.45678578E+03</pdfrwt>
<totfact> 0.37650572E+04</totfact>
</mgrwt>
</event>
<event>
 7    0  0.4770865E-002  0.4642246E+03  0.7546771E-02  0.1023563E+00
         21   -1    0    0  502  501  0.00000000000E+00  0.00000000000E+00  0.43744856020E+03  0.43744856020E+03  0.00000000000E+00 0. -1.
         21   -1    0    0  501  502 -0.00000000000E+00 -0.00000000000E+00 -0.12315992046E+03  0.12315992046E+03  0.00000000000E+00 0. -1.
      99926    2    1    2    0    0  0.00000000000E+00 -0.35527136788E-14  0.31428863974E+03  0.56060848066E+03  0.46422464338E+03 0.  0.
      99925    2    3    3    0    0  0.63992212742E+02  0.23236101869E+02  0.74508489827E+02  0.28172329261E+03  0.26302391303E+03 0.  0.
         25    1    4    4    0    0  0.17822375413E+02  0.48878992320E+02  0.29272426535E+02  0.13860438669E+03  0.12509000000E+03 0.  0.
         25    1    4    4    0    0  0.46169837330E+02 -0.25642890451E+02  0.45236063293E+02  0.14311890592E+03  0.12509000000E+03 0.  0.
         25    1    3    3    0    0 -0.63992212742E+02 -0.23236101869E+02  0.23978014991E+03  0.27888518805E+03  0.12509000000E+03 0.  0.
<mgrwt>
<rscale>  2 0.46422464E+03</rscale>
<asrwt>0</asrwt>
<pdfrwt beam="1">  1       21 0.64330670E-01 0.46422464E+03</pdfrwt>
<pdfrwt beam="2">  1       21 0.18111753E-01 0.46422464E+03</pdfrwt>
<totfact> 0.56903755E+04</totfact>
</mgrwt>
</event>
<event>
 7    0  0.4770865E-002  0.4629255E+03  0.7546771E-02  0.1023936E+00
         21   -1    0    0  502  501  0.00000000000E+00  0.00000000000E+00  0.88565263933E+03  0.88565263933E+03  0.00000000000E+00 0.  1.
         21   -1    0    0  501  502 -0.00000000000E+00 -0.00000000000E+00 -0.60492106777E+02  0.60492106777E+02  0.00000000000E+00 0.  1.
      99926    2    1    2    0    0  0.00000000000E+00  0.00000000000E+00  0.82516053256E+03  0.94614474611E+03  0.46292545415E+03 0.  0.
      99925    2    3    3    0    0  0.47615276164E+02  0.11063849282E+03  0.52039342947E+03  0.59537618161E+03  0.26297411579E+03 0.  0.
         25    1    4    4    0    0  0.24346814883E+02  0.37008968865E+02  0.32348573102E+03  0.34964690396E+03  0.12509000000E+03 0.  0.
         25    1    4    4    0    0  0.23268461281E+02  0.73629523957E+02  0.19690769845E+03  0.24572927766E+03  0.12509000000E+03 0.  0.
         25    1    3    3    0    0 -0.47615276164E+02 -0.11063849282E+03  0.30476710308E+03  0.35076856450E+03  0.12509000000E+03 0.  0.
<mgrwt>
<rscale>  2 0.46292545E+03</rscale>
<asrwt>0</asrwt>
<pdfrwt beam="1">  1       21 0.13024303E+00 0.46292545E+03</pdfrwt>
<pdfrwt beam="2">  1       21 0.88958986E-02 0.46292545E+03</pdfrwt>
<totfact> 0.38833953E+04</totfact>
</mgrwt>
</event>
<event>
 7    0  0.4770865E-002  0.4554861E+03  0.7546771E-02  0.1026099E+00
         21   -1    0    0  502  501  0.00000000000E+00  0.00000000000E+00  0.15083959118E+03  0.15083959118E+03  0.00000000000E+00 0. -1.
         21   -1    0    0  501  502 -0.00000000000E+00 -0.00000000000E+00 -0.34385472462E+03  0.34385472462E+03  0.00000000000E+00 0. -1.
      99926    2    1    2    0    0  0.00000000000E+00 -0.17763568394E-14 -0.19301513344E+03  0.49469431579E+03  0.45548614067E+03 0.  0.
      99925    2    3    3    0    0 -0.38885883158E+02 -0.31610078055E+01 -0.59522318713E+01  0.26630398955E+03  0.26336340274E+03 0.  0.
         25    1    4    4    0    0 -0.24233445839E+02  0.25354423278E+02 -0.33721223005E+02  0.13421898397E+03  0.12509000000E+03 0.  0.
         25    1    4    4    0    0 -0.14652437318E+02 -0.28515431083E+02  0.27768991133E+02  0.13208500558E+03  0.12509000000E+03 0.  0.
         25    1    3    3    0    0  0.38885883158E+02  0.31610078055E+01 -0.18706290157E+03  0.22839032625E+03  0.12509000000E+03 0.  0.
<mgrwt>
<rscale>  2 0.45548614E+03</rscale>
<asrwt>0</asrwt>
<pdfrwt beam="1">  1       21 0.22182293E-01 0.45548614E+03</pdfrwt>
<pdfrwt beam="2">  1       21 0.50566871E-01 0.45548614E+03</pdfrwt>
<totfact> 0.65392296E+04</totfact>
</mgrwt>
</event>
<event>
 7    0  0.4770865E-002  0.4541111E+03  0.7546771E-02  0.1026503E+00
         21   -1    0    0  502  501  0.00000000000E+00  0.00000000000E+00  0.15239229629E+03  0.15239229629E+03  0.00000000000E+00 0.  1.
         21   -1    0    0  501  502 -0.00000000000E+00 -0.00000000000E+00 -0.33829941487E+03  0.33829941487E+03  0.00000000000E+00 0.  1.
      99926    2    1    2    0    0  0.00000000000E+00  0.35527136788E-14 -0.18590711859E+03  0.49069171116E+03  0.45411110828E+03 0.  0.
      99925    2    3    3    0    0 -0.97880906721E+02  0.27997589850E+02 -0.65556876576E+02  0.28945497050E+03  0.26291051509E+03 0.  0.
         25    1    3    3    0    0  0.97880906721E+02 -0.27997589850E+02 -0.12035024201E+03  0.20123674066E+03  0.12509000000E+03 0.  0.
         25    1    4    4    0    0 -0.77432257999E+02  0.40651597395E+02 -0.18885404475E+02  0.15379360699E+03  0.12509000000E+03 0.  0.
         25    1    4    4    0    0 -0.20448648722E+02 -0.12654007544E+02 -0.46671472101E+02  0.13566136351E+03  0.12509000000E+03 0.  0.
<mgrwt>
<rscale>  2 0.45411111E+03</rscale>
<asrwt>0</asrwt>
<pdfrwt beam="1">  1       21 0.22410632E-01 0.45411111E+03</pdfrwt>
<pdfrwt beam="2">  1       21 0.49749914E-01 0.45411111E+03</pdfrwt>
<totfact> 0.66396973E+04</totfact>
</mgrwt>
</event>
<event>
 7    0  0.4770865E-002  0.4467082E+03  0.7546771E-02  0.1028708E+00
         21   -1    0    0  502  501  0.00000000000E+00  0.00000000000E+00  0.25203465062E+03  0.25203465062E+03  0.00000000000E+00 0. -1.
         21   -1    0    0  501  502 -0.00000000000E+00 -0.00000000000E+00 -0.19793724602E+03  0.19793724602E+03  0.00000000000E+00 0. -1.
      99926    2    1    2    0    0  0.00000000000E+00 -0.14210854715E-13  0.54097404604E+02  0.44997189664E+03  0.44670815818E+03 0.  0.
      99925    2    3    3    0    0 -0.32799251532E+02  0.99623140659E+02  0.25487492677E+02  0.28424140393E+03  0.26295057020E+03 0.  0.
         25    1    4    4    0    0 -0.11255574403E+02  0.10013637021E+02  0.27019313241E+02  0.12885849708E+03  0.12509000000E+03 0.  0.
         25    1    3    3    0    0  0.32799251532E+02 -0.99623140659E+02  0.28609911927E+02  0.16573049272E+03  0.12509000000E+03 0.  0.
         25    1    4    4    0    0 -0.21543677129E+02  0.89609503638E+02 -0.15318205641E+01  0.15538290685E+03  0.12509000000E+03 0.  0.
<mgrwt>
<rscale>  2 0.44670816E+03</rscale>
<asrwt>0</asrwt>
<pdfrwt beam="1">  1       21 0.37063919E-01 0.44670816E+03</pdfrwt>
<pdfrwt beam="2">  1       21 0.29108419E-01 0.44670816E+03</pdfrwt>
<totfact> 0.73669956E+04</totfact>
</mgrwt>
</event>
<event>
 7    0  0.4770865E-002  0.4551448E+03  0.7546771E-02  0.1026199E+00
         21   -1    0    0  502  501  0.00000000000E+00  0.00000000000E+00  0.25616869556E+03  0.25616869556E+03  0.00000000000E+00 0. -1.
         21   -1    0    0  501  502 -0.00000000000E+00 -0.00000000000E+00 -0.20216831187E+03  0.20216831187E+03  0.00000000000E+00 0. -1.
      99926    2    1    2    0    0  0.00000000000E+00  0.00000000000E+00  0.54000383696E+02  0.45833700743E+03  0.45514478020E+03 0.  0.
      99925    2    3    3    0    0 -0.91458021156E+02 -0.55463247276E+02 -0.36987751258E+01  0.28393103717E+03  0.26298747404E+03 0.  0.
         25    1    4    4    0    0 -0.32638046285E+02 -0.56284185207E+01  0.30761006859E+02  0.13300627355E+03  0.12509000000E+03 0.  0.
         25    1    3    3    0    0  0.91458021156E+02  0.55463247276E+02  0.57699158822E+02  0.17440597026E+03  0.12509000000E+03 0.  0.
         25    1    4    4    0    0 -0.58819974871E+02 -0.49834828756E+02 -0.34459781985E+02  0.15092476363E+03  0.12509000000E+03 0.  0.
<mgrwt>
<rscale>  2 0.45514478E+03</rscale>
<asrwt>0</asrwt>
<pdfrwt beam="1">  1       21 0.37671867E-01 0.45514478E+03</pdfrwt>
<pdfrwt beam="2">  1       21 0.29730634E-01 0.45514478E+03</pdfrwt>
<totfact> 0.68223066E+04</totfact>
</mgrwt>
</event>
<event>
 7    0  0.4770865E-002  0.4560654E+03  0.7546771E-02  0.1025929E+00
         21   -1    0    0  502  501  0.00000000000E+00  0.00000000000E+00  0.60710206223E+02  0.60710206223E+02  0.00000000000E+00 0. -1.
         21   -1    0    0  501  502 -0.00000000000E+00 -0.00000000000E+00 -0.85651039334E+03  0.85651039334E+03  0.00000000000E+00 0. -1.
      99926    2    1    2    0    0  0.14210854715E-13  0.35527136788E-14 -0.79580018712E+03  0.91722059956E+03  0.45606544536E+03 0.  0.
      99925    2    3    3    0    0 -0.64008619085E+02  0.28519714264E+02 -0.31906388915E+03  0.41938982177E+03  0.26301250888E+03 0.  0.
         25    1    3    3    0    0  0.64008619085E+02 -0.28519714264E+02 -0.47673629797E+03  0.49783077779E+03  0.12509000000E+03 0.  0.
         25    1    4    4    0    0 -0.42145287215E+02 -0.23970879751E+02 -0.14346082203E+03  0.19641625154E+03  0.12509000000E+03 0.  0.
         25    1    4    4    0    0 -0.21863331870E+02  0.52490594014E+02 -0.17560306712E+03  0.22297357023E+03  0.12509000000E+03 0.  0.
<mgrwt>
<rscale>  2 0.45606545E+03</rscale>
<asrwt>0</asrwt>
<pdfrwt beam="1">  1       21 0.89279714E-02 0.45606545E+03</pdfrwt>
<pdfrwt beam="2">  1       21 0.12595741E+00 0.45606545E+03</pdfrwt>
<totfact> 0.42145039E+04</totfact>
</mgrwt>
</event>
<event>
 7    0  0.4770865E-002  0.4551553E+03  0.7546771E-02  0.1026196E+00
         21   -1    0    0  502  501  0.00000000000E+00  0.00000000000E+00  0.13999773722E+03  0.13999773722E+03  0.00000000000E+00 0.  1.
         21   -1    0    0  501  502 -0.00000000000E+00 -0.00000000000E+00 -0.36994590370E+03  0.36994590370E+03  0.00000000000E+00 0.  1.
      99926    2    1    2    0    0  0.35527136788E-14  0.00000000000E+00 -0.22994816648E+03  0.50994364091E+03  0.45515531156E+03 0.  0.
      99925    2    3    3    0    0 -0.25574751921E+02 -0.11023038647E+03 -0.13679534584E+03  0.31725279492E+03  0.26292881775E+03 0.  0.
         25    1    4    4    0    0 -0.46295453707E+01 -0.63533750670E+02 -0.26612268673E+02  0.14287648900E+03  0.12509000000E+03 0.  0.
         25    1    3    3    0    0  0.25574751921E+02  0.11023038647E+03 -0.93152820635E+02  0.19269084599E+03  0.12509000000E+03 0.  0.
         25    1    4    4    0    0 -0.20945206550E+02 -0.46696635801E+02 -0.11018307717E+03  0.17437630592E+03  0.12509000000E+03 0.  0.
<mgrwt>
<rscale>  2 0.45515531E+03</rscale>
<asrwt>0</asrwt>
<pdfrwt beam="1">  1       21 0.20587903E-01 0.45515531E+03</pdfrwt>
<pdfrwt beam="2">  1       21 0.54403809E-01 0.45515531E+03</pdfrwt>
<totfact> 0.64498047E+04</totfact>
</mgrwt>
</event>
<event>
 7    0  0.4770865E-002  0.4555784E+03  0.7546771E-02  0.1026071E+00
         21   -1    0    0  502  501  0.00000000000E+00  0.00000000000E+00  0.13277345695E+03  0.13277345695E+03  0.00000000000E+00 0.  1.
         21   -1    0    0  501  502 -0.00000000000E+00 -0.00000000000E+00 -0.39080040276E+03  0.39080040276E+03  0.00000000000E+00 0.  1.
      99926    2    1    2    0    0  0.00000000000E+00 -0.25535129566E-14 -0.25802694581E+03  0.52357385971E+03  0.45557840358E+03 0.  0.
      99925    2    3    3    0    0  0.10462468893E+03 -0.51540926906E+00 -0.11102478322E+03  0.30402036945E+03  0.26297393668E+03 0.  0.
         25    1    4    4    0    0  0.55002514498E+02  0.35855871512E+02 -0.75412503813E+02  0.16014204306E+03  0.12509000000E+03 0.  0.
         25    1    3    3    0    0 -0.10462468893E+03  0.51540926906E+00 -0.14700216259E+03  0.21955349026E+03  0.12509000000E+03 0.  0.
         25    1    4    4    0    0  0.49622174428E+02 -0.36371280781E+02 -0.35612279407E+02  0.14387832639E+03  0.12509000000E+03 0.  0.
<mgrwt>
<rscale>  2 0.45557840E+03</rscale>
<asrwt>0</asrwt>
<pdfrwt beam="1">  1       21 0.19525509E-01 0.45557840E+03</pdfrwt>
<pdfrwt beam="2">  1       21 0.57470647E-01 0.45557840E+03</pdfrwt>
<totfact> 0.63352597E+04</totfact>
</mgrwt>
</event>
<event>
 7    0  0.4770865E-002  0.4528512E+03  0.7546771E-02  0.1026875E+00
         21   -1    0    0  502  501  0.00000000000E+00  0.00000000000E+00  0.13030491715E+03  0.13030491715E+03  0.00000000000E+00 0. -1.
         21   -1    0    0  501  502 -0.00000000000E+00 -0.00000000000E+00 -0.39345068873E+03  0.39345068873E+03  0.00000000000E+00 0. -1.
      99926    2    1    2    0    0  0.00000000000E+00  0.17763568394E-14 -0.26314577158E+03  0.52375560588E+03  0.45285123119E+03 0.  0.
      99925    2    3    3    0    0 -0.10810504955E+03 -0.13053548773E+02 -0.19105938868E+03  0.34292128509E+03  0.26312396488E+03 0.  0.
         25    1    3    3    0    0  0.10810504955E+03  0.13053548773E+02 -0.72086382897E+02  0.18083432078E+03  0.12509000000E+03 0.  0.
         25    1    4    4    0    0 -0.95219689103E+02 -0.20962921094E+02 -0.10064983581E+03  0.18784070593E+03  0.12509000000E+03 0.  0.
         25    1    4    4    0    0 -0.12885360448E+02  0.79093723217E+01 -0.90409552872E+02  0.15508057917E+03  0.12509000000E+03 0.  0.
<mgrwt>
<rscale>  2 0.45285123E+03</rscale>
<asrwt>0</asrwt>
<pdfrwt beam="1">  1       21 0.19162488E-01 0.45285123E+03</pdfrwt>
<pdfrwt beam="2">  1       21 0.57860396E-01 0.45285123E+03</pdfrwt>
<totfact> 0.64726739E+04</totfact>
</mgrwt>
</event>
<event>
 7    0  0.4770865E-002  0.4165415E+03  0.7546771E-02  0.1038198E+00
         21   -1    0    0  502  501  0.00000000000E+00  0.00000000000E+00  0.20606273981E+03  0.20606273981E+03  0.00000000000E+00 0.  1.
         21   -1    0    0  501  502 -0.00000000000E+00 -0.00000000000E+00 -0.21050238588E+03  0.21050238588E+03  0.00000000000E+00 0.  1.
      99926    2    1    2    0    0  0.00000000000E+00  0.00000000000E+00 -0.44396460661E+01  0.41656512569E+03  0.41654146670E+03 0.  0.
      99925    2    3    3    0    0  0.12773886259E+02 -0.19326713372E+02  0.64642658436E+02  0.27180129417E+03  0.26298398469E+03 0.  0.
         25    1    3    3    0    0 -0.12773886259E+02  0.19326713372E+02 -0.69082304502E+02  0.14476383152E+03  0.12509000000E+03 0.  0.
         25    1    4    4    0    0  0.20407134413E+02 -0.46656606469E+02  0.42865294988E+02  0.14169767703E+03  0.12509000000E+03 0.  0.
         25    1    4    4    0    0 -0.76332481539E+01  0.27329893097E+02  0.21777363449E+02  0.13010361714E+03  0.12509000000E+03 0.  0.
<mgrwt>
<rscale>  2 0.41654147E+03</rscale>
<asrwt>0</asrwt>
<pdfrwt beam="1">  1       21 0.30303344E-01 0.41654147E+03</pdfrwt>
<pdfrwt beam="2">  1       21 0.30956233E-01 0.41654147E+03</pdfrwt>
<totfact> 0.98346199E+04</totfact>
</mgrwt>
</event>
<event>
 7    0  0.4770865E-002  0.4549259E+03  0.7546771E-02  0.1026263E+00
         21   -1    0    0  502  501  0.00000000000E+00  0.00000000000E+00  0.94182599462E+02  0.94182599462E+02  0.00000000000E+00 0. -1.
         21   -1    0    0  501  502 -0.00000000000E+00 -0.00000000000E+00 -0.54935198879E+03  0.54935198879E+03  0.00000000000E+00 0. -1.
      99926    2    1    2    0    0  0.14210854715E-13  0.00000000000E+00 -0.45516938933E+03  0.64353458825E+03  0.45492592067E+03 0.  0.
      99925    2    3    3    0    0  0.74666728513E+02 -0.78402393295E+02 -0.33258253753E+03  0.43762902748E+03  0.26303225241E+03 0.  0.
         25    1    3    3    0    0 -0.74666728513E+02  0.78402393295E+02 -0.12258685180E+03  0.20590556077E+03  0.12509000000E+03 0.  0.
         25    1    4    4    0    0 -0.37147393887E+01 -0.34509812263E+02 -0.13777472149E+03  0.18929899210E+03  0.12509000000E+03 0.  0.
         25    1    4    4    0    0  0.78381467902E+02 -0.43892581033E+02 -0.19480781604E+03  0.24833003538E+03  0.12509000000E+03 0.  0.
<mgrwt>
<rscale>  2 0.45492592E+03</rscale>
<asrwt>0</asrwt>
<pdfrwt beam="1">  1       21 0.13850383E-01 0.45492592E+03</pdfrwt>
<pdfrwt beam="2">  1       21 0.80787054E-01 0.45492592E+03</pdfrwt>
<totfact> 0.56108295E+04</totfact>
</mgrwt>
</event>
<event>
 7    0  0.4770865E-002  0.4493185E+03  0.7546771E-02  0.1027925E+00
         21   -1    0    0  502  501  0.00000000000E+00  0.00000000000E+00  0.84713850131E+03  0.84713850131E+03  0.00000000000E+00 0.  1.
         21   -1    0    0  501  502 -0.00000000000E+00 -0.00000000000E+00 -0.59579132800E+02  0.59579132800E+02  0.00000000000E+00 0.  1.
      99926    2    1    2    0    0  0.00000000000E+00 -0.17763568394E-14  0.78755936851E+03  0.90671763411E+03  0.44931849403E+03 0.  0.
      99925    2    3    3    0    0 -0.60455799967E+02 -0.96236112539E+01  0.67704101315E+03  0.72892749767E+03  0.26306509790E+03 0.  0.
         25    1    4    4    0    0 -0.53496385008E+02 -0.36163521164E+02  0.31929590502E+03  0.34895135268E+03  0.12509000000E+03 0.  0.
         25    1    3    3    0    0  0.60455799967E+02  0.96236112539E+01  0.11051835536E+03  0.17779013644E+03  0.12509000000E+03 0.  0.
         25    1    4    4    0    0 -0.69594149592E+01  0.26539909910E+02  0.35774510813E+03  0.37997614499E+03  0.12509000000E+03 0.  0.
<mgrwt>
<rscale>  2 0.44931849E+03</rscale>
<asrwt>0</asrwt>
<pdfrwt beam="1">  1       21 0.12457918E+00 0.44931849E+03</pdfrwt>
<pdfrwt beam="2">  1       21 0.87616377E-02 0.44931849E+03</pdfrwt>
<totfact> 0.44908218E+04</totfact>
</mgrwt>
</event>
<event>
 7    0  0.4770865E-002  0.4477050E+03  0.7546771E-02  0.1028409E+00
         21   -1    0    0  502  501  0.00000000000E+00  0.00000000000E+00  0.73774156248E+03  0.73774156248E+03  0.00000000000E+00 0.  1.
         21   -1    0    0  501  502 -0.00000000000E+00 -0.00000000000E+00 -0.67923449192E+02  0.67923449192E+02  0.00000000000E+00 0.  1.
      99926    2    1    2    0    0  0.00000000000E+00  0.00000000000E+00  0.66981811329E+03  0.80566501167E+03  0.44770504369E+03 0.  0.
      99925    2    3    3    0    0 -0.29127375670E+02  0.89831973823E+02  0.33873576452E+03  0.43935746697E+03  0.26339111240E+03 0.  0.
         25    1    4    4    0    0 -0.40846586455E+02  0.45612288011E+02  0.22294375861E+03  0.26286945819E+03  0.12509000000E+03 0.  0.
         25    1    4    4    0    0  0.11719210785E+02  0.44219685812E+02  0.11579200590E+03  0.17648800879E+03  0.12509000000E+03 0.  0.
         25    1    3    3    0    0  0.29127375670E+02 -0.89831973823E+02  0.33108234877E+03  0.36630754470E+03  0.12509000000E+03 0.  0.
<mgrwt>
<rscale>  2 0.44770504E+03</rscale>
<asrwt>0</asrwt>
<pdfrwt beam="1">  1       21 0.10849140E+00 0.44770504E+03</pdfrwt>
<pdfrwt beam="2">  1       21 0.99887430E-02 0.44770504E+03</pdfrwt>
<totfact> 0.50310941E+04</totfact>
</mgrwt>
</event>
<event>
 7    0  0.4770865E-002  0.4542022E+03  0.7546771E-02  0.1026476E+00
         21   -1    0    0  502  501  0.00000000000E+00  0.00000000000E+00  0.63854767577E+03  0.63854767577E+03  0.00000000000E+00 0. -1.
         21   -1    0    0  501  502 -0.00000000000E+00 -0.00000000000E+00 -0.80769096558E+02  0.80769096558E+02  0.00000000000E+00 0. -1.
      99926    2    1    2    0    0  0.00000000000E+00  0.00000000000E+00  0.55777857921E+03  0.71931677233E+03  0.45420224077E+03 0.  0.
      99925    2    3    3    0    0  0.82661116004E+02 -0.27725133229E+02  0.46367651840E+03  0.54014018608E+03  0.26297141249E+03 0.  0.
         25    1    4    4    0    0  0.61029312364E+02  0.20830283935E+02  0.25034083062E+03  0.28718725123E+03  0.12509000000E+03 0.  0.
         25    1    3    3    0    0 -0.82661116004E+02  0.27725133229E+02  0.94102060812E+02  0.17917658625E+03  0.12509000000E+03 0.  0.
         25    1    4    4    0    0  0.21631803640E+02 -0.48555417164E+02  0.21333568778E+03  0.25295293484E+03  0.12509000000E+03 0.  0.
<mgrwt>
<rscale>  2 0.45420224E+03</rscale>
<asrwt>0</asrwt>
<pdfrwt beam="1">  1       21 0.93904067E-01 0.45420224E+03</pdfrwt>
<pdfrwt beam="2">  1       21 0.11877809E-01 0.45420224E+03</pdfrwt>
<totfact> 0.52193479E+04</totfact>
</mgrwt>
</event>
<event>
 7    0  0.4770865E-002  0.4773336E+03  0.7546771E-02  0.1019871E+00
         21   -1    0    0  502  501  0.00000000000E+00  0.00000000000E+00  0.30297248528E+02  0.30297248528E+02  0.00000000000E+00 0. -1.
         21   -1    0    0  501  502 -0.00000000000E+00 -0.00000000000E+00 -0.18800998288E+04  0.18800998288E+04  0.00000000000E+00 0. -1.
      99926    2    1    2    0    0  0.00000000000E+00  0.00000000000E+00 -0.18498025802E+04  0.19103970773E+04  0.47733364336E+03 0.  0.
      99925    2    3    3    0    0  0.70358308312E+02 -0.10920428242E+03 -0.12552424582E+04  0.12890878840E+04  0.26313129227E+03 0.  0.
         25    1    4    4    0    0  0.72400911726E+02 -0.49246010986E+02 -0.58170402163E+03  0.60141012503E+03  0.12509000000E+03 0.  0.
         25    1    3    3    0    0 -0.70358308312E+02  0.10920428242E+03 -0.59456012205E+03  0.62130919330E+03  0.12509000000E+03 0.  0.
         25    1    4    4    0    0 -0.20426034136E+01 -0.59958271436E+02 -0.67353843657E+03  0.68767775896E+03  0.12509000000E+03 0.  0.
<mgrwt>
<rscale>  2 0.47733364E+03</rscale>
<asrwt>0</asrwt>
<pdfrwt beam="1">  1       21 0.44554781E-02 0.47733364E+03</pdfrwt>
<pdfrwt beam="2">  1       21 0.27648524E+00 0.47733364E+03</pdfrwt>
<totfact> 0.12851751E+04</totfact>
</mgrwt>
</event>
<event>
 7    0  0.4770865E-002  0.4310489E+03  0.7546771E-02  0.1033529E+00
         21   -1    0    0  502  501  0.00000000000E+00  0.00000000000E+00  0.45831614219E+02  0.45831614219E+02  0.00000000000E+00 0.  1.
         21   -1    0    0  501  502 -0.00000000000E+00 -0.00000000000E+00 -0.10135095942E+04  0.10135095942E+04  0.00000000000E+00 0.  1.
      99926    2    1    2    0    0  0.25535129566E-14 -0.14210854715E-13 -0.96767798003E+03  0.10593412085E+04  0.43104886373E+03 0.  0.
      99925    2    3    3    0    0  0.79234381942E+00 -0.88812740808E+02 -0.63553451434E+03  0.69347904775E+03  0.26290823499E+03 0.  0.
         25    1    4    4    0    0  0.30402489784E+02 -0.16018674243E+02 -0.30396757001E+03  0.33049160508E+03  0.12509000000E+03 0.  0.
         25    1    4    4    0    0 -0.29610145965E+02 -0.72794066565E+02 -0.33156694433E+03  0.36298744268E+03  0.12509000000E+03 0.  0.
         25    1    3    3    0    0 -0.79234381942E+00  0.88812740808E+02 -0.33214346569E+03  0.36586216071E+03  0.12509000000E+03 0.  0.
<mgrwt>
<rscale>  2 0.43104886E+03</rscale>
<asrwt>0</asrwt>
<pdfrwt beam="1">  1       21 0.67399433E-02 0.43104886E+03</pdfrwt>
<pdfrwt beam="2">  1       21 0.14904553E+00 0.43104886E+03</pdfrwt>
<totfact> 0.44730881E+04</totfact>
</mgrwt>
</event>
<event>
 7    0  0.4770865E-002  0.4520362E+03  0.7546771E-02  0.1027117E+00
         21   -1    0    0  502  501  0.00000000000E+00  0.00000000000E+00  0.45982378423E+02  0.45982378423E+02  0.00000000000E+00 0.  1.
         21   -1    0    0  501  502 -0.00000000000E+00 -0.00000000000E+00 -0.11109510674E+04  0.11109510674E+04  0.00000000000E+00 0.  1.
      99926    2    1    2    0    0 -0.71054273576E-14  0.00000000000E+00 -0.10649686890E+04  0.11569334458E+04  0.45203615957E+03 0.  0.
      99925    2    3    3    0    0 -0.54992216382E+02 -0.89875290381E+02 -0.75311696852E+03  0.80479609288E+03  0.26345753198E+03 0.  0.
         25    1    4    4    0    0  0.12223383222E+02 -0.55876749383E+02 -0.35097896132E+03  0.37696864805E+03  0.12509000000E+03 0.  0.
         25    1    4    4    0    0 -0.67215599604E+02 -0.33998540997E+02 -0.40213800720E+03  0.42782744483E+03  0.12509000000E+03 0.  0.
         25    1    3    3    0    0  0.54992216382E+02  0.89875290381E+02 -0.31185172043E+03  0.35213735292E+03  0.12509000000E+03 0.  0.
<mgrwt>
<rscale>  2 0.45203616E+03</rscale>
<asrwt>0</asrwt>
<pdfrwt beam="1">  1       21 0.67621142E-02 0.45203616E+03</pdfrwt>
<pdfrwt beam="2">  1       21 0.16337516E+00 0.45203616E+03</pdfrwt>
<totfact> 0.34338007E+04</totfact>
</mgrwt>
</event>
<event>
 7    0  0.4770865E-002  0.4556945E+03  0.7546771E-02  0.1026037E+00
         21   -1    0    0  502  501  0.00000000000E+00  0.00000000000E+00  0.91687664519E+03  0.91687664519E+03  0.00000000000E+00 0. -1.
         21   -1    0    0  501  502 -0.00000000000E+00 -0.00000000000E+00 -0.56620879274E+02  0.56620879274E+02  0.00000000000E+00 0. -1.
      99926    2    1    2    0    0  0.00000000000E+00  0.00000000000E+00  0.86025576592E+03  0.97349752446E+03  0.45569446710E+03 0.  0.
      99925    2    3    3    0    0  0.35519439756E+02  0.69958176074E+02  0.36435642374E+03  0.45608140308E+03  0.26286663104E+03 0.  0.
         25    1    4    4    0    0 -0.91672857663E+01  0.18868527562E+02  0.21608643092E+03  0.25056119849E+03  0.12509000000E+03 0.  0.
         25    1    3    3    0    0 -0.35519439756E+02 -0.69958176074E+02  0.49589934217E+03  0.51741612138E+03  0.12509000000E+03 0.  0.
         25    1    4    4    0    0  0.44686725522E+02  0.51089648512E+02  0.14826999282E+03  0.20552020459E+03  0.12509000000E+03 0.  0.
<mgrwt>
<rscale>  2 0.45569447E+03</rscale>
<asrwt>0</asrwt>
<pdfrwt beam="1">  1       21 0.13483479E+00 0.45569447E+03</pdfrwt>
<pdfrwt beam="2">  1       21 0.83266004E-02 0.45569447E+03</pdfrwt>
<totfact> 0.39986142E+04</totfact>
</mgrwt>
</event>
<event>
 7    0  0.4770865E-002  0.4522157E+03  0.7546771E-02  0.1027063E+00
         21   -1    0    0  502  501  0.00000000000E+00  0.00000000000E+00  0.56699647179E+02  0.56699647179E+02  0.00000000000E+00 0.  1.
         21   -1    0    0  501  502 -0.00000000000E+00 -0.00000000000E+00 -0.90167694020E+03  0.90167694020E+03  0.00000000000E+00 0.  1.
      99926    2    1    2    0    0  0.14210854715E-13  0.14210854715E-13 -0.84497729302E+03  0.95837658738E+03  0.45221572011E+03 0.  0.
      99925    2    3    3    0    0  0.71543793971E+02  0.81797781617E+02 -0.48938726882E+03  0.56607419770E+03  0.26292718933E+03 0.  0.
         25    1    3    3    0    0 -0.71543793971E+02 -0.81797781617E+02 -0.35559002421E+03  0.39230238968E+03  0.12509000000E+03 0.  0.
         25    1    4    4    0    0  0.66933460045E+02  0.36991420258E+02 -0.30865463702E+03  0.34170695969E+03  0.12509000000E+03 0.  0.
         25    1    4    4    0    0  0.46103339263E+01  0.44806361360E+02 -0.18073263180E+03  0.22436723802E+03  0.12509000000E+03 0.  0.
<mgrwt>
<rscale>  2 0.45221572E+03</rscale>
<asrwt>0</asrwt>
<pdfrwt beam="1">  1       21 0.83381839E-02 0.45221572E+03</pdfrwt>
<pdfrwt beam="2">  1       21 0.13259954E+00 0.45221572E+03</pdfrwt>
<totfact> 0.41704020E+04</totfact>
</mgrwt>
</event>
<event>
 7    0  0.4770865E-002  0.4552482E+03  0.7546771E-02  0.1026168E+00
         21   -1    0    0  502  501  0.00000000000E+00  0.00000000000E+00  0.21368672857E+03  0.21368672857E+03  0.00000000000E+00 0. -1.
         21   -1    0    0  501  502 -0.00000000000E+00 -0.00000000000E+00 -0.24247054501E+03  0.24247054501E+03  0.00000000000E+00 0. -1.
      99926    2    1    2    0    0  0.00000000000E+00  0.00000000000E+00 -0.28783816444E+02  0.45615727358E+03  0.45524822915E+03 0.  0.
      99925    2    3    3    0    0 -0.74643224076E+02 -0.21039915490E+02 -0.10094469848E+03  0.29223964200E+03  0.26305871448E+03 0.  0.
         25    1    4    4    0    0 -0.73519569791E+02 -0.54329738393E+01 -0.32488751106E+02  0.14878733614E+03  0.12509000000E+03 0.  0.
         25    1    4    4    0    0 -0.11236542844E+01 -0.15606941651E+02 -0.68455947374E+02  0.14345230586E+03  0.12509000000E+03 0.  0.
         25    1    3    3    0    0  0.74643224076E+02  0.21039915490E+02  0.72160882036E+02  0.16391763157E+03  0.12509000000E+03 0.  0.
<mgrwt>
<rscale>  2 0.45524823E+03</rscale>
<asrwt>0</asrwt>
<pdfrwt beam="1">  1       21 0.31424519E-01 0.45524823E+03</pdfrwt>
<pdfrwt beam="2">  1       21 0.35657433E-01 0.45524823E+03</pdfrwt>
<totfact> 0.68325706E+04</totfact>
</mgrwt>
</event>
<event>
 7    0  0.4770865E-002  0.3946425E+03  0.7546771E-02  0.1045651E+00
         21   -1    0    0  502  501  0.00000000000E+00  0.00000000000E+00  0.10761185202E+04  0.10761185202E+04  0.00000000000E+00 0.  1.
         21   -1    0    0  501  502 -0.00000000000E+00 -0.00000000000E+00 -0.36181592588E+02  0.36181592588E+02  0.00000000000E+00 0.  1.
      99926    2    1    2    0    0  0.00000000000E+00  0.17763568394E-14  0.10399369276E+04  0.11123001128E+04  0.39464253128E+03 0.  0.
      99925    2    3    3    0    0 -0.25604993659E+02  0.12092691046E+02  0.64759520841E+03  0.69952731620E+03  0.26297730563E+03 0.  0.
         25    1    3    3    0    0  0.25604993659E+02 -0.12092691046E+02  0.39234171919E+03  0.41277279658E+03  0.12509000000E+03 0.  0.
         25    1    4    4    0    0  0.17338916929E+02 -0.13976457926E+02  0.26514362352E+03  0.29401467414E+03  0.12509000000E+03 0.  0.
         25    1    4    4    0    0 -0.42943910588E+02  0.26069148972E+02  0.38245158489E+03  0.40551264206E+03  0.12509000000E+03 0.  0.
<mgrwt>
<rscale>  2 0.39464253E+03</rscale>
<asrwt>0</asrwt>
<pdfrwt beam="1">  1       21 0.15825270E+00 0.39464253E+03</pdfrwt>
<pdfrwt beam="2">  1       21 0.53208231E-02 0.39464253E+03</pdfrwt>
<totfact> 0.57872696E+04</totfact>
</mgrwt>
</event>
<event>
 7    0  0.4770865E-002  0.4440954E+03  0.7546771E-02  0.1029498E+00
         21   -1    0    0  502  501  0.00000000000E+00  0.00000000000E+00  0.33099695932E+04  0.33099695932E+04  0.00000000000E+00 0. -1.
         21   -1    0    0  501  502 -0.00000000000E+00 -0.00000000000E+00 -0.14895961116E+02  0.14895961116E+02  0.00000000000E+00 0. -1.
      99926    2    1    2    0    0  0.00000000000E+00  0.14210854715E-13  0.32950736320E+04  0.33248655543E+04  0.44409538775E+03 0.  0.
      99925    2    3    3    0    0 -0.57347492043E+02 -0.79929807612E+02  0.18783288611E+04  0.18992110509E+04  0.26306994567E+03 0.  0.
         25    1    4    4    0    0 -0.34001804381E+02 -0.68273890388E+02  0.79658243167E+03  0.80994353220E+03  0.12509000000E+03 0.  0.
         25    1    3    3    0    0  0.57347492043E+02  0.79929807612E+02  0.14167447709E+04  0.14256545034E+04  0.12509000000E+03 0.  0.
         25    1    4    4    0    0 -0.23345687662E+02 -0.11655917225E+02  0.10817464294E+04  0.10892675187E+04  0.12509000000E+03 0.  0.
<mgrwt>
<rscale>  2 0.44409539E+03</rscale>
<asrwt>0</asrwt>
<pdfrwt beam="1">  1       21 0.48675973E+00 0.44409539E+03</pdfrwt>
<pdfrwt beam="2">  1       21 0.21905848E-02 0.44409539E+03</pdfrwt>
<totfact> 0.19696364E+03</totfact>
</mgrwt>
</event>
<event>
 7    0  0.4770865E-002  0.4610414E+03  0.7546771E-02  0.1024480E+00
         21   -1    0    0  502  501  0.00000000000E+00  0.00000000000E+00  0.98343140567E+02  0.98343140567E+02  0.00000000000E+00 0.  1.
         21   -1    0    0  501  502 -0.00000000000E+00 -0.00000000000E+00 -0.54035089429E+03  0.54035089429E+03  0.00000000000E+00 0.  1.
      99926    2    1    2    0    0  0.00000000000E+00  0.71054273576E-14 -0.44200775373E+03  0.63869403486E+03  0.46104144696E+03 0.  0.
      99925    2    3    3    0    0 -0.28519526910E+02  0.49931446510E+02 -0.42056154116E+03  0.49936004439E+03  0.26302458301E+03 0.  0.
         25    1    3    3    0    0  0.28519526910E+02 -0.49931446510E+02 -0.21446212567E+02  0.13933399047E+03  0.12509000000E+03 0.  0.
         25    1    4    4    0    0 -0.26586501539E+02  0.16802753170E+02 -0.28007885398E+03  0.30835182361E+03  0.12509000000E+03 0.  0.
         25    1    4    4    0    0 -0.19330253717E+01  0.33128693340E+02 -0.14048268718E+03  0.19100822078E+03  0.12509000000E+03 0.  0.
<mgrwt>
<rscale>  2 0.46104145E+03</rscale>
<asrwt>0</asrwt>
<pdfrwt beam="1">  1       21 0.14462227E-01 0.46104145E+03</pdfrwt>
<pdfrwt beam="2">  1       21 0.79463367E-01 0.46104145E+03</pdfrwt>
<totfact> 0.53748593E+04</totfact>
</mgrwt>
</event>
<event>
 7    0  0.4770865E-002  0.4379161E+03  0.7546771E-02  0.1031388E+00
         21   -1    0    0  502  501  0.00000000000E+00  0.00000000000E+00  0.10760104229E+03  0.10760104229E+03  0.00000000000E+00 0.  1.
         21   -1    0    0  501  502 -0.00000000000E+00 -0.00000000000E+00 -0.44555922719E+03  0.44555922719E+03  0.00000000000E+00 0.  1.
      99926    2    1    2    0    0  0.00000000000E+00  0.00000000000E+00 -0.33795818490E+03  0.55316026948E+03  0.43791614378E+03 0.  0.
      99925    2    3    3    0    0 -0.52316238352E+02  0.75108582400E+02 -0.25395090574E+03  0.37685650038E+03  0.26296667356E+03 0.  0.
         25    1    4    4    0    0 -0.40250965920E+02  0.63858917164E+02 -0.17519941910E+03  0.22812375175E+03  0.12509000000E+03 0.  0.
         25    1    4    4    0    0 -0.12065272433E+02  0.11249665236E+02 -0.78751486638E+02  0.14873274863E+03  0.12509000000E+03 0.  0.
         25    1    3    3    0    0  0.52316238352E+02 -0.75108582400E+02 -0.84007279163E+02  0.17630376910E+03  0.12509000000E+03 0.  0.
<mgrwt>
<rscale>  2 0.43791614E+03</rscale>
<asrwt>0</asrwt>
<pdfrwt beam="1">  1       21 0.15823683E-01 0.43791614E+03</pdfrwt>
<pdfrwt beam="2">  1       21 0.65523416E-01 0.43791614E+03</pdfrwt>
<totfact> 0.70745648E+04</totfact>
</mgrwt>
</event>
<event>
 7    0  0.4770865E-002  0.4557926E+03  0.7546771E-02  0.1026009E+00
         21   -1    0    0  502  501  0.00000000000E+00  0.00000000000E+00  0.97510002615E+03  0.97510002615E+03  0.00000000000E+00 0.  1.
         21   -1    0    0  501  502 -0.00000000000E+00 -0.00000000000E+00 -0.53262976291E+02  0.53262976291E+02  0.00000000000E+00 0.  1.
      99926    2    1    2    0    0  0.71054273576E-14  0.00000000000E+00  0.92183704986E+03  0.10283630024E+04  0.45579262642E+03 0.  0.
      99925    2    3    3    0    0  0.32620547270E+02  0.44627392619E+02  0.80456887364E+03  0.84821018528E+03  0.26281883820E+03 0.  0.
         25    1    4    4    0    0 -0.49191009766E+01 -0.11213439144E+02  0.34435851172E+03  0.36657909306E+03  0.12509000000E+03 0.  0.
         25    1    4    4    0    0  0.37539648246E+02  0.55840831764E+02  0.46021036192E+03  0.48163109223E+03  0.12509000000E+03 0.  0.
         25    1    3    3    0    0 -0.32620547270E+02 -0.44627392619E+02  0.11726817622E+03  0.18015281716E+03  0.12509000000E+03 0.  0.
<mgrwt>
<rscale>  2 0.45579263E+03</rscale>
<asrwt>0</asrwt>
<pdfrwt beam="1">  1       21 0.14339705E+00 0.45579263E+03</pdfrwt>
<pdfrwt beam="2">  1       21 0.78327912E-02 0.45579263E+03</pdfrwt>
<totfact> 0.37846735E+04</totfact>
</mgrwt>
</event>
<event>
 7    0  0.4770865E-002  0.4425751E+03  0.7546771E-02  0.1029960E+00
         21   -1    0    0  502  501  0.00000000000E+00  0.00000000000E+00  0.11032671853E+03  0.11032671853E+03  0.00000000000E+00 0.  1.
         21   -1    0    0  501  502 -0.00000000000E+00 -0.00000000000E+00 -0.44384689745E+03  0.44384689745E+03  0.00000000000E+00 0.  1.
      99926    2    1    2    0    0  0.00000000000E+00 -0.71054273576E-14 -0.33352017892E+03  0.55417361598E+03  0.44257506358E+03 0.  0.
      99925    2    3    3    0    0 -0.64114869375E+02  0.55292172863E+02 -0.14313865413E+03  0.31114980247E+03  0.26297829647E+03 0.  0.
         25    1    4    4    0    0  0.32069497768E+01  0.38990193327E+02 -0.48849530325E+02  0.13987245767E+03  0.12509000000E+03 0.  0.
         25    1    4    4    0    0 -0.67321819152E+02  0.16301979536E+02 -0.94289123808E+02  0.17127734479E+03  0.12509000000E+03 0.  0.
         25    1    3    3    0    0  0.64114869375E+02 -0.55292172863E+02 -0.19038152478E+03  0.24302381351E+03  0.12509000000E+03 0.  0.
<mgrwt>
<rscale>  2 0.44257506E+03</rscale>
<asrwt>0</asrwt>
<pdfrwt beam="1">  1       21 0.16224518E-01 0.44257506E+03</pdfrwt>
<pdfrwt beam="2">  1       21 0.65271601E-01 0.44257506E+03</pdfrwt>
<totfact> 0.68036463E+04</totfact>
</mgrwt>
</event>
<event>
 7    0  0.4770865E-002  0.4433613E+03  0.7546771E-02  0.1029720E+00
         21   -1    0    0  502  501  0.00000000000E+00  0.00000000000E+00  0.10259261759E+04  0.10259261759E+04  0.00000000000E+00 0. -1.
         21   -1    0    0  501  502 -0.00000000000E+00 -0.00000000000E+00 -0.47900438932E+02  0.47900438932E+02  0.00000000000E+00 0. -1.
      99926    2    1    2    0    0  0.00000000000E+00  0.00000000000E+00  0.97802573699E+03  0.10738266149E+04  0.44336131603E+03 0.  0.
      99925    2    3    3    0    0  0.10756368710E+02 -0.98016397697E+02  0.68402795542E+03  0.73945389265E+03  0.26301122006E+03 0.  0.
         25    1    4    4    0    0  0.59928265731E+01 -0.59868035130E+02  0.45469090547E+03  0.47540658727E+03  0.12509000000E+03 0.  0.
         25    1    3    3    0    0 -0.10756368710E+02  0.98016397697E+02  0.29399778157E+03  0.33437272220E+03  0.12509000000E+03 0.  0.
         25    1    4    4    0    0  0.47635421368E+01 -0.38148362567E+02  0.22933704995E+03  0.26404730538E+03  0.12509000000E+03 0.  0.
<mgrwt>
<rscale>  2 0.44336132E+03</rscale>
<asrwt>0</asrwt>
<pdfrwt beam="1">  1       21 0.15087148E+00 0.44336132E+03</pdfrwt>
<pdfrwt beam="2">  1       21 0.70441829E-02 0.44336132E+03</pdfrwt>
<totfact> 0.39919135E+04</totfact>
</mgrwt>
</event>
<event>
 7    0  0.4770865E-002  0.4483443E+03  0.7546771E-02  0.1028217E+00
         21   -1    0    0  502  501  0.00000000000E+00  0.00000000000E+00  0.27764561893E+02  0.27764561893E+02  0.00000000000E+00 0. -1.
         21   -1    0    0  501  502 -0.00000000000E+00 -0.00000000000E+00 -0.18099749070E+04  0.18099749070E+04  0.00000000000E+00 0. -1.
      99926    2    1    2    0    0  0.14210854715E-13  0.00000000000E+00 -0.17822103451E+04  0.18377394689E+04  0.44834433343E+03 0.  0.
      99925    2    3    3    0    0 -0.99698891357E+02 -0.13375015460E+02 -0.98134030840E+03  0.10209414010E+04  0.26300909364E+03 0.  0.
         25    1    4    4    0    0 -0.62398371554E+02  0.28578024382E+02 -0.55792508299E+03  0.57588034050E+03  0.12509000000E+03 0.  0.
         25    1    3    3    0    0  0.99698891357E+02  0.13375015460E+02 -0.80087003670E+03  0.81679806793E+03  0.12509000000E+03 0.  0.
         25    1    4    4    0    0 -0.37300519803E+02 -0.41953039842E+02 -0.42341522541E+03  0.44506106046E+03  0.12509000000E+03 0.  0.
<mgrwt>
<rscale>  2 0.44834433E+03</rscale>
<asrwt>0</asrwt>
<pdfrwt beam="1">  1       21 0.40830246E-02 0.44834433E+03</pdfrwt>
<pdfrwt beam="2">  1       21 0.26617273E+00 0.44834433E+03</pdfrwt>
<totfact> 0.17428133E+04</totfact>
</mgrwt>
</event>
<event>
 7    0  0.4770865E-002  0.4571896E+03  0.7546771E-02  0.1025599E+00
         21   -1    0    0  502  501  0.00000000000E+00  0.00000000000E+00  0.53654111165E+03  0.53654111165E+03  0.00000000000E+00 0.  1.
         21   -1    0    0  501  502 -0.00000000000E+00 -0.00000000000E+00 -0.97393452321E+02  0.97393452321E+02  0.00000000000E+00 0.  1.
      99926    2    1    2    0    0  0.14210854715E-13  0.35527136788E-14  0.43914765933E+03  0.63393456397E+03  0.45718963757E+03 0.  0.
      99925    2    3    3    0    0 -0.96041513041E+02 -0.26044520788E+02  0.19518863117E+03  0.34227413675E+03  0.26296519476E+03 0.  0.
         25    1    4    4    0    0 -0.87313153110E+02 -0.25212247574E+02  0.12306555658E+03  0.19761549395E+03  0.12509000000E+03 0.  0.
         25    1    4    4    0    0 -0.87283599312E+01 -0.83227321475E+00  0.72123074594E+02  0.14465864279E+03  0.12509000000E+03 0.  0.
         25    1    3    3    0    0  0.96041513041E+02  0.26044520788E+02  0.24395902815E+03  0.29166042722E+03  0.12509000000E+03 0.  0.
<mgrwt>
<rscale>  2 0.45718964E+03</rscale>
<asrwt>0</asrwt>
<pdfrwt beam="1">  1       21 0.78903103E-01 0.45718964E+03</pdfrwt>
<pdfrwt beam="2">  1       21 0.14322567E-01 0.45718964E+03</pdfrwt>
<totfact> 0.55668258E+04</totfact>
</mgrwt>
</event>
<event>
 7    0  0.4770865E-002  0.4596229E+03  0.7546771E-02  0.1024891E+00
         21   -1    0    0  502  501  0.00000000000E+00  0.00000000000E+00  0.30058019335E+03  0.30058019335E+03  0.00000000000E+00 0.  1.
         21   -1    0    0  501  502 -0.00000000000E+00 -0.00000000000E+00 -0.17570453250E+03  0.17570453250E+03  0.00000000000E+00 0.  1.
      99926    2    1    2    0    0  0.00000000000E+00  0.00000000000E+00  0.12487566085E+03  0.47628472586E+03  0.45962289914E+03 0.  0.
      99925    2    3    3    0    0 -0.62430992591E+02  0.74833328366E+02  0.10406557782E+02  0.28071289883E+03  0.26304710463E+03 0.  0.
         25    1    4    4    0    0 -0.53921170709E+02  0.36548512352E+02  0.39433247528E+02  0.14644376230E+03  0.12509000000E+03 0.  0.
         25    1    4    4    0    0 -0.85098218817E+01  0.38284816014E+02 -0.29026689746E+02  0.13426913653E+03  0.12509000000E+03 0.  0.
         25    1    3    3    0    0  0.62430992591E+02 -0.74833328366E+02  0.11446910307E+03  0.19557182703E+03  0.12509000000E+03 0.  0.
<mgrwt>
<rscale>  2 0.45962290E+03</rscale>
<asrwt>0</asrwt>
<pdfrwt beam="1">  1       21 0.44202970E-01 0.45962290E+03</pdfrwt>
<pdfrwt beam="2">  1       21 0.25838902E-01 0.45962290E+03</pdfrwt>
<totfact> 0.64570213E+04</totfact>
</mgrwt>
</event>
<event>
 7    0  0.4770865E-002  0.4572168E+03  0.7546771E-02  0.1025592E+00
         21   -1    0    0  502  501  0.00000000000E+00  0.00000000000E+00  0.91403615956E+02  0.91403615956E+02  0.00000000000E+00 0.  1.
         21   -1    0    0  501  502 -0.00000000000E+00 -0.00000000000E+00 -0.57176938506E+03  0.57176938506E+03  0.00000000000E+00 0.  1.
      99926    2    1    2    0    0 -0.14210854715E-13  0.00000000000E+00 -0.48036576911E+03  0.66317300102E+03  0.45721675073E+03 0.  0.
      99925    2    3    3    0    0 -0.85056301465E+02  0.20635667195E+02 -0.19291452161E+03  0.33769468689E+03  0.26298532987E+03 0.  0.
         25    1    3    3    0    0  0.85056301465E+02 -0.20635667195E+02 -0.28745124750E+03  0.32547831413E+03  0.12509000000E+03 0.  0.
         25    1    4    4    0    0 -0.16908829047E+02  0.40481749303E+02 -0.79878087627E+02  0.15476659042E+03  0.12509000000E+03 0.  0.
         25    1    4    4    0    0 -0.68147472418E+02 -0.19846082107E+02 -0.11303643398E+03  0.18292809647E+03  0.12509000000E+03 0.  0.
<mgrwt>
<rscale>  2 0.45721675E+03</rscale>
<asrwt>0</asrwt>
<pdfrwt beam="1">  1       21 0.13441708E-01 0.45721675E+03</pdfrwt>
<pdfrwt beam="2">  1       21 0.84083732E-01 0.45721675E+03</pdfrwt>
<totfact> 0.53998108E+04</totfact>
</mgrwt>
</event>
<event>
 7    0  0.4770865E-002  0.4450900E+03  0.7546771E-02  0.1029196E+00
         21   -1    0    0  502  501  0.00000000000E+00  0.00000000000E+00  0.31979683251E+03  0.31979683251E+03  0.00000000000E+00 0.  1.
         21   -1    0    0  501  502 -0.00000000000E+00 -0.00000000000E+00 -0.15486796645E+03  0.15486796645E+03  0.00000000000E+00 0.  1.
      99926    2    1    2    0    0  0.00000000000E+00  0.00000000000E+00  0.16492886607E+03  0.47466479896E+03  0.44509003641E+03 0.  0.
      99925    2    3    3    0    0 -0.32869664217E+02 -0.65868781739E+02  0.26997254329E+02  0.27443555822E+03  0.26299603160E+03 0.  0.
         25    1    3    3    0    0  0.32869664217E+02  0.65868781739E+02  0.13793161174E+03  0.20022924075E+03  0.12509000000E+03 0.  0.
         25    1    4    4    0    0  0.70795203910E-01 -0.88119296157E+01 -0.16583554372E+02  0.12649180800E+03  0.12509000000E+03 0.  0.
         25    1    4    4    0    0 -0.32940459421E+02 -0.57056852123E+02  0.43580808701E+02  0.14794375022E+03  0.12509000000E+03 0.  0.
<mgrwt>
<rscale>  2 0.44509004E+03</rscale>
<asrwt>0</asrwt>
<pdfrwt beam="1">  1       21 0.47028946E-01 0.44509004E+03</pdfrwt>
<pdfrwt beam="2">  1       21 0.22774701E-01 0.44509004E+03</pdfrwt>
<totfact> 0.72638326E+04</totfact>
</mgrwt>
</event>
<event>
 7    0  0.4770865E-002  0.4726303E+03  0.7546771E-02  0.1021180E+00
         21   -1    0    0  502  501  0.00000000000E+00  0.00000000000E+00  0.58349047806E+03  0.58349047806E+03  0.00000000000E+00 0.  1.
         21   -1    0    0  501  502 -0.00000000000E+00 -0.00000000000E+00 -0.95708249960E+02  0.95708249960E+02  0.00000000000E+00 0.  1.
      99926    2    1    2    0    0  0.14210854715E-13  0.00000000000E+00  0.48778222810E+03  0.67919872802E+03  0.47263031017E+03 0.  0.
      99925    2    3    3    0    0 -0.83287360959E+02 -0.30870256737E+02  0.16780934916E+03  0.32434677494E+03  0.26296595883E+03 0.  0.
         25    1    4    4    0    0 -0.14144108294E+02 -0.31879275688E+02  0.10992563822E+03  0.17013964281E+03  0.12509000000E+03 0.  0.
         25    1    4    4    0    0 -0.69143252665E+02  0.10090189512E+01  0.57883710947E+02  0.15420713214E+03  0.12509000000E+03 0.  0.
         25    1    3    3    0    0  0.83287360959E+02  0.30870256737E+02  0.31997287893E+03  0.35485195307E+03  0.12509000000E+03 0.  0.
<mgrwt>
<rscale>  2 0.47263031E+03</rscale>
<asrwt>0</asrwt>
<pdfrwt beam="1">  1       21 0.85807422E-01 0.47263031E+03</pdfrwt>
<pdfrwt beam="2">  1       21 0.14074743E-01 0.47263031E+03</pdfrwt>
<totfact> 0.47146498E+04</totfact>
</mgrwt>
</event>
<event>
 7    0  0.4770865E-002  0.4604341E+03  0.7546771E-02  0.1024655E+00
         21   -1    0    0  502  501  0.00000000000E+00  0.00000000000E+00  0.14271010392E+03  0.14271010392E+03  0.00000000000E+00 0. -1.
         21   -1    0    0  501  502 -0.00000000000E+00 -0.00000000000E+00 -0.37138151768E+03  0.37138151768E+03  0.00000000000E+00 0. -1.
      99926    2    1    2    0    0  0.71054273576E-14  0.00000000000E+00 -0.22867141377E+03  0.51409162160E+03  0.46043412115E+03 0.  0.
      99925    2    3    3    0    0 -0.51454523089E+02  0.46955098657E+02 -0.24959943655E+03  0.36939248728E+03  0.26324623776E+03 0.  0.
         25    1    4    4    0    0 -0.24723437954E+01  0.35351971906E+02 -0.16556428766E+03  0.21051108249E+03  0.12509000000E+03 0.  0.
         25    1    3    3    0    0  0.51454523089E+02 -0.46955098657E+02  0.20928022782E+02  0.14469913432E+03  0.12509000000E+03 0.  0.
         25    1    4    4    0    0 -0.48982179294E+02  0.11603126751E+02 -0.84035148888E+02  0.15888140479E+03  0.12509000000E+03 0.  0.
<mgrwt>
<rscale>  2 0.46043412E+03</rscale>
<asrwt>0</asrwt>
<pdfrwt beam="1">  1       21 0.20986780E-01 0.46043412E+03</pdfrwt>
<pdfrwt beam="2">  1       21 0.54614928E-01 0.46043412E+03</pdfrwt>
<totfact> 0.61592228E+04</totfact>
</mgrwt>
</event>
<event>
 7    0  0.4770865E-002  0.4502557E+03  0.7546771E-02  0.1027646E+00
         21   -1    0    0  502  501  0.00000000000E+00  0.00000000000E+00  0.86457519569E+02  0.86457519569E+02  0.00000000000E+00 0.  1.
         21   -1    0    0  501  502 -0.00000000000E+00 -0.00000000000E+00 -0.58621327034E+03  0.58621327034E+03  0.00000000000E+00 0.  1.
      99926    2    1    2    0    0  0.26645352591E-14  0.14210854715E-13 -0.49975575077E+03  0.67267078991E+03  0.45025568421E+03 0.  0.
      99925    2    3    3    0    0 -0.57796670797E+01 -0.10213805959E+03 -0.37041898648E+03  0.46568988629E+03  0.26304231004E+03 0.  0.
         25    1    4    4    0    0  0.23739077661E+02 -0.68280840894E+02 -0.23560890778E+03  0.27637815139E+03  0.12509000000E+03 0.  0.
         25    1    4    4    0    0 -0.29518744741E+02 -0.33857218694E+02 -0.13481007871E+03  0.18931173490E+03  0.12509000000E+03 0.  0.
         25    1    3    3    0    0  0.57796670797E+01  0.10213805959E+03 -0.12933676428E+03  0.20698090362E+03  0.12509000000E+03 0.  0.
<mgrwt>
<rscale>  2 0.45025568E+03</rscale>
<asrwt>0</asrwt>
<pdfrwt beam="1">  1       21 0.12714341E-01 0.45025568E+03</pdfrwt>
<pdfrwt beam="2">  1       21 0.86207834E-01 0.45025568E+03</pdfrwt>
<totfact> 0.56494361E+04</totfact>
</mgrwt>
</event>
<event>
 7    0  0.4770865E-002  0.4542380E+03  0.7546771E-02  0.1026466E+00
         21   -1    0    0  502  501  0.00000000000E+00  0.00000000000E+00  0.14320639857E+03  0.14320639857E+03  0.00000000000E+00 0.  1.
         21   -1    0    0  501  502 -0.00000000000E+00 -0.00000000000E+00 -0.36020062882E+03  0.36020062882E+03  0.00000000000E+00 0.  1.
      99926    2    1    2    0    0 -0.35527136788E-14  0.14210854715E-13 -0.21699423025E+03  0.50340702739E+03  0.45423797647E+03 0.  0.
      99925    2    3    3    0    0  0.10751693997E+02  0.10211006033E+03 -0.18746006406E+03  0.33890219944E+03  0.26300449012E+03 0.  0.
         25    1    4    4    0    0  0.42965637426E+02  0.68082737442E+02 -0.98813335690E+02  0.17858580164E+03  0.12509000000E+03 0.  0.
         25    1    4    4    0    0 -0.32213943429E+02  0.34027322892E+02 -0.88646728370E+02  0.16031639780E+03  0.12509000000E+03 0.  0.
         25    1    3    3    0    0 -0.10751693997E+02 -0.10211006033E+03 -0.29534166187E+02  0.16450482795E+03  0.12509000000E+03 0.  0.
<mgrwt>
<rscale>  2 0.45423798E+03</rscale>
<asrwt>0</asrwt>
<pdfrwt beam="1">  1       21 0.21059765E-01 0.45423798E+03</pdfrwt>
<pdfrwt beam="2">  1       21 0.52970680E-01 0.45423798E+03</pdfrwt>
<totfact> 0.65426809E+04</totfact>
</mgrwt>
</event>
<event>
 7    0  0.4770865E-002  0.4405803E+03  0.7546771E-02  0.1030569E+00
         21   -1    0    0  502  501  0.00000000000E+00  0.00000000000E+00  0.74874720409E+03  0.74874720409E+03  0.00000000000E+00 0. -1.
         21   -1    0    0  501  502 -0.00000000000E+00 -0.00000000000E+00 -0.64811934936E+02  0.64811934936E+02  0.00000000000E+00 0. -1.
      99926    2    1    2    0    0  0.00000000000E+00 -0.14210854715E-13  0.68393526915E+03  0.81355913902E+03  0.44058032219E+03 0.  0.
      99925    2    3    3    0    0 -0.69338054986E+01 -0.96897857223E+02  0.40044197942E+03  0.48882351453E+03  0.26297790227E+03 0.  0.
         25    1    3    3    0    0  0.69338054986E+01  0.96897857223E+02  0.28349328973E+03  0.32473562449E+03  0.12509000000E+03 0.  0.
         25    1    4    4    0    0  0.15019099875E+02 -0.12351685293E+02  0.15939199874E+03  0.20354718090E+03  0.12509000000E+03 0.  0.
         25    1    4    4    0    0 -0.21952905373E+02 -0.84546171931E+02  0.24104998068E+03  0.28527633363E+03  0.12509000000E+03 0.  0.
<mgrwt>
<rscale>  2 0.44058032E+03</rscale>
<asrwt>0</asrwt>
<pdfrwt beam="1">  1       21 0.11010988E+00 0.44058032E+03</pdfrwt>
<pdfrwt beam="2">  1       21 0.95311674E-02 0.44058032E+03</pdfrwt>
<totfact> 0.52846710E+04</totfact>
</mgrwt>
</event>
<event>
 7    0  0.4770865E-002  0.4675782E+03  0.7546771E-02  0.1022606E+00
         21   -1    0    0  502  501  0.00000000000E+00  0.00000000000E+00  0.54453760570E+02  0.54453760570E+02  0.00000000000E+00 0.  1.
         21   -1    0    0  501  502 -0.00000000000E+00 -0.00000000000E+00 -0.10037386552E+04  0.10037386552E+04  0.00000000000E+00 0.  1.
      99926    2    1    2    0    0  0.00000000000E+00  0.00000000000E+00 -0.94928489468E+03  0.10581924158E+04  0.46757820483E+03 0.  0.
      99925    2    3    3    0    0  0.11492255050E+03 -0.43357315530E+02 -0.63837399251E+03  0.70126084449E+03  0.26297978683E+03 0.  0.
         25    1    3    3    0    0 -0.11492255050E+03  0.43357315530E+02 -0.31091090217E+03  0.35693157133E+03  0.12509000000E+03 0.  0.
         25    1    4    4    0    0  0.96129108929E+02 -0.22305108884E+02 -0.40039643660E+03  0.43093286949E+03  0.12509000000E+03 0.  0.
         25    1    4    4    0    0  0.18793441570E+02 -0.21052206647E+02 -0.23797755591E+03  0.27032797500E+03  0.12509000000E+03 0.  0.
<mgrwt>
<rscale>  2 0.46757820E+03</rscale>
<asrwt>0</asrwt>
<pdfrwt beam="1">  1       21 0.80079062E-02 0.46757820E+03</pdfrwt>
<pdfrwt beam="2">  1       21 0.14760862E+00 0.46757820E+03</pdfrwt>
<totfact> 0.33560541E+04</totfact>
</mgrwt>
</event>
<event>
 7    0  0.4770865E-002  0.4515756E+03  0.7546771E-02  0.1027253E+00
         21   -1    0    0  502  501  0.00000000000E+00  0.00000000000E+00  0.28190398980E+03  0.28190398980E+03  0.00000000000E+00 0. -1.
         21   -1    0    0  501  502 -0.00000000000E+00 -0.00000000000E+00 -0.18084215139E+03  0.18084215139E+03  0.00000000000E+00 0. -1.
      99926    2    1    2    0    0  0.00000000000E+00  0.00000000000E+00  0.10106183841E+03  0.46274614119E+03  0.45157557064E+03 0.  0.
      99925    2    3    3    0    0  0.72673436623E+02 -0.35822887334E+02 -0.12228088794E+02  0.27553817299E+03  0.26307233031E+03 0.  0.
         25    1    3    3    0    0 -0.72673436623E+02  0.35822887334E+02  0.11328992721E+03  0.18720796819E+03  0.12509000000E+03 0.  0.
         25    1    4    4    0    0  0.57141405899E+02 -0.53268525719E+02 -0.15125713560E+02  0.14825306544E+03  0.12509000000E+03 0.  0.
         25    1    4    4    0    0  0.15532030724E+02  0.17445638385E+02  0.28976247668E+01  0.12728510756E+03  0.12509000000E+03 0.  0.
<mgrwt>
<rscale>  2 0.45157557E+03</rscale>
<asrwt>0</asrwt>
<pdfrwt beam="1">  1       21 0.41456469E-01 0.45157557E+03</pdfrwt>
<pdfrwt beam="2">  1       21 0.26594434E-01 0.45157557E+03</pdfrwt>
<totfact> 0.69857785E+04</totfact>
</mgrwt>
</event>
<event>
 7    0  0.4770865E-002  0.4520504E+03  0.7546771E-02  0.1027112E+00
         21   -1    0    0  502  501  0.00000000000E+00  0.00000000000E+00  0.40257177358E+03  0.40257177358E+03  0.00000000000E+00 0. -1.
         21   -1    0    0  501  502 -0.00000000000E+00 -0.00000000000E+00 -0.12690255338E+03  0.12690255338E+03  0.00000000000E+00 0. -1.
      99926    2    1    2    0    0  0.00000000000E+00  0.00000000000E+00  0.27566922021E+03  0.52947432696E+03  0.45205037766E+03 0.  0.
      99925    2    3    3    0    0  0.76966525783E+02  0.65533878674E+02  0.22580102662E+03  0.36109119189E+03  0.26302511266E+03 0.  0.
         25    1    4    4    0    0  0.55707567959E+02  0.13899970015E+01  0.13559115364E+03  0.19271153122E+03  0.12509000000E+03 0.  0.
         25    1    4    4    0    0  0.21258957824E+02  0.64143881673E+02  0.90209872973E+02  0.16837966067E+03  0.12509000000E+03 0.  0.
         25    1    3    3    0    0 -0.76966525783E+02 -0.65533878674E+02  0.49868193593E+02  0.16838313507E+03  0.12509000000E+03 0.  0.
<mgrwt>
<rscale>  2 0.45205038E+03</rscale>
<asrwt>0</asrwt>
<pdfrwt beam="1">  1       21 0.59201731E-01 0.45205038E+03</pdfrwt>
<pdfrwt beam="2">  1       21 0.18662140E-01 0.45205038E+03</pdfrwt>
<totfact> 0.64742065E+04</totfact>
</mgrwt>
</event>
<event>
 7    0  0.4770865E-002  0.4556434E+03  0.7546771E-02  0.1026052E+00
         21   -1    0    0  502  501  0.00000000000E+00  0.00000000000E+00  0.25339229955E+03  0.25339229955E+03  0.00000000000E+00 0.  1.
         21   -1    0    0  501  502 -0.00000000000E+00 -0.00000000000E+00 -0.20483147008E+03  0.20483147008E+03  0.00000000000E+00 0.  1.
      99926    2    1    2    0    0  0.00000000000E+00  0.14210854715E-13  0.48560829470E+02  0.45822376964E+03  0.45564335714E+03 0.  0.
      99925    2    3    3    0    0  0.81616517022E+02  0.78458974599E+02  0.19587109274E+02  0.28703950895E+03  0.26304174251E+03 0.  0.
         25    1    3    3    0    0 -0.81616517022E+02 -0.78458974599E+02  0.28973720196E+02  0.17118426069E+03  0.12509000000E+03 0.  0.
         25    1    4    4    0    0  0.32284612656E+02 -0.12242685071E+01 -0.22771390818E+01  0.12921489276E+03  0.12509000000E+03 0.  0.
         25    1    4    4    0    0  0.49331904366E+02  0.79683243106E+02  0.21864248356E+02  0.15782461619E+03  0.12509000000E+03 0.  0.
<mgrwt>
<rscale>  2 0.45564336E+03</rscale>
<asrwt>0</asrwt>
<pdfrwt beam="1">  1       21 0.37263574E-01 0.45564336E+03</pdfrwt>
<pdfrwt beam="2">  1       21 0.30122275E-01 0.45564336E+03</pdfrwt>
<totfact> 0.67960713E+04</totfact>
</mgrwt>
</event>
<event>
 7    0  0.4770865E-002  0.4548000E+03  0.7546771E-02  0.1026300E+00
         21   -1    0    0  502  501  0.00000000000E+00  0.00000000000E+00  0.15836519898E+03  0.15836519898E+03  0.00000000000E+00 0.  1.
         21   -1    0    0  501  502 -0.00000000000E+00 -0.00000000000E+00 -0.32652852679E+03  0.32652852679E+03  0.00000000000E+00 0.  1.
      99926    2    1    2    0    0 -0.88817841970E-15  0.00000000000E+00 -0.16816332781E+03  0.48489372577E+03  0.45479997853E+03 0.  0.
      99925    2    3    3    0    0  0.53072869986E+01  0.23050581447E+02  0.12002656248E+02  0.26428822604E+03  0.26295380975E+03 0.  0.
         25    1    3    3    0    0 -0.53072869986E+01 -0.23050581447E+02 -0.18016598406E+03  0.22060549973E+03  0.12509000000E+03 0.  0.
         25    1    4    4    0    0 -0.28689260362E+02  0.36224030422E+02 -0.90733055331E+00  0.13335511010E+03  0.12509000000E+03 0.  0.
         25    1    4    4    0    0  0.33996547361E+02 -0.13173448975E+02  0.12909986802E+02  0.13093311594E+03  0.12509000000E+03 0.  0.
<mgrwt>
<rscale>  2 0.45479998E+03</rscale>
<asrwt>0</asrwt>
<pdfrwt beam="1">  1       21 0.23289000E-01 0.45479998E+03</pdfrwt>
<pdfrwt beam="2">  1       21 0.48018901E-01 0.45479998E+03</pdfrwt>
<totfact> 0.66451017E+04</totfact>
</mgrwt>
</event>
<event>
 7    0  0.4770865E-002  0.4151823E+03  0.7546771E-02  0.1038646E+00
         21   -1    0    0  502  501  0.00000000000E+00  0.00000000000E+00  0.43716825676E+03  0.43716825676E+03  0.00000000000E+00 0. -1.
         21   -1    0    0  501  502 -0.00000000000E+00 -0.00000000000E+00 -0.98575504685E+02  0.98575504685E+02  0.00000000000E+00 0. -1.
      99926    2    1    2    0    0  0.71054273576E-14  0.17763568394E-14  0.33859275207E+03  0.53574376144E+03  0.41518228065E+03 0.  0.
      99925    2    3    3    0    0  0.31150080884E+02  0.63446434551E+01  0.14222925699E+03  0.30076139542E+03  0.26309251869E+03 0.  0.
         25    1    3    3    0    0 -0.31150080884E+02 -0.63446434551E+01  0.19636349508E+03  0.23498236602E+03  0.12509000000E+03 0.  0.
         25    1    4    4    0    0 -0.13080201920E+02  0.30482941959E+02  0.80851917947E+02  0.15259371602E+03  0.12509000000E+03 0.  0.
         25    1    4    4    0    0  0.44230282804E+02 -0.24138298504E+02  0.61377339045E+02  0.14816767940E+03  0.12509000000E+03 0.  0.
<mgrwt>
<rscale>  2 0.41518228E+03</rscale>
<asrwt>0</asrwt>
<pdfrwt beam="1">  1       21 0.64289449E-01 0.41518228E+03</pdfrwt>
<pdfrwt beam="2">  1       21 0.14496398E-01 0.41518228E+03</pdfrwt>
<totfact> 0.87225664E+04</totfact>
</mgrwt>
</event>
<event>
 6    0  0.4770865E-002  0.4565723E+03  0.7546771E-02  0.1025780E+00
         21   -1    0    0  502  501  0.00000000000E+00  0.00000000000E+00  0.46487693799E+03  0.46487693799E+03  0.00000000000E+00 0.  1.
         21   -1    0    0  501  502 -0.00000000000E+00 -0.00000000000E+00 -0.11210401961E+03  0.11210401961E+03  0.00000000000E+00 0.  1.
      99926    2    1    2    0    0  0.00000000000E+00 -0.35527136788E-14  0.35277291838E+03  0.57698095759E+03  0.45657233105E+03 0.  0.
         25    1    3    3    0    0  0.29361331163E+02  0.17238159434E+02  0.46737567077E+02  0.13780838213E+03  0.12509000000E+03 0.  0.
         25    1    3    3    0    0  0.74888929468E+02  0.38160555249E+00  0.18485756709E+03  0.23543221018E+03  0.12509000000E+03 0.  0.
         25    1    3    3    0    0 -0.10425026063E+03 -0.17619764987E+02  0.12117778421E+03  0.20374036529E+03  0.12509000000E+03 0.  0.
<mgrwt>
<rscale>  2 0.45657233E+03</rscale>
<asrwt>0</asrwt>
<pdfrwt beam="1">  1       21 0.68364255E-01 0.45657233E+03</pdfrwt>
<pdfrwt beam="2">  1       21 0.16485885E-01 0.45657233E+03</pdfrwt>
<totfact> 0.59376417E+04</totfact>
</mgrwt>
</event>
<event>
 7    0  0.4770865E-002  0.4566402E+03  0.7546771E-02  0.1025760E+00
         21   -1    0    0  502  501  0.00000000000E+00  0.00000000000E+00  0.52763794540E+03  0.52763794540E+03  0.00000000000E+00 0. -1.
         21   -1    0    0  501  502 -0.00000000000E+00 -0.00000000000E+00 -0.98798929195E+02  0.98798929195E+02  0.00000000000E+00 0. -1.
      99926    2    1    2    0    0 -0.14210854715E-13 -0.14210854715E-13  0.42883901621E+03  0.62643687460E+03  0.45664018224E+03 0.  0.
      99925    2    3    3    0    0  0.67199053095E+02  0.68735884246E+02  0.35516032539E+03  0.45232084403E+03  0.26308735183E+03 0.  0.
         25    1    4    4    0    0  0.48478770498E+01  0.23355220348E+02  0.21109539607E+03  0.24653142310E+03  0.12509000000E+03 0.  0.
         25    1    4    4    0    0  0.62351176045E+02  0.45380663898E+02  0.14406492932E+03  0.20578942094E+03  0.12509000000E+03 0.  0.
         25    1    3    3    0    0 -0.67199053095E+02 -0.68735884246E+02  0.73678690817E+02  0.17411603057E+03  0.12509000000E+03 0.  0.
<mgrwt>
<rscale>  2 0.45664018E+03</rscale>
<asrwt>0</asrwt>
<pdfrwt beam="1">  1       21 0.77593814E-01 0.45664018E+03</pdfrwt>
<pdfrwt beam="2">  1       21 0.14529255E-01 0.45664018E+03</pdfrwt>
<totfact> 0.56346614E+04</totfact>
</mgrwt>
</event>
<event>
 7    0  0.4770865E-002  0.4440626E+03  0.7546771E-02  0.1029508E+00
         21   -1    0    0  502  501  0.00000000000E+00  0.00000000000E+00  0.16020420340E+04  0.16020420340E+04  0.00000000000E+00 0. -1.
         21   -1    0    0  501  502 -0.00000000000E+00 -0.00000000000E+00 -0.30771919000E+02  0.30771919000E+02  0.00000000000E+00 0. -1.
      99926    2    1    2    0    0  0.00000000000E+00 -0.14210854715E-13  0.15712701150E+04  0.16328139530E+04  0.44406264290E+03 0.  0.
      99925    2    3    3    0    0 -0.54054171411E+02 -0.86382470267E+02  0.95804819399E+03  0.99872214804E+03  0.26306995715E+03 0.  0.
         25    1    3    3    0    0  0.54054171411E+02  0.86382470267E+02  0.61322192105E+03  0.63409180500E+03  0.12509000000E+03 0.  0.
         25    1    4    4    0    0 -0.34809218270E+02 -0.67105647820E+02  0.39158700818E+03  0.41797457186E+03  0.12509000000E+03 0.  0.
         25    1    4    4    0    0 -0.19244953141E+02 -0.19276822447E+02  0.56646118582E+03  0.58074757618E+03  0.12509000000E+03 0.  0.
<mgrwt>
<rscale>  2 0.44406264E+03</rscale>
<asrwt>0</asrwt>
<pdfrwt beam="1">  1       21 0.23559436E+00 0.44406264E+03</pdfrwt>
<pdfrwt beam="2">  1       21 0.45252833E-02 0.44406264E+03</pdfrwt>
<totfact> 0.22553769E+04</totfact>
</mgrwt>
</event>
<event>
 7    0  0.4770865E-002  0.4566861E+03  0.7546771E-02  0.1025747E+00
         21   -1    0    0  502  501  0.00000000000E+00  0.00000000000E+00  0.10446862675E+03  0.10446862675E+03  0.00000000000E+00 0.  1.
         21   -1    0    0  501  502 -0.00000000000E+00 -0.00000000000E+00 -0.49910242484E+03  0.49910242484E+03  0.00000000000E+00 0.  1.
      99926    2    1    2    0    0  0.00000000000E+00  0.00000000000E+00 -0.39463379809E+03  0.60357105159E+03  0.45668608445E+03 0.  0.
      99925    2    3    3    0    0  0.53252565059E+02 -0.10116590979E+03 -0.26286475831E+03  0.38890627821E+03  0.26283043027E+03 0.  0.
         25    1    4    4    0    0  0.35254150657E+02 -0.58095662252E+02 -0.18805529771E+03  0.23586068814E+03  0.12509000000E+03 0.  0.
         25    1    4    4    0    0  0.17998414402E+02 -0.43070247539E+02 -0.74809460600E+02  0.15304559007E+03  0.12509000000E+03 0.  0.
         25    1    3    3    0    0 -0.53252565059E+02  0.10116590979E+03 -0.13176903977E+03  0.21466477338E+03  0.12509000000E+03 0.  0.
<mgrwt>
<rscale>  2 0.45668608E+03</rscale>
<asrwt>0</asrwt>
<pdfrwt beam="1">  1       21 0.15363033E-01 0.45668608E+03</pdfrwt>
<pdfrwt beam="2">  1       21 0.73397415E-01 0.45668608E+03</pdfrwt>
<totfact> 0.57686709E+04</totfact>
</mgrwt>
</event>
<event>
 7    0  0.4770865E-002  0.4584424E+03  0.7546771E-02  0.1025234E+00
         21   -1    0    0  502  501  0.00000000000E+00  0.00000000000E+00  0.13277966454E+03  0.13277966454E+03  0.00000000000E+00 0.  1.
         21   -1    0    0  501  502 -0.00000000000E+00 -0.00000000000E+00 -0.39571080484E+03  0.39571080484E+03  0.00000000000E+00 0.  1.
      99926    2    1    2    0    0 -0.35527136788E-14  0.00000000000E+00 -0.26293114030E+03  0.52849046937E+03  0.45844235371E+03 0.  0.
      99925    2    3    3    0    0  0.30760849993E+02 -0.10965484125E+03 -0.13733597065E+03  0.31779621496E+03  0.26298831021E+03 0.  0.
         25    1    4    4    0    0  0.36586730833E+02 -0.54393331061E+02 -0.10805644202E+03  0.17782273786E+03  0.12509000000E+03 0.  0.
         25    1    4    4    0    0 -0.58258808402E+01 -0.55261510192E+02 -0.29279528636E+02  0.13997347711E+03  0.12509000000E+03 0.  0.
         25    1    3    3    0    0 -0.30760849993E+02  0.10965484125E+03 -0.12559516965E+03  0.21069425441E+03  0.12509000000E+03 0.  0.
<mgrwt>
<rscale>  2 0.45844235E+03</rscale>
<asrwt>0</asrwt>
<pdfrwt beam="1">  1       21 0.19526421E-01 0.45844235E+03</pdfrwt>
<pdfrwt beam="2">  1       21 0.58192765E-01 0.45844235E+03</pdfrwt>
<totfact> 0.61610424E+04</totfact>
</mgrwt>
</event>
<event>
 7    0  0.4770865E-002  0.4516758E+03  0.7546771E-02  0.1027223E+00
         21   -1    0    0  502  501  0.00000000000E+00  0.00000000000E+00  0.70042578171E+03  0.70042578171E+03  0.00000000000E+00 0.  1.
         21   -1    0    0  501  502 -0.00000000000E+00 -0.00000000000E+00 -0.72816797990E+02  0.72816797990E+02  0.00000000000E+00 0.  1.
      99926    2    1    2    0    0  0.14210854715E-13  0.00000000000E+00  0.62760898372E+03  0.77324257970E+03  0.45167582470E+03 0.  0.
      99925    2    3    3    0    0  0.93488442354E+02 -0.42133785639E+02  0.46355825262E+03  0.54286138424E+03  0.26324301355E+03 0.  0.
         25    1    4    4    0    0  0.17022510306E+02 -0.45366333476E+02  0.25144564712E+03  0.28499173957E+03  0.12509000000E+03 0.  0.
         25    1    4    4    0    0  0.76465932048E+02  0.32325478366E+01  0.21211260550E+03  0.25786964467E+03  0.12509000000E+03 0.  0.
         25    1    3    3    0    0 -0.93488442354E+02  0.42133785639E+02  0.16405073110E+03  0.23038119546E+03  0.12509000000E+03 0.  0.
<mgrwt>
<rscale>  2 0.45167582E+03</rscale>
<asrwt>0</asrwt>
<pdfrwt beam="1">  1       21 0.10300379E+00 0.45167582E+03</pdfrwt>
<pdfrwt beam="2">  1       21 0.10708353E-01 0.45167582E+03</pdfrwt>
<totfact> 0.50388301E+04</totfact>
</mgrwt>
</event>
<event>
 7    0  0.4770865E-002  0.4501371E+03  0.7546771E-02  0.1027681E+00
         21   -1    0    0  502  501  0.00000000000E+00  0.00000000000E+00  0.30203074949E+03  0.30203074949E+03  0.00000000000E+00 0.  1.
         21   -1    0    0  501  502 -0.00000000000E+00 -0.00000000000E+00 -0.16771753353E+03  0.16771753353E+03  0.00000000000E+00 0.  1.
      99926    2    1    2    0    0  0.44408920985E-15 -0.14210854715E-13  0.13431321595E+03  0.46974828302E+03  0.45013710069E+03 0.  0.
      99925    2    3    3    0    0  0.24514332176E+01 -0.79578961911E+02  0.16178829235E+03  0.31894639766E+03  0.26308274808E+03 0.  0.
         25    1    3    3    0    0 -0.24514332176E+01  0.79578961911E+02 -0.27475076400E+02  0.15080188536E+03  0.12509000000E+03 0.  0.
         25    1    4    4    0    0  0.23425885183E+02 -0.32272912537E+02  0.41066759839E+02  0.13756562014E+03  0.12509000000E+03 0.  0.
         25    1    4    4    0    0 -0.20974451966E+02 -0.47306049374E+02  0.12072153251E+03  0.18138077752E+03  0.12509000000E+03 0.  0.
<mgrwt>
<rscale>  2 0.45013710E+03</rscale>
<asrwt>0</asrwt>
<pdfrwt beam="1">  1       21 0.44416287E-01 0.45013710E+03</pdfrwt>
<pdfrwt beam="2">  1       21 0.24664343E-01 0.45013710E+03</pdfrwt>
<totfact> 0.70121202E+04</totfact>
</mgrwt>
</event>
<event>
 7    0  0.4770865E-002  0.4543136E+03  0.7546771E-02  0.1026443E+00
         21   -1    0    0  502  501  0.00000000000E+00  0.00000000000E+00  0.28018856229E+02  0.28018856229E+02  0.00000000000E+00 0. -1.
         21   -1    0    0  501  502 -0.00000000000E+00 -0.00000000000E+00 -0.18416243979E+04  0.18416243979E+04  0.00000000000E+00 0. -1.
      99926    2    1    2    0    0  0.00000000000E+00  0.00000000000E+00 -0.18136055417E+04  0.18696432541E+04  0.45431358876E+03 0.  0.
      99925    2    3    3    0    0  0.89493981272E+02 -0.37000037762E+02 -0.90513208765E+03  0.94749917632E+03  0.26289240680E+03 0.  0.
         25    1    4    4    0    0  0.36168501525E+02 -0.99833752579E+01 -0.30912152572E+03  0.33557630138E+03  0.12509000000E+03 0.  0.
         25    1    3    3    0    0 -0.89493981272E+02  0.37000037762E+02 -0.90847345401E+03  0.92214407780E+03  0.12509000000E+03 0.  0.
         25    1    4    4    0    0  0.53325479747E+02 -0.27016662504E+02 -0.59601056193E+03  0.61192287494E+03  0.12509000000E+03 0.  0.
<mgrwt>
<rscale>  2 0.45431359E+03</rscale>
<asrwt>0</asrwt>
<pdfrwt beam="1">  1       21 0.41204194E-02 0.45431359E+03</pdfrwt>
<pdfrwt beam="2">  1       21 0.27082716E+00 0.45431359E+03</pdfrwt>
<totfact> 0.16042413E+04</totfact>
</mgrwt>
</event>
<event>
 7    0  0.4770865E-002  0.4576403E+03  0.7546771E-02  0.1025468E+00
         21   -1    0    0  502  501  0.00000000000E+00  0.00000000000E+00  0.10292377771E+04  0.10292377771E+04  0.00000000000E+00 0.  1.
         21   -1    0    0  501  502 -0.00000000000E+00 -0.00000000000E+00 -0.50871308347E+02  0.50871308347E+02  0.00000000000E+00 0.  1.
      99926    2    1    2    0    0  0.35527136788E-14  0.00000000000E+00  0.97836646871E+03  0.10801090854E+04  0.45764034926E+03 0.  0.
      99925    2    3    3    0    0 -0.22223566892E+02  0.11159888436E+03  0.66257423050E+03  0.72189065521E+03  0.26300819234E+03 0.  0.
         25    1    3    3    0    0  0.22223566892E+02 -0.11159888436E+03  0.31579223820E+03  0.35821843019E+03  0.12509000000E+03 0.  0.
         25    1    4    4    0    0  0.29393594704E+02  0.58615958843E+02  0.32951985229E+03  0.35851172253E+03  0.12509000000E+03 0.  0.
         25    1    4    4    0    0 -0.51617161596E+02  0.52982925520E+02  0.33305437822E+03  0.36337893268E+03  0.12509000000E+03 0.  0.
<mgrwt>
<rscale>  2 0.45764035E+03</rscale>
<asrwt>0</asrwt>
<pdfrwt beam="1">  1       21 0.15135848E+00 0.45764035E+03</pdfrwt>
<pdfrwt beam="2">  1       21 0.74810754E-02 0.45764035E+03</pdfrwt>
<totfact> 0.35455509E+04</totfact>
</mgrwt>
</event>
<event>
 7    0  0.4770865E-002  0.4511473E+03  0.7546771E-02  0.1027380E+00
         21   -1    0    0  502  501  0.00000000000E+00  0.00000000000E+00  0.10056021192E+04  0.10056021192E+04  0.00000000000E+00 0. -1.
         21   -1    0    0  501  502 -0.00000000000E+00 -0.00000000000E+00 -0.50600003805E+02  0.50600003805E+02  0.00000000000E+00 0. -1.
      99926    2    1    2    0    0  0.71054273576E-14  0.14210854715E-13  0.95500211537E+03  0.10562021230E+04  0.45114729770E+03 0.  0.
      99925    2    3    3    0    0  0.51480700700E+02  0.95766265008E+02  0.56970065395E+03  0.63676659238E+03  0.26285246432E+03 0.  0.
         25    1    3    3    0    0 -0.51480700700E+02 -0.95766265008E+02  0.38530146141E+03  0.41943553059E+03  0.12509000000E+03 0.  0.
         25    1    4    4    0    0  0.39968582748E+02  0.87542391952E+02  0.33954750919E+03  0.37443447637E+03  0.12509000000E+03 0.  0.
         25    1    4    4    0    0  0.11512117952E+02  0.82238730564E+01  0.23015314476E+03  0.26233211601E+03  0.12509000000E+03 0.  0.
<mgrwt>
<rscale>  2 0.45114730E+03</rscale>
<asrwt>0</asrwt>
<pdfrwt beam="1">  1       21 0.14788265E+00 0.45114730E+03</pdfrwt>
<pdfrwt beam="2">  1       21 0.74411777E-02 0.45114730E+03</pdfrwt>
<totfact> 0.38185999E+04</totfact>
</mgrwt>
</event>
<event>
 7    0  0.4770865E-002  0.4524772E+03  0.7546771E-02  0.1026986E+00
         21   -1    0    0  502  501  0.00000000000E+00  0.00000000000E+00  0.81396909851E+02  0.81396909851E+02  0.00000000000E+00 0. -1.
         21   -1    0    0  501  502 -0.00000000000E+00 -0.00000000000E+00 -0.62881870239E+03  0.62881870239E+03  0.00000000000E+00 0. -1.
      99926    2    1    2    0    0  0.00000000000E+00 -0.71054273576E-14 -0.54742179254E+03  0.71021561224E+03  0.45247717835E+03 0.  0.
      99925    2    3    3    0    0 -0.53384605973E+02 -0.35620317381E+02 -0.20391980739E+03  0.33905547825E+03  0.26316649924E+03 0.  0.
         25    1    4    4    0    0 -0.43938602355E+02 -0.41357000646E+02 -0.14349098227E+03  0.19969519867E+03  0.12509000000E+03 0.  0.
         25    1    4    4    0    0 -0.94460036182E+01  0.57366832657E+01 -0.60428825128E+02  0.13936027958E+03  0.12509000000E+03 0.  0.
         25    1    3    3    0    0  0.53384605973E+02  0.35620317381E+02 -0.34350198514E+03  0.37116013399E+03  0.12509000000E+03 0.  0.
<mgrwt>
<rscale>  2 0.45247718E+03</rscale>
<asrwt>0</asrwt>
<pdfrwt beam="1">  1       21 0.11970134E-01 0.45247718E+03</pdfrwt>
<pdfrwt beam="2">  1       21 0.92473339E-01 0.45247718E+03</pdfrwt>
<totfact> 0.53403955E+04</totfact>
</mgrwt>
</event>
<event>
 7    0  0.4770865E-002  0.4623605E+03  0.7546771E-02  0.1024099E+00
         21   -1    0    0  502  501  0.00000000000E+00  0.00000000000E+00  0.15664946650E+03  0.15664946650E+03  0.00000000000E+00 0. -1.
         21   -1    0    0  501  502 -0.00000000000E+00 -0.00000000000E+00 -0.34117128993E+03  0.34117128993E+03  0.00000000000E+00 0. -1.
      99926    2    1    2    0    0  0.00000000000E+00  0.00000000000E+00 -0.18452182343E+03  0.49782075643E+03  0.46236046783E+03 0.  0.
      99925    2    3    3    0    0 -0.10733339883E+03  0.47644266750E+02 -0.91430065239E+02  0.30261825081E+03  0.26349177262E+03 0.  0.
         25    1    4    4    0    0 -0.92639822825E+02  0.93823271106E+01 -0.37647229223E+02  0.16042127915E+03  0.12509000000E+03 0.  0.
         25    1    3    3    0    0  0.10733339883E+03 -0.47644266750E+02 -0.93091758195E+02  0.19520250562E+03  0.12509000000E+03 0.  0.
         25    1    4    4    0    0 -0.14693576001E+02  0.38261939639E+02 -0.53782836016E+02  0.14219697166E+03  0.12509000000E+03 0.  0.
<mgrwt>
<rscale>  2 0.46236047E+03</rscale>
<asrwt>0</asrwt>
<pdfrwt beam="1">  1       21 0.23036686E-01 0.46236047E+03</pdfrwt>
<pdfrwt beam="2">  1       21 0.50172248E-01 0.46236047E+03</pdfrwt>
<totfact> 0.61737006E+04</totfact>
</mgrwt>
</event>
<event>
 7    0  0.4770865E-002  0.4582857E+03  0.7546771E-02  0.1025280E+00
         21   -1    0    0  502  501  0.00000000000E+00  0.00000000000E+00  0.10763485760E+03  0.10763485760E+03  0.00000000000E+00 0. -1.
         21   -1    0    0  501  502 -0.00000000000E+00 -0.00000000000E+00 -0.48782009070E+03  0.48782009070E+03  0.00000000000E+00 0. -1.
      99926    2    1    2    0    0  0.26645352591E-14  0.00000000000E+00 -0.38018523310E+03  0.59545494829E+03  0.45828570126E+03 0.  0.
      99925    2    3    3    0    0 -0.57655498342E+01 -0.11579688314E+03 -0.24997312296E+03  0.38087428412E+03  0.26293820261E+03 0.  0.
         25    1    3    3    0    0  0.57655498342E+01  0.11579688314E+03 -0.13021211013E+03  0.21458066417E+03  0.12509000000E+03 0.  0.
         25    1    4    4    0    0 -0.38538695850E+02 -0.48421586405E+02 -0.14466594572E+03  0.20101150479E+03  0.12509000000E+03 0.  0.
         25    1    4    4    0    0  0.32773146016E+02 -0.67375296732E+02 -0.10530717724E+03  0.17986277933E+03  0.12509000000E+03 0.  0.
<mgrwt>
<rscale>  2 0.45828570E+03</rscale>
<asrwt>0</asrwt>
<pdfrwt beam="1">  1       21 0.15828656E-01 0.45828570E+03</pdfrwt>
<pdfrwt beam="2">  1       21 0.71738248E-01 0.45828570E+03</pdfrwt>
<totfact> 0.57452553E+04</totfact>
</mgrwt>
</event>
<event>
 7    0  0.4770865E-002  0.4500827E+03  0.7546771E-02  0.1027697E+00
         21   -1    0    0  502  501  0.00000000000E+00  0.00000000000E+00  0.34350966539E+03  0.34350966539E+03  0.00000000000E+00 0.  1.
         21   -1    0    0  501  502 -0.00000000000E+00 -0.00000000000E+00 -0.14742993843E+03  0.14742993843E+03  0.00000000000E+00 0.  1.
      99926    2    1    2    0    0  0.00000000000E+00  0.00000000000E+00  0.19607972696E+03  0.49093960382E+03  0.45008269826E+03 0.  0.
      99925    2    3    3    0    0 -0.51631542748E+02 -0.94581912545E+02  0.13869640207E+03  0.31614856153E+03  0.26287195861E+03 0.  0.
         25    1    4    4    0    0 -0.52661064506E+02 -0.29991492325E+02  0.96374245553E+02  0.16913953007E+03  0.12509000000E+03 0.  0.
         25    1    4    4    0    0  0.10295217585E+01 -0.64590420220E+02  0.42322156516E+02  0.14700903146E+03  0.12509000000E+03 0.  0.
         25    1    3    3    0    0  0.51631542748E+02  0.94581912545E+02  0.57383324895E+02  0.17479104229E+03  0.12509000000E+03 0.  0.
<mgrwt>
<rscale>  2 0.45008270E+03</rscale>
<asrwt>0</asrwt>
<pdfrwt beam="1">  1       21 0.50516127E-01 0.45008270E+03</pdfrwt>
<pdfrwt beam="2">  1       21 0.21680873E-01 0.45008270E+03</pdfrwt>
<totfact> 0.68549073E+04</totfact>
</mgrwt>
</event>
<event>
 7    0  0.4770865E-002  0.4610919E+03  0.7546771E-02  0.1024465E+00
         21   -1    0    0  502  501  0.00000000000E+00  0.00000000000E+00  0.87524238669E+02  0.87524238669E+02  0.00000000000E+00 0. -1.
         21   -1    0    0  501  502 -0.00000000000E+00 -0.00000000000E+00 -0.60727685049E+03  0.60727685049E+03  0.00000000000E+00 0. -1.
      99926    2    1    2    0    0  0.00000000000E+00  0.00000000000E+00 -0.51975261182E+03  0.69480108916E+03  0.46109193877E+03 0.  0.
      99925    2    3    3    0    0 -0.35053964696E+02  0.50891203346E+02 -0.47830552282E+03  0.54925362506E+03  0.26283964020E+03 0.  0.
         25    1    3    3    0    0  0.35053964696E+02 -0.50891203346E+02 -0.41447089001E+02  0.14554746410E+03  0.12509000000E+03 0.  0.
         25    1    4    4    0    0  0.13599921380E+02  0.39055008597E+02 -0.28072062284E+03  0.31009970614E+03  0.12509000000E+03 0.  0.
         25    1    4    4    0    0 -0.48653886076E+02  0.11836194749E+02 -0.19758489998E+03  0.23915391892E+03  0.12509000000E+03 0.  0.
<mgrwt>
<rscale>  2 0.46109194E+03</rscale>
<asrwt>0</asrwt>
<pdfrwt beam="1">  1       21 0.12871211E-01 0.46109194E+03</pdfrwt>
<pdfrwt beam="2">  1       21 0.89305423E-01 0.46109194E+03</pdfrwt>
<totfact> 0.50710486E+04</totfact>
</mgrwt>
</event>
<event>
 7    0  0.4770865E-002  0.4512210E+03  0.7546771E-02  0.1027359E+00
         21   -1    0    0  502  501  0.00000000000E+00  0.00000000000E+00  0.63621657129E+03  0.63621657129E+03  0.00000000000E+00 0.  1.
         21   -1    0    0  501  502 -0.00000000000E+00 -0.00000000000E+00 -0.80004373068E+02  0.80004373068E+02  0.00000000000E+00 0.  1.
      99926    2    1    2    0    0  0.71054273576E-14  0.00000000000E+00  0.55621219823E+03  0.71622094436E+03  0.45122104526E+03 0.  0.
      99925    2    3    3    0    0 -0.55592697559E+02  0.74478117186E+02  0.44333673799E+03  0.52379975118E+03  0.26302315131E+03 0.  0.
         25    1    3    3    0    0  0.55592697559E+02 -0.74478117186E+02  0.11287546023E+03  0.19242119318E+03  0.12509000000E+03 0.  0.
         25    1    4    4    0    0 -0.45020374106E+02  0.74778285458E+02  0.22223035330E+03  0.26954121037E+03  0.12509000000E+03 0.  0.
         25    1    4    4    0    0 -0.10572323454E+02 -0.30016827154E+00  0.22110638469E+03  0.25425854081E+03  0.12509000000E+03 0.  0.
<mgrwt>
<rscale>  2 0.45122105E+03</rscale>
<asrwt>0</asrwt>
<pdfrwt beam="1">  1       21 0.93561258E-01 0.45122105E+03</pdfrwt>
<pdfrwt beam="2">  1       21 0.11765349E-01 0.45122105E+03</pdfrwt>
<totfact> 0.53606990E+04</totfact>
</mgrwt>
</event>
<event>
 7    0  0.4770865E-002  0.4548993E+03  0.7546771E-02  0.1026271E+00
         21   -1    0    0  502  501  0.00000000000E+00  0.00000000000E+00  0.13168860662E+03  0.13168860662E+03  0.00000000000E+00 0.  1.
         21   -1    0    0  501  502 -0.00000000000E+00 -0.00000000000E+00 -0.39284602079E+03  0.39284602079E+03  0.00000000000E+00 0.  1.
      99926    2    1    2    0    0  0.00000000000E+00  0.00000000000E+00 -0.26115741417E+03  0.52453462741E+03  0.45489930795E+03 0.  0.
      99925    2    3    3    0    0  0.54226145943E+02  0.54857277568E+02 -0.26028448500E+03  0.37757182289E+03  0.26241698211E+03 0.  0.
         25    1    4    4    0    0  0.68568155318E+00  0.49752742176E+02 -0.15604064487E+03  0.20608735154E+03  0.12509000000E+03 0.  0.
         25    1    3    3    0    0 -0.54226145943E+02 -0.54857277568E+02 -0.87292916800E+00  0.14696280452E+03  0.12509000000E+03 0.  0.
         25    1    4    4    0    0  0.53540464390E+02  0.51045353920E+01 -0.10424384013E+03  0.17148447135E+03  0.12509000000E+03 0.  0.
<mgrwt>
<rscale>  2 0.45489931E+03</rscale>
<asrwt>0</asrwt>
<pdfrwt beam="1">  1       21 0.19365972E-01 0.45489931E+03</pdfrwt>
<pdfrwt beam="2">  1       21 0.57771474E-01 0.45489931E+03</pdfrwt>
<totfact> 0.63628774E+04</totfact>
</mgrwt>
</event>
<event>
 7    0  0.4770865E-002  0.4548353E+03  0.7546771E-02  0.1026290E+00
         21   -1    0    0  502  501  0.00000000000E+00  0.00000000000E+00  0.74608109860E+02  0.74608109860E+02  0.00000000000E+00 0. -1.
         21   -1    0    0  501  502 -0.00000000000E+00 -0.00000000000E+00 -0.69320611657E+03  0.69320611657E+03  0.00000000000E+00 0. -1.
      99926    2    1    2    0    0  0.00000000000E+00 -0.14210854715E-13 -0.61859800671E+03  0.76781422643E+03  0.45483534648E+03 0.  0.
      99925    2    3    3    0    0  0.33795635947E+02 -0.10746427524E+03 -0.40683769566E+03  0.49729499809E+03  0.26285868648E+03 0.  0.
         25    1    3    3    0    0 -0.33795635947E+02  0.10746427524E+03 -0.21176031106E+03  0.27051922834E+03  0.12509000000E+03 0.  0.
         25    1    4    4    0    0  0.20761281429E+02 -0.30421819709E+02 -0.25023709378E+03  0.28217482015E+03  0.12509000000E+03 0.  0.
         25    1    4    4    0    0  0.13034354518E+02 -0.77042455532E+02 -0.15660060187E+03  0.21512017794E+03  0.12509000000E+03 0.  0.
<mgrwt>
<rscale>  2 0.45483535E+03</rscale>
<asrwt>0</asrwt>
<pdfrwt beam="1">  1       21 0.10971781E-01 0.45483535E+03</pdfrwt>
<pdfrwt beam="2">  1       21 0.10194207E+00 0.45483535E+03</pdfrwt>
<totfact> 0.49424746E+04</totfact>
</mgrwt>
</event>
<event>
 7    0  0.4770865E-002  0.4553987E+03  0.7546771E-02  0.1026124E+00
         21   -1    0    0  502  501  0.00000000000E+00  0.00000000000E+00  0.56572825450E+02  0.56572825450E+02  0.00000000000E+00 0.  1.
         21   -1    0    0  501  502 -0.00000000000E+00 -0.00000000000E+00 -0.91646444562E+03  0.91646444562E+03  0.00000000000E+00 0.  1.
      99926    2    1    2    0    0  0.00000000000E+00  0.00000000000E+00 -0.85989162017E+03  0.97303727107E+03  0.45539865223E+03 0.  0.
      99925    2    3    3    0    0 -0.23901750937E+02  0.47070948007E+02 -0.75578214576E+03  0.80194297366E+03  0.26290476091E+03 0.  0.
         25    1    4    4    0    0 -0.34224478060E+02  0.57889542355E+02 -0.38705628474E+03  0.41228944890E+03  0.12509000000E+03 0.  0.
         25    1    3    3    0    0  0.23901750937E+02 -0.47070948007E+02 -0.10410947441E+03  0.17109429741E+03  0.12509000000E+03 0.  0.
         25    1    4    4    0    0  0.10322727123E+02 -0.10818594348E+02 -0.36872586102E+03  0.38965352477E+03  0.12509000000E+03 0.  0.
<mgrwt>
<rscale>  2 0.45539865E+03</rscale>
<asrwt>0</asrwt>
<pdfrwt beam="1">  1       21 0.83195340E-02 0.45539865E+03</pdfrwt>
<pdfrwt beam="2">  1       21 0.13477417E+00 0.45539865E+03</pdfrwt>
<totfact> 0.40096655E+04</totfact>
</mgrwt>
</event>
<event>
 7    0  0.4770865E-002  0.4546972E+03  0.7546771E-02  0.1026330E+00
         21   -1    0    0  502  501  0.00000000000E+00  0.00000000000E+00  0.24864342399E+03  0.24864342399E+03  0.00000000000E+00 0.  1.
         21   -1    0    0  501  502 -0.00000000000E+00 -0.00000000000E+00 -0.20787758696E+03  0.20787758696E+03  0.00000000000E+00 0.  1.
      99926    2    1    2    0    0  0.00000000000E+00  0.00000000000E+00  0.40765837033E+02  0.45652101096E+03  0.45469723990E+03 0.  0.
      99925    2    3    3    0    0  0.48613082492E+02 -0.54306132933E+02  0.11224974814E+03  0.29505941951E+03  0.26295944026E+03 0.  0.
         25    1    4    4    0    0 -0.10293258867E+02 -0.18546228660E+02  0.30456191556E+02  0.13047988918E+03  0.12509000000E+03 0.  0.
         25    1    3    3    0    0 -0.48613082492E+02  0.54306132933E+02 -0.71483911112E+02  0.16146159144E+03  0.12509000000E+03 0.  0.
         25    1    4    4    0    0  0.58906341359E+02 -0.35759904274E+02  0.81793556589E+02  0.16457953034E+03  0.12509000000E+03 0.  0.
<mgrwt>
<rscale>  2 0.45469724E+03</rscale>
<asrwt>0</asrwt>
<pdfrwt beam="1">  1       21 0.36565209E-01 0.45469724E+03</pdfrwt>
<pdfrwt beam="2">  1       21 0.30570233E-01 0.45469724E+03</pdfrwt>
<totfact> 0.68600088E+04</totfact>
</mgrwt>
</event>
<event>
 7    0  0.4770865E-002  0.4606237E+03  0.7546771E-02  0.1024600E+00
         21   -1    0    0  502  501  0.00000000000E+00  0.00000000000E+00  0.33676102202E+03  0.33676102202E+03  0.00000000000E+00 0. -1.
         21   -1    0    0  501  502 -0.00000000000E+00 -0.00000000000E+00 -0.15751096906E+03  0.15751096906E+03  0.00000000000E+00 0. -1.
      99926    2    1    2    0    0  0.00000000000E+00  0.00000000000E+00  0.17925005297E+03  0.49427199108E+03  0.46062372896E+03 0.  0.
      99925    2    3    3    0    0  0.44227537411E+02 -0.10815825943E+03  0.13257722555E+03  0.31684554134E+03  0.26298306444E+03 0.  0.
         25    1    4    4    0    0  0.77556617956E+01 -0.40732026690E+02  0.23104870058E+02  0.13379309178E+03  0.12509000000E+03 0.  0.
         25    1    3    3    0    0 -0.44227537411E+02  0.10815825943E+03  0.46672827422E+02  0.17742644974E+03  0.12509000000E+03 0.  0.
         25    1    4    4    0    0  0.36471875615E+02 -0.67426232741E+02  0.10947235549E+03  0.18305244956E+03  0.12509000000E+03 0.  0.
<mgrwt>
<rscale>  2 0.46062373E+03</rscale>
<asrwt>0</asrwt>
<pdfrwt beam="1">  1       21 0.49523680E-01 0.46062373E+03</pdfrwt>
<pdfrwt beam="2">  1       21 0.23163378E-01 0.46062373E+03</pdfrwt>
<totfact> 0.62823050E+04</totfact>
</mgrwt>
</event>
<event>
 7    0  0.4770865E-002  0.4552827E+03  0.7546771E-02  0.1026158E+00
         21   -1    0    0  502  501  0.00000000000E+00  0.00000000000E+00  0.30044395391E+03  0.30044395391E+03  0.00000000000E+00 0.  1.
         21   -1    0    0  501  502 -0.00000000000E+00 -0.00000000000E+00 -0.17248004086E+03  0.17248004086E+03  0.00000000000E+00 0.  1.
      99926    2    1    2    0    0  0.71054273576E-14 -0.14210854715E-13  0.12796391305E+03  0.47292399476E+03  0.45528270534E+03 0.  0.
      99925    2    3    3    0    0  0.42347034827E+02 -0.10473242292E+03  0.70343229796E+02  0.29479538110E+03  0.26304751466E+03 0.  0.
         25    1    3    3    0    0 -0.42347034827E+02  0.10473242292E+03  0.57620683251E+02  0.17812861367E+03  0.12509000000E+03 0.  0.
         25    1    4    4    0    0  0.49034834906E+02 -0.85199061946E+02  0.46910801580E+02  0.16586568842E+03  0.12509000000E+03 0.  0.
         25    1    4    4    0    0 -0.66878000794E+01 -0.19533360974E+02  0.23432428216E+02  0.12892969267E+03  0.12509000000E+03 0.  0.
<mgrwt>
<rscale>  2 0.45528271E+03</rscale>
<asrwt>0</asrwt>
<pdfrwt beam="1">  1       21 0.44182934E-01 0.45528271E+03</pdfrwt>
<pdfrwt beam="2">  1       21 0.25364712E-01 0.45528271E+03</pdfrwt>
<totfact> 0.67068370E+04</totfact>
</mgrwt>
</event>
<event>
 7    0  0.4770865E-002  0.4598334E+03  0.7546771E-02  0.1024830E+00
         21   -1    0    0  502  501  0.00000000000E+00  0.00000000000E+00  0.39071614806E+03  0.39071614806E+03  0.00000000000E+00 0.  1.
         21   -1    0    0  501  502 -0.00000000000E+00 -0.00000000000E+00 -0.13529437629E+03  0.13529437629E+03  0.00000000000E+00 0.  1.
      99926    2    1    2    0    0 -0.22204460493E-15  0.00000000000E+00  0.25542177177E+03  0.52601052435E+03  0.45983343749E+03 0.  0.
      99925    2    3    3    0    0 -0.15170958009E+01 -0.45980361507E+02  0.36131314675E+02  0.26939347913E+03  0.26296554808E+03 0.  0.
         25    1    4    4    0    0 -0.34065978081E+02 -0.36150140676E+02 -0.84605521548E+00  0.13459400968E+03  0.12509000000E+03 0.  0.
         25    1    4    4    0    0  0.32548882280E+02 -0.98302208314E+01  0.36977369891E+02  0.13479946945E+03  0.12509000000E+03 0.  0.
         25    1    3    3    0    0  0.15170958009E+01  0.45980361507E+02  0.21929045710E+03  0.25661704522E+03  0.12509000000E+03 0.  0.
<mgrwt>
<rscale>  2 0.45983344E+03</rscale>
<asrwt>0</asrwt>
<pdfrwt beam="1">  1       21 0.57458257E-01 0.45983344E+03</pdfrwt>
<pdfrwt beam="2">  1       21 0.19896232E-01 0.45983344E+03</pdfrwt>
<totfact> 0.61102266E+04</totfact>
</mgrwt>
</event>
<event>
 7    0  0.4770865E-002  0.4548767E+03  0.7546771E-02  0.1026278E+00
         21   -1    0    0  502  501  0.00000000000E+00  0.00000000000E+00  0.77794299926E+03  0.77794299926E+03  0.00000000000E+00 0. -1.
         21   -1    0    0  501  502 -0.00000000000E+00 -0.00000000000E+00 -0.66493561378E+02  0.66493561378E+02  0.00000000000E+00 0. -1.
      99926    2    1    2    0    0  0.71054273576E-14  0.14210854715E-13  0.71144943788E+03  0.84443656064E+03  0.45487668909E+03 0.  0.
      99925    2    3    3    0    0  0.55437758086E+02  0.96233061029E+02  0.40949520098E+03  0.49924383717E+03  0.26310443224E+03 0.  0.
         25    1    3    3    0    0 -0.55437758086E+02 -0.96233061029E+02  0.30195423690E+03  0.34519272347E+03  0.12509000000E+03 0.  0.
         25    1    4    4    0    0  0.65714114066E+02  0.66068398779E+02  0.20908187247E+03  0.26085650385E+03  0.12509000000E+03 0.  0.
         25    1    4    4    0    0 -0.10276355980E+02  0.30164662250E+02  0.20041332851E+03  0.23838733331E+03  0.12509000000E+03 0.  0.
<mgrwt>
<rscale>  2 0.45487669E+03</rscale>
<asrwt>0</asrwt>
<pdfrwt beam="1">  1       21 0.11440338E+00 0.45487669E+03</pdfrwt>
<pdfrwt beam="2">  1       21 0.97784654E-02 0.45487669E+03</pdfrwt>
<totfact> 0.45733511E+04</totfact>
</mgrwt>
</event>
<event>
 7    0  0.4770865E-002  0.4483340E+03  0.7546771E-02  0.1028220E+00
         21   -1    0    0  502  501  0.00000000000E+00  0.00000000000E+00  0.37562381609E+03  0.37562381609E+03  0.00000000000E+00 0. -1.
         21   -1    0    0  501  502 -0.00000000000E+00 -0.00000000000E+00 -0.13377969794E+03  0.13377969794E+03  0.00000000000E+00 0. -1.
      99926    2    1    2    0    0  0.00000000000E+00  0.00000000000E+00  0.24184411815E+03  0.50940351404E+03  0.44833398558E+03 0.  0.
      99925    2    3    3    0    0  0.63275099846E+02 -0.85778469313E+02  0.15749206055E+03  0.32467543880E+03  0.26315149129E+03 0.  0.
         25    1    4    4    0    0  0.30516477462E+01 -0.12411185222E+02  0.84627999248E+02  0.15156766287E+03  0.12509000000E+03 0.  0.
         25    1    3    3    0    0 -0.63275099846E+02  0.85778469313E+02  0.84352057599E+02  0.18472807523E+03  0.12509000000E+03 0.  0.
         25    1    4    4    0    0  0.60223452100E+02 -0.73367284091E+02  0.72864061299E+02  0.17310777593E+03  0.12509000000E+03 0.  0.
<mgrwt>
<rscale>  2 0.44833399E+03</rscale>
<asrwt>0</asrwt>
<pdfrwt beam="1">  1       21 0.55238796E-01 0.44833399E+03</pdfrwt>
<pdfrwt beam="2">  1       21 0.19673485E-01 0.44833399E+03</pdfrwt>
<totfact> 0.68149206E+04</totfact>
</mgrwt>
</event>
<event>
 7    0  0.4770865E-002  0.4577739E+03  0.7546771E-02  0.1025429E+00
         21   -1    0    0  502  501  0.00000000000E+00  0.00000000000E+00  0.10342938776E+04  0.10342938776E+04  0.00000000000E+00 0. -1.
         21   -1    0    0  501  502 -0.00000000000E+00 -0.00000000000E+00 -0.50652182775E+02  0.50652182775E+02  0.00000000000E+00 0. -1.
      99926    2    1    2    0    0  0.00000000000E+00  0.00000000000E+00  0.98364169484E+03  0.10849460604E+04  0.45777392906E+03 0.  0.
      99925    2    3    3    0    0  0.67356507163E+02  0.85801873473E+02  0.52420306145E+03  0.59644813153E+03  0.26279776145E+03 0.  0.
         25    1    3    3    0    0 -0.67356507163E+02 -0.85801873473E+02  0.45943863338E+03  0.48849792885E+03  0.12509000000E+03 0.  0.
         25    1    4    4    0    0  0.18836280859E+02  0.62859767734E+02  0.33319624963E+03  0.36190247960E+03  0.12509000000E+03 0.  0.
         25    1    4    4    0    0  0.48520226304E+02  0.22942105738E+02  0.19100681182E+03  0.23454565193E+03  0.12509000000E+03 0.  0.
<mgrwt>
<rscale>  2 0.45777393E+03</rscale>
<asrwt>0</asrwt>
<pdfrwt beam="1">  1       21 0.15210203E+00 0.45777393E+03</pdfrwt>
<pdfrwt beam="2">  1       21 0.74488511E-02 0.45777393E+03</pdfrwt>
<totfact> 0.35251473E+04</totfact>
</mgrwt>
</event>
<event>
 7    0  0.4770865E-002  0.4551208E+03  0.7546771E-02  0.1026206E+00
         21   -1    0    0  502  501  0.00000000000E+00  0.00000000000E+00  0.11722031386E+03  0.11722031386E+03  0.00000000000E+00 0.  1.
         21   -1    0    0  501  502 -0.00000000000E+00 -0.00000000000E+00 -0.44176418616E+03  0.44176418616E+03  0.00000000000E+00 0.  1.
      99926    2    1    2    0    0  0.00000000000E+00 -0.14210854715E-13 -0.32454387229E+03  0.55898450002E+03  0.45512080399E+03 0.  0.
      99925    2    3    3    0    0 -0.19292089212E+02  0.10487169381E+03 -0.25110943747E+03  0.37895566570E+03  0.26302317410E+03 0.  0.
         25    1    3    3    0    0  0.19292089212E+02 -0.10487169381E+03 -0.73434434828E+02  0.18002883432E+03  0.12509000000E+03 0.  0.
         25    1    4    4    0    0 -0.22811358219E+02  0.75478508185E+02 -0.17677394006E+03  0.23046452492E+03  0.12509000000E+03 0.  0.
         25    1    4    4    0    0  0.35192690070E+01  0.29393185628E+02 -0.74335497403E+02  0.14849114078E+03  0.12509000000E+03 0.  0.
<mgrwt>
<rscale>  2 0.45512080E+03</rscale>
<asrwt>0</asrwt>
<pdfrwt beam="1">  1       21 0.17238281E-01 0.45512080E+03</pdfrwt>
<pdfrwt beam="2">  1       21 0.64965322E-01 0.45512080E+03</pdfrwt>
<totfact> 0.61218165E+04</totfact>
</mgrwt>
</event>
<event>
 7    0  0.4770865E-002  0.4585178E+03  0.7546771E-02  0.1025212E+00
         21   -1    0    0  502  501  0.00000000000E+00  0.00000000000E+00  0.35554408438E+03  0.35554408438E+03  0.00000000000E+00 0. -1.
         21   -1    0    0  501  502 -0.00000000000E+00 -0.00000000000E+00 -0.14782876497E+03  0.14782876497E+03  0.00000000000E+00 0. -1.
      99926    2    1    2    0    0  0.00000000000E+00  0.00000000000E+00  0.20771531941E+03  0.50337284935E+03  0.45851779850E+03 0.  0.
      99925    2    3    3    0    0 -0.91022398442E+02  0.71496343059E+02  0.14526154918E+03  0.32186586434E+03  0.26286862283E+03 0.  0.
         25    1    4    4    0    0 -0.25005219656E+02 -0.22312738500E+01  0.59676117084E+02  0.14085093767E+03  0.12509000000E+03 0.  0.
         25    1    4    4    0    0 -0.66017178786E+02  0.73727616909E+02  0.85585432097E+02  0.18101492667E+03  0.12509000000E+03 0.  0.
         25    1    3    3    0    0  0.91022398442E+02 -0.71496343059E+02  0.62453770234E+02  0.18150698500E+03  0.12509000000E+03 0.  0.
<mgrwt>
<rscale>  2 0.45851780E+03</rscale>
<asrwt>0</asrwt>
<pdfrwt beam="1">  1       21 0.52285895E-01 0.45851780E+03</pdfrwt>
<pdfrwt beam="2">  1       21 0.21739524E-01 0.45851780E+03</pdfrwt>
<totfact> 0.63249645E+04</totfact>
</mgrwt>
</event>
<event>
 7    0  0.4770865E-002  0.4542384E+03  0.7546771E-02  0.1026466E+00
         21   -1    0    0  502  501  0.00000000000E+00  0.00000000000E+00  0.20550325208E+03  0.20550325208E+03  0.00000000000E+00 0.  1.
         21   -1    0    0  501  502 -0.00000000000E+00 -0.00000000000E+00 -0.25100881652E+03  0.25100881652E+03  0.00000000000E+00 0.  1.
      99926    2    1    2    0    0  0.00000000000E+00  0.00000000000E+00 -0.45505564443E+02  0.45651206860E+03  0.45423838718E+03 0.  0.
      99925    2    3    3    0    0  0.10049772538E+03 -0.49583183308E+02 -0.18374796374E+02  0.28638896157E+03  0.26291199914E+03 0.  0.
         25    1    3    3    0    0 -0.10049772538E+03  0.49583183308E+02 -0.27130768068E+02  0.17012310704E+03  0.12509000000E+03 0.  0.
         25    1    4    4    0    0  0.27006741246E+02 -0.55690400817E+02  0.31075120558E+01  0.13959924623E+03  0.12509000000E+03 0.  0.
         25    1    4    4    0    0  0.73490984129E+02  0.61072175086E+01 -0.21482308430E+02  0.14678971534E+03  0.12509000000E+03 0.  0.
<mgrwt>
<rscale>  2 0.45423839E+03</rscale>
<asrwt>0</asrwt>
<pdfrwt beam="1">  1       21 0.30221067E-01 0.45423839E+03</pdfrwt>
<pdfrwt beam="2">  1       21 0.36913061E-01 0.45423839E+03</pdfrwt>
<totfact> 0.68852589E+04</totfact>
</mgrwt>
</event>
<event>
 7    0  0.4770865E-002  0.4494562E+03  0.7546771E-02  0.1027884E+00
         21   -1    0    0  502  501  0.00000000000E+00  0.00000000000E+00  0.77399369623E+03  0.77399369623E+03  0.00000000000E+00 0. -1.
         21   -1    0    0  501  502 -0.00000000000E+00 -0.00000000000E+00 -0.65249533995E+02  0.65249533995E+02  0.00000000000E+00 0. -1.
      99926    2    1    2    0    0  0.00000000000E+00  0.00000000000E+00  0.70874416223E+03  0.83924323022E+03  0.44945624033E+03 0.  0.
      99925    2    3    3    0    0 -0.32043564372E+02  0.99413776946E+02  0.38639021781E+03  0.47803766181E+03  0.26136701519E+03 0.  0.
         25    1    4    4    0    0 -0.21127010565E+01  0.33254007734E+02  0.23731778447E+03  0.27032856206E+03  0.12509000000E+03 0.  0.
         25    1    4    4    0    0 -0.29930863316E+02  0.66159769212E+02  0.14907243333E+03  0.20770909976E+03  0.12509000000E+03 0.  0.
         25    1    3    3    0    0  0.32043564372E+02 -0.99413776946E+02  0.32235394443E+03  0.36120556841E+03  0.12509000000E+03 0.  0.
<mgrwt>
<rscale>  2 0.44945624E+03</rscale>
<asrwt>0</asrwt>
<pdfrwt beam="1">  1       21 0.11382260E+00 0.44945624E+03</pdfrwt>
<pdfrwt beam="2">  1       21 0.95955201E-02 0.44945624E+03</pdfrwt>
<totfact> 0.47977343E+04</totfact>
</mgrwt>
</event>
<event>
 7    0  0.4770865E-002  0.4386010E+03  0.7546771E-02  0.1031177E+00
         21   -1    0    0  502  501  0.00000000000E+00  0.00000000000E+00  0.90438692206E+02  0.90438692206E+02  0.00000000000E+00 0. -1.
         21   -1    0    0  501  502 -0.00000000000E+00 -0.00000000000E+00 -0.53177127556E+03  0.53177127556E+03  0.00000000000E+00 0. -1.
      99926    2    1    2    0    0  0.00000000000E+00  0.00000000000E+00 -0.44133258335E+03  0.62220996777E+03  0.43860095173E+03 0.  0.
      99925    2    3    3    0    0  0.68111655260E+02  0.68683073316E+02 -0.28829163916E+03  0.40215179172E+03  0.26316806842E+03 0.  0.
         25    1    3    3    0    0 -0.68111655260E+02 -0.68683073316E+02 -0.15304094420E+03  0.22005817604E+03  0.12509000000E+03 0.  0.
         25    1    4    4    0    0  0.53788452986E+01  0.63399918228E+02 -0.14478661099E+03  0.20164114766E+03  0.12509000000E+03 0.  0.
         25    1    4    4    0    0  0.62732809961E+02  0.52831550880E+01 -0.14350502817E+03  0.20051064406E+03  0.12509000000E+03 0.  0.
<mgrwt>
<rscale>  2 0.43860095E+03</rscale>
<asrwt>0</asrwt>
<pdfrwt beam="1">  1       21 0.13299807E-01 0.43860095E+03</pdfrwt>
<pdfrwt beam="2">  1       21 0.78201661E-01 0.43860095E+03</pdfrwt>
<totfact> 0.65396154E+04</totfact>
</mgrwt>
</event>
<event>
 7    0  0.4770865E-002  0.4459053E+03  0.7546771E-02  0.1028950E+00
         21   -1    0    0  502  501  0.00000000000E+00  0.00000000000E+00  0.35255797528E+02  0.35255797528E+02  0.00000000000E+00 0. -1.
         21   -1    0    0  501  502 -0.00000000000E+00 -0.00000000000E+00 -0.14099207773E+04  0.14099207773E+04  0.00000000000E+00 0. -1.
      99926    2    1    2    0    0  0.00000000000E+00  0.00000000000E+00 -0.13746649798E+04  0.14451765748E+04  0.44590528795E+03 0.  0.
      99925    2    3    3    0    0 -0.73740722755E+02  0.40160080651E+02 -0.10736659790E+04  0.11085782492E+04  0.26293834599E+03 0.  0.
         25    1    3    3    0    0  0.73740722755E+02 -0.40160080651E+02 -0.30099900074E+03  0.33659832563E+03  0.12509000000E+03 0.  0.
         25    1    4    4    0    0 -0.87359747956E+01 -0.11018018978E+02 -0.50925207085E+03  0.52457877746E+03  0.12509000000E+03 0.  0.
         25    1    4    4    0    0 -0.65004747959E+02  0.51178099629E+02 -0.56441390820E+03  0.58399947175E+03  0.12509000000E+03 0.  0.
<mgrwt>
<rscale>  2 0.44590529E+03</rscale>
<asrwt>0</asrwt>
<pdfrwt beam="1">  1       21 0.51846765E-02 0.44590529E+03</pdfrwt>
<pdfrwt beam="2">  1       21 0.20734128E+00 0.44590529E+03</pdfrwt>
<totfact> 0.27011529E+04</totfact>
</mgrwt>
</event>
<event>
 7    0  0.4770865E-002  0.4563615E+03  0.7546771E-02  0.1025842E+00
         21   -1    0    0  502  501  0.00000000000E+00  0.00000000000E+00  0.18049822954E+03  0.18049822954E+03  0.00000000000E+00 0. -1.
         21   -1    0    0  501  502 -0.00000000000E+00 -0.00000000000E+00 -0.28845958497E+03  0.28845958497E+03  0.00000000000E+00 0. -1.
      99926    2    1    2    0    0  0.00000000000E+00 -0.14210854715E-13 -0.10796135542E+03  0.46895781451E+03  0.45636145491E+03 0.  0.
      99925    2    3    3    0    0 -0.65886556281E+02  0.64454336968E+02 -0.13743846216E+03  0.31080659645E+03  0.26308935680E+03 0.  0.
         25    1    4    4    0    0 -0.28080540205E+02 -0.87069740458E+01 -0.54165180844E+02  0.13944785065E+03  0.12509000000E+03 0.  0.
         25    1    4    4    0    0 -0.37806016076E+02  0.73161311014E+02 -0.83273281315E+02  0.17135874580E+03  0.12509000000E+03 0.  0.
         25    1    3    3    0    0  0.65886556281E+02 -0.64454336968E+02  0.29477106736E+02  0.15815121806E+03  0.12509000000E+03 0.  0.
<mgrwt>
<rscale>  2 0.45636145E+03</rscale>
<asrwt>0</asrwt>
<pdfrwt beam="1">  1       21 0.26543858E-01 0.45636145E+03</pdfrwt>
<pdfrwt beam="2">  1       21 0.42420527E-01 0.45636145E+03</pdfrwt>
<totfact> 0.66789234E+04</totfact>
</mgrwt>
</event>
<event>
 7    0  0.4770865E-002  0.4545738E+03  0.7546771E-02  0.1026367E+00
         21   -1    0    0  502  501  0.00000000000E+00  0.00000000000E+00  0.15133890525E+04  0.15133890525E+04  0.00000000000E+00 0.  1.
         21   -1    0    0  501  502 -0.00000000000E+00 -0.00000000000E+00 -0.34134868293E+02  0.34134868293E+02  0.00000000000E+00 0.  1.
      99926    2    1    2    0    0 -0.71054273576E-14  0.00000000000E+00  0.14792541842E+04  0.15475239208E+04  0.45457380472E+03 0.  0.
      99925    2    3    3    0    0  0.44685659878E+02 -0.90256463389E+02  0.11036647011E+04  0.11390413566E+04  0.26305209001E+03 0.  0.
         25    1    3    3    0    0 -0.44685659878E+02  0.90256463389E+02  0.37558948310E+03  0.40848256425E+03  0.12509000000E+03 0.  0.
         25    1    4    4    0    0  0.45461738141E+02 -0.80766654349E+02  0.57601206197E+03  0.59668033797E+03  0.12509000000E+03 0.  0.
         25    1    4    4    0    0 -0.77607826323E+00 -0.94898090395E+01  0.52765263917E+03  0.54236101860E+03  0.12509000000E+03 0.  0.
<mgrwt>
<rscale>  2 0.45457380E+03</rscale>
<asrwt>0</asrwt>
<pdfrwt beam="1">  1       21 0.22255717E+00 0.45457380E+03</pdfrwt>
<pdfrwt beam="2">  1       21 0.50198346E-02 0.45457380E+03</pdfrwt>
<totfact> 0.22713171E+04</totfact>
</mgrwt>
</event>
<event>
 7    0  0.4770865E-002  0.4526633E+03  0.7546771E-02  0.1026931E+00
         21   -1    0    0  502  501  0.00000000000E+00  0.00000000000E+00  0.13977283300E+03  0.13977283300E+03  0.00000000000E+00 0.  1.
         21   -1    0    0  501  502 -0.00000000000E+00 -0.00000000000E+00 -0.36649487266E+03  0.36649487266E+03  0.00000000000E+00 0.  1.
      99926    2    1    2    0    0  0.00000000000E+00  0.71054273576E-14 -0.22672203966E+03  0.50626770565E+03  0.45266334789E+03 0.  0.
      99925    2    3    3    0    0  0.69967864773E+02 -0.34218005092E+02 -0.23148353910E+03  0.35883448704E+03  0.26289006494E+03 0.  0.
         25    1    3    3    0    0 -0.69967864773E+02  0.34218005092E+02  0.47614994397E+01  0.14743321861E+03  0.12509000000E+03 0.  0.
         25    1    4    4    0    0  0.22675807596E+02  0.20425871884E+02 -0.94146793071E+02  0.15950716359E+03  0.12509000000E+03 0.  0.
         25    1    4    4    0    0  0.47292057177E+02 -0.54643876976E+02 -0.13733674603E+03  0.19932732345E+03  0.12509000000E+03 0.  0.
<mgrwt>
<rscale>  2 0.45266335E+03</rscale>
<asrwt>0</asrwt>
<pdfrwt beam="1">  1       21 0.20554829E-01 0.45266335E+03</pdfrwt>
<pdfrwt beam="2">  1       21 0.53896304E-01 0.45266335E+03</pdfrwt>
<totfact> 0.66048981E+04</totfact>
</mgrwt>
</event>
<event>
 7    0  0.4770865E-002  0.4498519E+03  0.7546771E-02  0.1027766E+00
         21   -1    0    0  502  501  0.00000000000E+00  0.00000000000E+00  0.28738878218E+02  0.28738878218E+02  0.00000000000E+00 0.  1.
         21   -1    0    0  501  502 -0.00000000000E+00 -0.00000000000E+00 -0.17603916075E+04  0.17603916075E+04  0.00000000000E+00 0.  1.
      99926    2    1    2    0    0  0.14210854715E-13 -0.71054273576E-14 -0.17316527293E+04  0.17891304858E+04  0.44985188685E+03 0.  0.
      99925    2    3    3    0    0  0.81255316475E+02 -0.57258540229E+02 -0.92429688712E+03  0.96611655458E+03  0.26301234686E+03 0.  0.
         25    1    3    3    0    0 -0.81255316475E+02  0.57258540229E+02 -0.80735584220E+03  0.82301393118E+03  0.12509000000E+03 0.  0.
         25    1    4    4    0    0  0.25913739381E+02 -0.60079748227E+02 -0.39671082865E+03  0.42107966907E+03  0.12509000000E+03 0.  0.
         25    1    4    4    0    0  0.55341577094E+02  0.28212079979E+01 -0.52758605847E+03  0.54503688551E+03  0.12509000000E+03 0.  0.
<mgrwt>
<rscale>  2 0.44985189E+03</rscale>
<asrwt>0</asrwt>
<pdfrwt beam="1">  1       21 0.42263044E-02 0.44985189E+03</pdfrwt>
<pdfrwt beam="2">  1       21 0.25888119E+00 0.44985189E+03</pdfrwt>
<totfact> 0.18185251E+04</totfact>
</mgrwt>
</event>
<event>
 7    0  0.4770865E-002  0.4467354E+03  0.7546771E-02  0.1028700E+00
         21   -1    0    0  502  501  0.00000000000E+00  0.00000000000E+00  0.86225022512E+03  0.86225022512E+03  0.00000000000E+00 0. -1.
         21   -1    0    0  501  502 -0.00000000000E+00 -0.00000000000E+00 -0.57863853840E+02  0.57863853840E+02  0.00000000000E+00 0. -1.
      99926    2    1    2    0    0  0.00000000000E+00  0.35527136788E-14  0.80438637128E+03  0.92011407896E+03  0.44673536238E+03 0.  0.
      99925    2    3    3    0    0 -0.92565909309E+02  0.22976205617E+02  0.60146053514E+03  0.66335980604E+03  0.26304962145E+03 0.  0.
         25    1    4    4    0    0 -0.30661895601E+02  0.26067083421E+02  0.20971129788E+03  0.24747925416E+03  0.12509000000E+03 0.  0.
         25    1    4    4    0    0 -0.61904013708E+02 -0.30908778036E+01  0.39174923725E+03  0.41588055188E+03  0.12509000000E+03 0.  0.
         25    1    3    3    0    0  0.92565909309E+02 -0.22976205617E+02  0.20292583615E+03  0.25675427293E+03  0.12509000000E+03 0.  0.
<mgrwt>
<rscale>  2 0.44673536E+03</rscale>
<asrwt>0</asrwt>
<pdfrwt beam="1">  1       21 0.12680150E+00 0.44673536E+03</pdfrwt>
<pdfrwt beam="2">  1       21 0.85093908E-02 0.44673536E+03</pdfrwt>
<totfact> 0.45229309E+04</totfact>
</mgrwt>
</event>
<event>
 7    0  0.4770865E-002  0.4569348E+03  0.7546771E-02  0.1025674E+00
         21   -1    0    0  502  501  0.00000000000E+00  0.00000000000E+00  0.16158468069E+03  0.16158468069E+03  0.00000000000E+00 0. -1.
         21   -1    0    0  501  502 -0.00000000000E+00 -0.00000000000E+00 -0.32303400359E+03  0.32303400359E+03  0.00000000000E+00 0. -1.
      99926    2    1    2    0    0  0.71054273576E-14  0.00000000000E+00 -0.16144932289E+03  0.48461868428E+03  0.45693477137E+03 0.  0.
      99925    2    3    3    0    0  0.59451828369E+02 -0.97537183356E+02 -0.11534448390E+03  0.30905904680E+03  0.26299262805E+03 0.  0.
         25    1    4    4    0    0  0.50990138683E+02 -0.78344251816E+02 -0.88220197960E+02  0.17935475311E+03  0.12509000000E+03 0.  0.
         25    1    4    4    0    0  0.84616896861E+01 -0.19192931541E+02 -0.27124285942E+02  0.12970429369E+03  0.12509000000E+03 0.  0.
         25    1    3    3    0    0 -0.59451828369E+02  0.97537183356E+02 -0.46104838993E+02  0.17555963748E+03  0.12509000000E+03 0.  0.
<mgrwt>
<rscale>  2 0.45693477E+03</rscale>
<asrwt>0</asrwt>
<pdfrwt beam="1">  1       21 0.23762453E-01 0.45693477E+03</pdfrwt>
<pdfrwt beam="2">  1       21 0.47505000E-01 0.45693477E+03</pdfrwt>
<totfact> 0.65355853E+04</totfact>
</mgrwt>
</event>
<event>
 7    0  0.4770865E-002  0.4539381E+03  0.7546771E-02  0.1026554E+00
         21   -1    0    0  502  501  0.00000000000E+00  0.00000000000E+00  0.53917391715E+02  0.53917391715E+02  0.00000000000E+00 0. -1.
         21   -1    0    0  501  502 -0.00000000000E+00 -0.00000000000E+00 -0.95544197645E+03  0.95544197645E+03  0.00000000000E+00 0. -1.
      99926    2    1    2    0    0  0.00000000000E+00  0.00000000000E+00 -0.90152458474E+03  0.10093593682E+04  0.45393805439E+03 0.  0.
      99925    2    3    3    0    0 -0.50724505370E+02  0.66836167200E+02 -0.73335716246E+03  0.78359878989E+03  0.26301005130E+03 0.  0.
         25    1    3    3    0    0  0.50724505370E+02 -0.66836167200E+02 -0.16816742227E+03  0.22576057828E+03  0.12509000000E+03 0.  0.
         25    1    4    4    0    0  0.50092396559E+01  0.59477614776E+02 -0.34955902915E+03  0.37603417677E+03  0.12509000000E+03 0.  0.
         25    1    4    4    0    0 -0.55733745026E+02  0.73585524231E+01 -0.38379813332E+03  0.40756461312E+03  0.12509000000E+03 0.  0.
<mgrwt>
<rscale>  2 0.45393805E+03</rscale>
<asrwt>0</asrwt>
<pdfrwt beam="1">  1       21 0.79290285E-02 0.45393805E+03</pdfrwt>
<pdfrwt beam="2">  1       21 0.14050617E+00 0.45393805E+03</pdfrwt>
<totfact> 0.39128176E+04</totfact>
</mgrwt>
</event>
<event>
 7    0  0.4770865E-002  0.4746147E+03  0.7546771E-02  0.1020626E+00
         21   -1    0    0  502  501  0.00000000000E+00  0.00000000000E+00  0.83198807109E+03  0.83198807109E+03  0.00000000000E+00 0.  1.
         21   -1    0    0  501  502 -0.00000000000E+00 -0.00000000000E+00 -0.67687008463E+02  0.67687008463E+02  0.00000000000E+00 0.  1.
      99926    2    1    2    0    0  0.00000000000E+00  0.00000000000E+00  0.76430106263E+03  0.89967507956E+03  0.47461472210E+03 0.  0.
      99925    2    3    3    0    0  0.10687151203E+03 -0.75813675032E+02  0.45020581721E+03  0.53708362254E+03  0.26192423780E+03 0.  0.
         25    1    3    3    0    0 -0.10687151203E+03  0.75813675032E+02  0.31409524542E+03  0.36259145702E+03  0.12509000000E+03 0.  0.
         25    1    4    4    0    0  0.29903950817E+02 -0.31755295053E+02  0.26789723959E+03  0.29886298553E+03  0.12509000000E+03 0.  0.
         25    1    4    4    0    0  0.76967561210E+02 -0.44058379980E+02  0.18230857761E+03  0.23822063701E+03  0.12509000000E+03 0.  0.
<mgrwt>
<rscale>  2 0.47461472E+03</rscale>
<asrwt>0</asrwt>
<pdfrwt beam="1">  1       21 0.12235118E+00 0.47461472E+03</pdfrwt>
<pdfrwt beam="2">  1       21 0.99539723E-02 0.47461472E+03</pdfrwt>
<totfact> 0.37197410E+04</totfact>
</mgrwt>
</event>
<event>
 7    0  0.4770865E-002  0.4619785E+03  0.7546771E-02  0.1024209E+00
         21   -1    0    0  502  501  0.00000000000E+00  0.00000000000E+00  0.27161963691E+03  0.27161963691E+03  0.00000000000E+00 0. -1.
         21   -1    0    0  501  502 -0.00000000000E+00 -0.00000000000E+00 -0.19643658796E+03  0.19643658796E+03  0.00000000000E+00 0. -1.
      99926    2    1    2    0    0  0.00000000000E+00  0.00000000000E+00  0.75183048948E+02  0.46805622487E+03  0.46197850468E+03 0.  0.
      99925    2    3    3    0    0  0.11165105821E+02  0.11896876730E+03  0.40583051769E+02  0.29163940286E+03  0.26292266930E+03 0.  0.
         25    1    4    4    0    0 -0.17144293892E+02  0.31948209883E+02  0.41361195004E+02  0.13664871562E+03  0.12509000000E+03 0.  0.
         25    1    3    3    0    0 -0.11165105821E+02 -0.11896876730E+03  0.34599997179E+02  0.17641682201E+03  0.12509000000E+03 0.  0.
         25    1    4    4    0    0  0.28309399713E+02  0.87020557422E+02 -0.77814323500E+00  0.15499068725E+03  0.12509000000E+03 0.  0.
<mgrwt>
<rscale>  2 0.46197850E+03</rscale>
<asrwt>0</asrwt>
<pdfrwt beam="1">  1       21 0.39944064E-01 0.46197850E+03</pdfrwt>
<pdfrwt beam="2">  1       21 0.28887734E-01 0.46197850E+03</pdfrwt>
<totfact> 0.63961276E+04</totfact>
</mgrwt>
</event>
<event>
 7    0  0.4770865E-002  0.4671559E+03  0.7546771E-02  0.1022726E+00
         21   -1    0    0  502  501  0.00000000000E+00  0.00000000000E+00  0.28591994595E+03  0.28591994595E+03  0.00000000000E+00 0.  1.
         21   -1    0    0  501  502 -0.00000000000E+00 -0.00000000000E+00 -0.19081793250E+03  0.19081793250E+03  0.00000000000E+00 0.  1.
      99926    2    1    2    0    0 -0.71054273576E-14  0.00000000000E+00  0.95102013451E+02  0.47673787844E+03  0.46715587525E+03 0.  0.
      99925    2    3    3    0    0  0.56919835849E+02  0.10928900547E+03  0.42476380069E+02  0.29343234165E+03  0.26289606659E+03 0.  0.
         25    1    4    4    0    0  0.69710810634E+01  0.78097032363E+02  0.47492582374E+02  0.15508319031E+03  0.12509000000E+03 0.  0.
         25    1    3    3    0    0 -0.56919835849E+02 -0.10928900547E+03  0.52625633383E+02  0.18330553679E+03  0.12509000000E+03 0.  0.
         25    1    4    4    0    0  0.49948754786E+02  0.31191973110E+02 -0.50162023057E+01  0.13834915134E+03  0.12509000000E+03 0.  0.
<mgrwt>
<rscale>  2 0.46715588E+03</rscale>
<asrwt>0</asrwt>
<pdfrwt beam="1">  1       21 0.42047051E-01 0.46715588E+03</pdfrwt>
<pdfrwt beam="2">  1       21 0.28061461E-01 0.46715588E+03</pdfrwt>
<totfact> 0.60851684E+04</totfact>
</mgrwt>
</event>
<event>
 7    0  0.4770865E-002  0.4542806E+03  0.7546771E-02  0.1026453E+00
         21   -1    0    0  502  501  0.00000000000E+00  0.00000000000E+00  0.41720581177E+03  0.41720581177E+03  0.00000000000E+00 0. -1.
         21   -1    0    0  501  502 -0.00000000000E+00 -0.00000000000E+00 -0.12366249724E+03  0.12366249724E+03  0.00000000000E+00 0. -1.
      99926    2    1    2    0    0 -0.71054273576E-14 -0.14210854715E-13  0.29354331453E+03  0.54086830901E+03  0.45428058531E+03 0.  0.
      99925    2    3    3    0    0  0.37962563068E+02  0.10493390845E+03  0.16733120482E+03  0.33103674305E+03  0.26293214296E+03 0.  0.
         25    1    4    4    0    0  0.44572146192E+02  0.87095428791E+02  0.85622977849E+02  0.18041921286E+03  0.12509000000E+03 0.  0.
         25    1    3    3    0    0 -0.37962563068E+02 -0.10493390845E+03  0.12621210971E+03  0.20983156596E+03  0.12509000000E+03 0.  0.
         25    1    4    4    0    0 -0.66095831238E+01  0.17838479660E+02  0.81708226974E+02  0.15061753019E+03  0.12509000000E+03 0.  0.
<mgrwt>
<rscale>  2 0.45428059E+03</rscale>
<asrwt>0</asrwt>
<pdfrwt beam="1">  1       21 0.61353795E-01 0.45428059E+03</pdfrwt>
<pdfrwt beam="2">  1       21 0.18185661E-01 0.45428059E+03</pdfrwt>
<totfact> 0.62830955E+04</totfact>
</mgrwt>
</event>
<event>
 7    0  0.4770865E-002  0.4576747E+03  0.7546771E-02  0.1025458E+00
         21   -1    0    0  502  501  0.00000000000E+00  0.00000000000E+00  0.80440877595E+02  0.80440877595E+02  0.00000000000E+00 0. -1.
         21   -1    0    0  501  502 -0.00000000000E+00 -0.00000000000E+00 -0.65099418114E+03  0.65099418114E+03  0.00000000000E+00 0. -1.
      99926    2    1    2    0    0  0.00000000000E+00  0.00000000000E+00 -0.57055330355E+03  0.73143505874E+03  0.45767474582E+03 0.  0.
      99925    2    3    3    0    0  0.30560859366E+02 -0.95374931566E+02 -0.26589756718E+03  0.38720698100E+03  0.26305396065E+03 0.  0.
         25    1    3    3    0    0 -0.30560859366E+02  0.95374931566E+02 -0.30465573637E+03  0.34422807773E+03  0.12509000000E+03 0.  0.
         25    1    4    4    0    0  0.46087183015E+01 -0.45425482644E+02 -0.77206842905E+02  0.15392569457E+03  0.12509000000E+03 0.  0.
         25    1    4    4    0    0  0.25952141065E+02 -0.49949448922E+02 -0.18869072427E+03  0.23328128643E+03  0.12509000000E+03 0.  0.
<mgrwt>
<rscale>  2 0.45767475E+03</rscale>
<asrwt>0</asrwt>
<pdfrwt beam="1">  1       21 0.11829541E-01 0.45767475E+03</pdfrwt>
<pdfrwt beam="2">  1       21 0.95734438E-01 0.45767475E+03</pdfrwt>
<totfact> 0.50165824E+04</totfact>
</mgrwt>
</event>
<event>
 7    0  0.4770865E-002  0.4539950E+03  0.7546771E-02  0.1026537E+00
         21   -1    0    0  502  501  0.00000000000E+00  0.00000000000E+00  0.40425019159E+02  0.40425019159E+02  0.00000000000E+00 0. -1.
         21   -1    0    0  501  502 -0.00000000000E+00 -0.00000000000E+00 -0.12746530774E+04  0.12746530774E+04  0.00000000000E+00 0. -1.
      99926    2    1    2    0    0  0.00000000000E+00  0.00000000000E+00 -0.12342280582E+04  0.13150780966E+04  0.45399504436E+03 0.  0.
      99925    2    3    3    0    0  0.17727409798E+02  0.46160637569E+02 -0.10692695245E+04  0.11022309884E+04  0.26292730961E+03 0.  0.
         25    1    4    4    0    0 -0.20311825646E+02  0.42889462285E+02 -0.62232328868E+03  0.63654211170E+03  0.12509000000E+03 0.  0.
         25    1    4    4    0    0  0.38039235444E+02  0.32711752839E+01 -0.44694623583E+03  0.46568887666E+03  0.12509000000E+03 0.  0.
         25    1    3    3    0    0 -0.17727409798E+02 -0.46160637569E+02 -0.16495853374E+03  0.21284710821E+03  0.12509000000E+03 0.  0.
<mgrwt>
<rscale>  2 0.45399504E+03</rscale>
<asrwt>0</asrwt>
<pdfrwt beam="1">  1       21 0.59448552E-02 0.45399504E+03</pdfrwt>
<pdfrwt beam="2">  1       21 0.18744900E+00 0.45399504E+03</pdfrwt>
<totfact> 0.28905145E+04</totfact>
</mgrwt>
</event>
<event>
 7    0  0.4770865E-002  0.4688363E+03  0.7546771E-02  0.1022249E+00
         21   -1    0    0  502  501  0.00000000000E+00  0.00000000000E+00  0.17196065043E+03  0.17196065043E+03  0.00000000000E+00 0.  1.
         21   -1    0    0  501  502 -0.00000000000E+00 -0.00000000000E+00 -0.31956077820E+03  0.31956077820E+03  0.00000000000E+00 0.  1.
      99926    2    1    2    0    0  0.00000000000E+00  0.00000000000E+00 -0.14760012777E+03  0.49152142862E+03  0.46883634360E+03 0.  0.
      99925    2    3    3    0    0  0.82309733618E+02 -0.25872091365E+02  0.41666368688E+01  0.27675430752E+03  0.26292837144E+03 0.  0.
         25    1    3    3    0    0 -0.82309733618E+02  0.25872091365E+02 -0.15176676464E+03  0.21476712111E+03  0.12509000000E+03 0.  0.
         25    1    4    4    0    0  0.30858448919E+02 -0.41528905473E+02  0.28762080163E+02  0.13838951989E+03  0.12509000000E+03 0.  0.
         25    1    4    4    0    0  0.51451284699E+02  0.15656814108E+02 -0.24595443294E+02  0.13836478763E+03  0.12509000000E+03 0.  0.
<mgrwt>
<rscale>  2 0.46883634E+03</rscale>
<asrwt>0</asrwt>
<pdfrwt beam="1">  1       21 0.25288331E-01 0.46883634E+03</pdfrwt>
<pdfrwt beam="2">  1       21 0.46994232E-01 0.46883634E+03</pdfrwt>
<totfact> 0.59106935E+04</totfact>
</mgrwt>
</event>
<event>
 7    0  0.4770865E-002  0.4339602E+03  0.7546771E-02  0.1032616E+00
         21   -1    0    0  502  501  0.00000000000E+00  0.00000000000E+00  0.25728485678E+03  0.25728485678E+03  0.00000000000E+00 0. -1.
         21   -1    0    0  501  502 -0.00000000000E+00 -0.00000000000E+00 -0.18298921547E+03  0.18298921547E+03  0.00000000000E+00 0. -1.
      99926    2    1    2    0    0  0.00000000000E+00 -0.17763568394E-14  0.74295641305E+02  0.44027407225E+03  0.43396015529E+03 0.  0.
      99925    2    3    3    0    0  0.78714427792E+02  0.13973081011E+02  0.16196387437E+01  0.27498487846E+03  0.26310236034E+03 0.  0.
         25    1    4    4    0    0  0.37614954120E+02  0.23686587346E+02 -0.36288632446E+02  0.13762380658E+03  0.12509000000E+03 0.  0.
         25    1    3    3    0    0 -0.78714427792E+02 -0.13973081011E+02  0.72676002561E+02  0.16528919379E+03  0.12509000000E+03 0.  0.
         25    1    4    4    0    0  0.41099473672E+02 -0.97135063354E+01  0.37908271189E+02  0.13736107187E+03  0.12509000000E+03 0.  0.
<mgrwt>
<rscale>  2 0.43396016E+03</rscale>
<asrwt>0</asrwt>
<pdfrwt beam="1">  1       21 0.37836009E-01 0.43396016E+03</pdfrwt>
<pdfrwt beam="2">  1       21 0.26910179E-01 0.43396016E+03</pdfrwt>
<totfact> 0.82664161E+04</totfact>
</mgrwt>
</event>
<event>
 7    0  0.4770865E-002  0.4493390E+03  0.7546771E-02  0.1027919E+00
         21   -1    0    0  502  501  0.00000000000E+00  0.00000000000E+00  0.73386775760E+03  0.73386775760E+03  0.00000000000E+00 0.  1.
         21   -1    0    0  501  502 -0.00000000000E+00 -0.00000000000E+00 -0.68781305377E+02  0.68781305377E+02  0.00000000000E+00 0.  1.
      99926    2    1    2    0    0  0.00000000000E+00  0.17763568394E-14  0.66508645222E+03  0.80264906298E+03  0.44933899160E+03 0.  0.
      99925    2    3    3    0    0 -0.96613293756E+02 -0.12381000498E+02  0.50078653542E+03  0.57433045124E+03  0.26378190890E+03 0.  0.
         25    1    4    4    0    0 -0.59687639172E+02 -0.28123452476E+02  0.18948519757E+03  0.23644384333E+03  0.12509000000E+03 0.  0.
         25    1    4    4    0    0 -0.36925654584E+02  0.15742451977E+02  0.31130133785E+03  0.33788660791E+03  0.12509000000E+03 0.  0.
         25    1    3    3    0    0  0.96613293756E+02  0.12381000498E+02  0.16429991680E+03  0.22831861174E+03  0.12509000000E+03 0.  0.
<mgrwt>
<rscale>  2 0.44933899E+03</rscale>
<asrwt>0</asrwt>
<pdfrwt beam="1">  1       21 0.10792173E+00 0.44933899E+03</pdfrwt>
<pdfrwt beam="2">  1       21 0.10114898E-01 0.44933899E+03</pdfrwt>
<totfact> 0.49813345E+04</totfact>
</mgrwt>
</event>
<event>
 7    0  0.4770865E-002  0.4600012E+03  0.7546771E-02  0.1024781E+00
         21   -1    0    0  502  501  0.00000000000E+00  0.00000000000E+00  0.15739869320E+03  0.15739869320E+03  0.00000000000E+00 0. -1.
         21   -1    0    0  501  502 -0.00000000000E+00 -0.00000000000E+00 -0.33609099203E+03  0.33609099203E+03  0.00000000000E+00 0. -1.
      99926    2    1    2    0    0  0.00000000000E+00  0.14210854715E-13 -0.17869229883E+03  0.49348968523E+03  0.46000123018E+03 0.  0.
      99925    2    3    3    0    0 -0.44465072178E+02 -0.82403126083E+02 -0.18852602083E+03  0.33692778687E+03  0.26307956059E+03 0.  0.
         25    1    4    4    0    0 -0.26191377873E+02 -0.77587712533E+02 -0.12738446156E+03  0.19641830505E+03  0.12509000000E+03 0.  0.
         25    1    4    4    0    0 -0.18273694305E+02 -0.48154135505E+01 -0.61141559271E+02  0.14050948182E+03  0.12509000000E+03 0.  0.
         25    1    3    3    0    0  0.44465072178E+02  0.82403126083E+02  0.98337219967E+01  0.15656189837E+03  0.12509000000E+03 0.  0.
<mgrwt>
<rscale>  2 0.46000123E+03</rscale>
<asrwt>0</asrwt>
<pdfrwt beam="1">  1       21 0.23146866E-01 0.46000123E+03</pdfrwt>
<pdfrwt beam="2">  1       21 0.49425146E-01 0.46000123E+03</pdfrwt>
<totfact> 0.63184368E+04</totfact>
</mgrwt>
</event>
<event>
 7    0  0.4770865E-002  0.4558398E+03  0.7546771E-02  0.1025995E+00
         21   -1    0    0  502  501  0.00000000000E+00  0.00000000000E+00  0.13968462557E+03  0.13968462557E+03  0.00000000000E+00 0.  1.
         21   -1    0    0  501  502 -0.00000000000E+00 -0.00000000000E+00 -0.37189113464E+03  0.37189113464E+03  0.00000000000E+00 0.  1.
      99926    2    1    2    0    0  0.71054273576E-14 -0.14210854715E-13 -0.23220650907E+03  0.51157576022E+03  0.45583976964E+03 0.  0.
      99925    2    3    3    0    0 -0.34374127234E+02  0.10864924235E+03 -0.14954783410E+03  0.32325103233E+03  0.26294569160E+03 0.  0.
         25    1    4    4    0    0 -0.22887496759E+02  0.26393236736E+02 -0.10387472587E+03  0.16630666621E+03  0.12509000000E+03 0.  0.
         25    1    4    4    0    0 -0.11486630475E+02  0.82256005616E+02 -0.45673108237E+02  0.15694436612E+03  0.12509000000E+03 0.  0.
         25    1    3    3    0    0  0.34374127234E+02 -0.10864924235E+03 -0.82658674966E+02  0.18832472789E+03  0.12509000000E+03 0.  0.
<mgrwt>
<rscale>  2 0.45583977E+03</rscale>
<asrwt>0</asrwt>
<pdfrwt beam="1">  1       21 0.20541857E-01 0.45583977E+03</pdfrwt>
<pdfrwt beam="2">  1       21 0.54689873E-01 0.45583977E+03</pdfrwt>
<totfact> 0.64037005E+04</totfact>
</mgrwt>
</event>
<event>
 7    0  0.4770865E-002  0.4422804E+03  0.7546771E-02  0.1030049E+00
         21   -1    0    0  502  501  0.00000000000E+00  0.00000000000E+00  0.42117942279E+02  0.42117942279E+02  0.00000000000E+00 0. -1.
         21   -1    0    0  501  502 -0.00000000000E+00 -0.00000000000E+00 -0.11610964259E+04  0.11610964259E+04  0.00000000000E+00 0. -1.
      99926    2    1    2    0    0  0.00000000000E+00  0.00000000000E+00 -0.11189784836E+04  0.12032143681E+04  0.44228041894E+03 0.  0.
      99925    2    3    3    0    0 -0.56277846678E+02  0.44586996261E+02 -0.90513009370E+03  0.94527282783E+03  0.26291640544E+03 0.  0.
         25    1    4    4    0    0  0.11869079053E+02  0.12260622460E+02 -0.43883691163E+03  0.45663611444E+03  0.12509000000E+03 0.  0.
         25    1    4    4    0    0 -0.68146925731E+02  0.32326373800E+02 -0.46629318207E+03  0.48863671339E+03  0.12509000000E+03 0.  0.
         25    1    3    3    0    0  0.56277846678E+02 -0.44586996261E+02 -0.21384838989E+03  0.25794154032E+03  0.12509000000E+03 0.  0.
<mgrwt>
<rscale>  2 0.44228042E+03</rscale>
<asrwt>0</asrwt>
<pdfrwt beam="1">  1       21 0.61938157E-02 0.44228042E+03</pdfrwt>
<pdfrwt beam="2">  1       21 0.17074946E+00 0.44228042E+03</pdfrwt>
<totfact> 0.35437342E+04</totfact>
</mgrwt>
</event>
<event>
 7    0  0.4770865E-002  0.4545757E+03  0.7546771E-02  0.1026366E+00
         21   -1    0    0  502  501  0.00000000000E+00  0.00000000000E+00  0.58364318160E+03  0.58364318160E+03  0.00000000000E+00 0.  1.
         21   -1    0    0  501  502 -0.00000000000E+00 -0.00000000000E+00 -0.88512601313E+02  0.88512601313E+02  0.00000000000E+00 0.  1.
      99926    2    1    2    0    0 -0.35527136788E-14  0.00000000000E+00  0.49513058029E+03  0.67215578291E+03  0.45457574173E+03 0.  0.
      99925    2    3    3    0    0  0.23695917263E+02  0.11009446513E+03  0.30348585211E+03  0.41709206992E+03  0.26302061632E+03 0.  0.
         25    1    4    4    0    0  0.24156137630E+02  0.86693649834E+02  0.12804611725E+03  0.20035624310E+03  0.12509000000E+03 0.  0.
         25    1    3    3    0    0 -0.23695917263E+02 -0.11009446513E+03  0.19164472818E+03  0.25506371300E+03  0.12509000000E+03 0.  0.
         25    1    4    4    0    0 -0.46022036758E+00  0.23400815298E+02  0.17543973485E+03  0.21673582681E+03  0.12509000000E+03 0.  0.
<mgrwt>
<rscale>  2 0.45457574E+03</rscale>
<asrwt>0</asrwt>
<pdfrwt beam="1">  1       21 0.85829877E-01 0.45457574E+03</pdfrwt>
<pdfrwt beam="2">  1       21 0.13016559E-01 0.45457574E+03</pdfrwt>
<totfact> 0.54623598E+04</totfact>
</mgrwt>
</event>
<event>
 7    0  0.4770865E-002  0.4532229E+03  0.7546771E-02  0.1026765E+00
         21   -1    0    0  502  501  0.00000000000E+00  0.00000000000E+00  0.60443797022E+02  0.60443797022E+02  0.00000000000E+00 0. -1.
         21   -1    0    0  501  502 -0.00000000000E+00 -0.00000000000E+00 -0.84959505986E+03  0.84959505986E+03  0.00000000000E+00 0. -1.
      99926    2    1    2    0    0  0.71054273576E-14  0.00000000000E+00 -0.78915126283E+03  0.91003885688E+03  0.45322290917E+03 0.  0.
      99925    2    3    3    0    0  0.60885705735E+02  0.93400041244E+02 -0.50758836095E+03  0.58238688804E+03  0.26286480617E+03 0.  0.
         25    1    4    4    0    0  0.13181328664E+01  0.40324022518E+02 -0.29698437368E+03  0.32476913428E+03  0.12509000000E+03 0.  0.
         25    1    4    4    0    0  0.59567572868E+02  0.53076018727E+02 -0.21060398727E+03  0.25761775377E+03  0.12509000000E+03 0.  0.
         25    1    3    3    0    0 -0.60885705735E+02 -0.93400041244E+02 -0.28156290188E+03  0.32765196884E+03  0.12509000000E+03 0.  0.
<mgrwt>
<rscale>  2 0.45322291E+03</rscale>
<asrwt>0</asrwt>
<pdfrwt beam="1">  1       21 0.88887946E-02 0.45322291E+03</pdfrwt>
<pdfrwt beam="2">  1       21 0.12494044E+00 0.45322291E+03</pdfrwt>
<totfact> 0.43403146E+04</totfact>
</mgrwt>
</event>
<event>
 7    0  0.4770865E-002  0.4557138E+03  0.7546771E-02  0.1026032E+00
         21   -1    0    0  502  501  0.00000000000E+00  0.00000000000E+00  0.27676043893E+03  0.27676043893E+03  0.00000000000E+00 0.  1.
         21   -1    0    0  501  502 -0.00000000000E+00 -0.00000000000E+00 -0.18759462203E+03  0.18759462203E+03  0.00000000000E+00 0.  1.
      99926    2    1    2    0    0 -0.14210854715E-13  0.17763568394E-14  0.89165816900E+02  0.46435506096E+03  0.45571381342E+03 0.  0.
      99925    2    3    3    0    0  0.10509767526E+03 -0.11085780281E+02  0.99343796743E+02  0.30028338381E+03  0.26293060829E+03 0.  0.
         25    1    4    4    0    0  0.92827152530E+02  0.71634585803E+01  0.46500810795E+02  0.16272070824E+03  0.12509000000E+03 0.  0.
         25    1    4    4    0    0  0.12270522729E+02 -0.18249238861E+02  0.52842985948E+02  0.13756267557E+03  0.12509000000E+03 0.  0.
         25    1    3    3    0    0 -0.10509767526E+03  0.11085780281E+02 -0.10177979843E+02  0.16407167715E+03  0.12509000000E+03 0.  0.
<mgrwt>
<rscale>  2 0.45571381E+03</rscale>
<asrwt>0</asrwt>
<pdfrwt beam="1">  1       21 0.40700065E-01 0.45571381E+03</pdfrwt>
<pdfrwt beam="2">  1       21 0.27587444E-01 0.45571381E+03</pdfrwt>
<totfact> 0.67474427E+04</totfact>
</mgrwt>
</event>
<event>
 7    0  0.4770865E-002  0.4619583E+03  0.7546771E-02  0.1024215E+00
         21   -1    0    0  502  501  0.00000000000E+00  0.00000000000E+00  0.12671551769E+04  0.12671551769E+04  0.00000000000E+00 0. -1.
         21   -1    0    0  501  502 -0.00000000000E+00 -0.00000000000E+00 -0.42103264344E+02  0.42103264344E+02  0.00000000000E+00 0. -1.
      99926    2    1    2    0    0  0.00000000000E+00  0.00000000000E+00  0.12250519126E+04  0.13092584413E+04  0.46195830712E+03 0.  0.
      99925    2    3    3    0    0 -0.74590252464E+02 -0.53387334775E+02  0.98361846308E+03  0.10222888751E+04  0.26297404804E+03 0.  0.
         25    1    4    4    0    0 -0.76837776096E+01 -0.77364395790E+01  0.36576310211E+03  0.38671571974E+03  0.12509000000E+03 0.  0.
         25    1    3    3    0    0  0.74590252464E+02  0.53387334775E+02  0.24143344952E+03  0.28696956620E+03  0.12509000000E+03 0.  0.
         25    1    4    4    0    0 -0.66906474854E+02 -0.45650895196E+02  0.61785536098E+03  0.63557315535E+03  0.12509000000E+03 0.  0.
<mgrwt>
<rscale>  2 0.46195831E+03</rscale>
<asrwt>0</asrwt>
<pdfrwt beam="1">  1       21 0.18634632E+00 0.46195831E+03</pdfrwt>
<pdfrwt beam="2">  1       21 0.61916574E-02 0.46195831E+03</pdfrwt>
<totfact> 0.27337266E+04</totfact>
</mgrwt>
</event>
<event>
 7    0  0.4770865E-002  0.4609115E+03  0.7546771E-02  0.1024517E+00
         21   -1    0    0  502  501  0.00000000000E+00  0.00000000000E+00  0.68318338204E+03  0.68318338204E+03  0.00000000000E+00 0.  1.
         21   -1    0    0  501  502 -0.00000000000E+00 -0.00000000000E+00 -0.77738781271E+02  0.77738781271E+02  0.00000000000E+00 0.  1.
      99926    2    1    2    0    0  0.00000000000E+00  0.35527136788E-14  0.60544460077E+03  0.76092216331E+03  0.46091146006E+03 0.  0.
      99925    2    3    3    0    0 -0.71888544396E+02  0.30035770452E+02  0.23150558966E+03  0.35899181804E+03  0.26307827172E+03 0.  0.
         25    1    4    4    0    0 -0.65499929664E+02 -0.80800302525E+01  0.98448475957E+02  0.17232277329E+03  0.12509000000E+03 0.  0.
         25    1    4    4    0    0 -0.63886147317E+01  0.38115800705E+02  0.13305711370E+03  0.18666904475E+03  0.12509000000E+03 0.  0.
         25    1    3    3    0    0  0.71888544396E+02 -0.30035770452E+02  0.37393901111E+03  0.40193034527E+03  0.12509000000E+03 0.  0.
<mgrwt>
<rscale>  2 0.46091146E+03</rscale>
<asrwt>0</asrwt>
<pdfrwt beam="1">  1       21 0.10046814E+00 0.46091146E+03</pdfrwt>
<pdfrwt beam="2">  1       21 0.11432174E-01 0.46091146E+03</pdfrwt>
<totfact> 0.47470791E+04</totfact>
</mgrwt>
</event>
<event>
 7    0  0.4770865E-002  0.4571162E+03  0.7546771E-02  0.1025621E+00
         21   -1    0    0  502  501  0.00000000000E+00  0.00000000000E+00  0.61690410018E+02  0.61690410018E+02  0.00000000000E+00 0.  1.
         21   -1    0    0  501  502 -0.00000000000E+00 -0.00000000000E+00 -0.84678988866E+03  0.84678988866E+03  0.00000000000E+00 0.  1.
      99926    2    1    2    0    0 -0.48849813084E-14  0.00000000000E+00 -0.78509947864E+03  0.90848029868E+03  0.45711624530E+03 0.  0.
      99925    2    3    3    0    0  0.36466488113E+01 -0.39156682421E+02 -0.70812245554E+03  0.75642927431E+03  0.26306138288E+03 0.  0.
         25    1    4    4    0    0 -0.33704947225E+02 -0.34254220340E+02 -0.39645579413E+03  0.41849023869E+03  0.12509000000E+03 0.  0.
         25    1    4    4    0    0  0.37351596036E+02 -0.49024620810E+01 -0.31166666141E+03  0.33793903562E+03  0.12509000000E+03 0.  0.
         25    1    3    3    0    0 -0.36466488113E+01  0.39156682421E+02 -0.76977023100E+02  0.15205102437E+03  0.12509000000E+03 0.  0.
<mgrwt>
<rscale>  2 0.45711625E+03</rscale>
<asrwt>0</asrwt>
<pdfrwt beam="1">  1       21 0.90721190E-02 0.45711625E+03</pdfrwt>
<pdfrwt beam="2">  1       21 0.12452793E+00 0.45711625E+03</pdfrwt>
<totfact> 0.42166173E+04</totfact>
</mgrwt>
</event>
<event>
 7    0  0.4770865E-002  0.4558002E+03  0.7546771E-02  0.1026006E+00
         21   -1    0    0  502  501  0.00000000000E+00  0.00000000000E+00  0.13240230557E+04  0.13240230557E+04  0.00000000000E+00 0. -1.
         21   -1    0    0  501  502 -0.00000000000E+00 -0.00000000000E+00 -0.39227756630E+02  0.39227756630E+02  0.00000000000E+00 0. -1.
      99926    2    1    2    0    0  0.14210854715E-13  0.35527136788E-14  0.12847952990E+04  0.13632508123E+04  0.45580019394E+03 0.  0.
      99925    2    3    3    0    0 -0.98021232985E+02 -0.24239146152E+02  0.64707215054E+03  0.70557762556E+03  0.26256755200E+03 0.  0.
         25    1    4    4    0    0 -0.78430436628E+02 -0.39249095828E+02  0.38267975671E+03  0.41204748417E+03  0.12509000000E+03 0.  0.
         25    1    3    3    0    0  0.98021232985E+02  0.24239146152E+02  0.63772314848E+03  0.65767318672E+03  0.12509000000E+03 0.  0.
         25    1    4    4    0    0 -0.19590796356E+02  0.15009949676E+02  0.26439239384E+03  0.29353014140E+03  0.12509000000E+03 0.  0.
<mgrwt>
<rscale>  2 0.45580019E+03</rscale>
<asrwt>0</asrwt>
<pdfrwt beam="1">  1       21 0.19470924E+00 0.45580019E+03</pdfrwt>
<pdfrwt beam="2">  1       21 0.57687886E-02 0.45580019E+03</pdfrwt>
<totfact> 0.27158678E+04</totfact>
</mgrwt>
</event>
<event>
 7    0  0.4770865E-002  0.4245848E+03  0.7546771E-02  0.1035584E+00
         21   -1    0    0  502  501  0.00000000000E+00  0.00000000000E+00  0.73350736492E+03  0.73350736492E+03  0.00000000000E+00 0. -1.
         21   -1    0    0  501  502 -0.00000000000E+00 -0.00000000000E+00 -0.61441873470E+02  0.61441873470E+02  0.00000000000E+00 0. -1.
      99926    2    1    2    0    0  0.00000000000E+00  0.00000000000E+00  0.67206549145E+03  0.79494923839E+03  0.42458481699E+03 0.  0.
      99925    2    3    3    0    0  0.28545056515E+01  0.36385625869E+02  0.30178776295E+03  0.40241240407E+03  0.26368129837E+03 0.  0.
         25    1    4    4    0    0 -0.11383834570E+02 -0.53183993040E+01  0.98607016462E+02  0.15977712244E+03  0.12509000000E+03 0.  0.
         25    1    3    3    0    0 -0.28545056515E+01 -0.36385625869E+02  0.37027772850E+03  0.39253683432E+03  0.12509000000E+03 0.  0.
         25    1    4    4    0    0  0.14238340221E+02  0.41704025173E+02  0.20318074648E+03  0.24263528163E+03  0.12509000000E+03 0.  0.
<mgrwt>
<rscale>  2 0.42458482E+03</rscale>
<asrwt>0</asrwt>
<pdfrwt beam="1">  1       21 0.10786872E+00 0.42458482E+03</pdfrwt>
<pdfrwt beam="2">  1       21 0.90355701E-02 0.42458482E+03</pdfrwt>
<totfact> 0.61408590E+04</totfact>
</mgrwt>
</event>
<event>
 7    0  0.4770865E-002  0.4529157E+03  0.7546771E-02  0.1026856E+00
         21   -1    0    0  502  501  0.00000000000E+00  0.00000000000E+00  0.71545554861E+03  0.71545554861E+03  0.00000000000E+00 0.  1.
         21   -1    0    0  501  502 -0.00000000000E+00 -0.00000000000E+00 -0.71679020987E+02  0.71679020987E+02  0.00000000000E+00 0.  1.
      99926    2    1    2    0    0  0.00000000000E+00  0.00000000000E+00  0.64377652762E+03  0.78713456959E+03  0.45291567994E+03 0.  0.
      99925    2    3    3    0    0  0.73705541262E+02  0.48404990597E+02  0.52355826999E+03  0.59251831258E+03  0.26303828378E+03 0.  0.
         25    1    3    3    0    0 -0.73705541262E+02 -0.48404990597E+02  0.12021825762E+03  0.19461625701E+03  0.12509000000E+03 0.  0.
         25    1    4    4    0    0 -0.50230736860E+01  0.23621929706E+02  0.25058528549E+03  0.28111157969E+03  0.12509000000E+03 0.  0.
         25    1    4    4    0    0  0.78728614948E+02  0.24783060891E+02  0.27297298451E+03  0.31140673289E+03  0.12509000000E+03 0.  0.
<mgrwt>
<rscale>  2 0.45291568E+03</rscale>
<asrwt>0</asrwt>
<pdfrwt beam="1">  1       21 0.10521405E+00 0.45291568E+03</pdfrwt>
<pdfrwt beam="2">  1       21 0.10541033E-01 0.45291568E+03</pdfrwt>
<totfact> 0.49193256E+04</totfact>
</mgrwt>
</event>
<event>
 7    0  0.4770865E-002  0.4627758E+03  0.7546771E-02  0.1023979E+00
         21   -1    0    0  502  501  0.00000000000E+00  0.00000000000E+00  0.27303658691E+03  0.27303658691E+03  0.00000000000E+00 0. -1.
         21   -1    0    0  501  502 -0.00000000000E+00 -0.00000000000E+00 -0.19609221982E+03  0.19609221982E+03  0.00000000000E+00 0. -1.
      99926    2    1    2    0    0 -0.71054273576E-14 -0.14210854715E-13  0.76944367094E+02  0.46912880673E+03  0.46277575744E+03 0.  0.
      99925    2    3    3    0    0  0.59902186878E+02 -0.75679011017E+02 -0.24703048366E+02  0.28125839961E+03  0.26302179007E+03 0.  0.
         25    1    4    4    0    0  0.13467505971E+02  0.14658818805E+01 -0.55186959769E+01  0.12594239410E+03  0.12509000000E+03 0.  0.
         25    1    4    4    0    0  0.46434680908E+02 -0.77144892898E+02 -0.19184352389E+02  0.15531600551E+03  0.12509000000E+03 0.  0.
         25    1    3    3    0    0 -0.59902186878E+02  0.75679011017E+02  0.10164741546E+03  0.18787040712E+03  0.12509000000E+03 0.  0.
<mgrwt>
<rscale>  2 0.46277576E+03</rscale>
<asrwt>0</asrwt>
<pdfrwt beam="1">  1       21 0.40152439E-01 0.46277576E+03</pdfrwt>
<pdfrwt beam="2">  1       21 0.28837091E-01 0.46277576E+03</pdfrwt>
<totfact> 0.63488646E+04</totfact>
</mgrwt>
</event>
<event>
 7    0  0.4770865E-002  0.4565717E+03  0.7546771E-02  0.1025780E+00
         21   -1    0    0  502  501  0.00000000000E+00  0.00000000000E+00  0.68496769708E+02  0.68496769708E+02  0.00000000000E+00 0.  1.
         21   -1    0    0  501  502 -0.00000000000E+00 -0.00000000000E+00 -0.76083031931E+03  0.76083031931E+03  0.00000000000E+00 0.  1.
      99926    2    1    2    0    0 -0.14210854715E-13 -0.71054273576E-14 -0.69233354960E+03  0.82932708902E+03  0.45657165558E+03 0.  0.
      99925    2    3    3    0    0  0.94932342505E+02  0.49994578162E+02 -0.36217959695E+03  0.46032743041E+03  0.26308872124E+03 0.  0.
         25    1    4    4    0    0  0.26826007132E+02  0.35302042521E+02 -0.11966708568E+03  0.17869971561E+03  0.12509000000E+03 0.  0.
         25    1    4    4    0    0  0.68106335373E+02  0.14692535641E+02 -0.24251251126E+03  0.28162771480E+03  0.12509000000E+03 0.  0.
         25    1    3    3    0    0 -0.94932342505E+02 -0.49994578162E+02 -0.33015395265E+03  0.36899965861E+03  0.12509000000E+03 0.  0.
<mgrwt>
<rscale>  2 0.45657166E+03</rscale>
<asrwt>0</asrwt>
<pdfrwt beam="1">  1       21 0.10073055E-01 0.45657166E+03</pdfrwt>
<pdfrwt beam="2">  1       21 0.11188681E+00 0.45657166E+03</pdfrwt>
<totfact> 0.45811247E+04</totfact>
</mgrwt>
</event>
<event>
 7    0  0.4770865E-002  0.4589712E+03  0.7546771E-02  0.1025080E+00
         21   -1    0    0  502  501  0.00000000000E+00  0.00000000000E+00  0.62120900825E+02  0.62120900825E+02  0.00000000000E+00 0.  1.
         21   -1    0    0  501  502 -0.00000000000E+00 -0.00000000000E+00 -0.84776040163E+03  0.84776040163E+03  0.00000000000E+00 0.  1.
      99926    2    1    2    0    0  0.00000000000E+00 -0.71054273576E-14 -0.78563950081E+03  0.90988130246E+03  0.45897119663E+03 0.  0.
      99925    2    3    3    0    0  0.96584883823E+02 -0.53281945795E+02 -0.41640001349E+03  0.50472341641E+03  0.26303830578E+03 0.  0.
         25    1    3    3    0    0 -0.96584883823E+02  0.53281945795E+02 -0.36923948732E+03  0.40515788605E+03  0.12509000000E+03 0.  0.
         25    1    4    4    0    0  0.54695630516E+02 -0.66096340985E+02 -0.20096190455E+03  0.25178072497E+03  0.12509000000E+03 0.  0.
         25    1    4    4    0    0  0.41889253307E+02  0.12814395190E+02 -0.21543810894E+03  0.25294269143E+03  0.12509000000E+03 0.  0.
<mgrwt>
<rscale>  2 0.45897120E+03</rscale>
<asrwt>0</asrwt>
<pdfrwt beam="1">  1       21 0.91354268E-02 0.45897120E+03</pdfrwt>
<pdfrwt beam="2">  1       21 0.12467064E+00 0.45897120E+03</pdfrwt>
<totfact> 0.41503856E+04</totfact>
</mgrwt>
</event>
<event>
 7    0  0.4770865E-002  0.4560726E+03  0.7546771E-02  0.1025926E+00
         21   -1    0    0  502  501  0.00000000000E+00  0.00000000000E+00  0.34860846983E+03  0.34860846983E+03  0.00000000000E+00 0. -1.
         21   -1    0    0  501  502 -0.00000000000E+00 -0.00000000000E+00 -0.14916608017E+03  0.14916608017E+03  0.00000000000E+00 0. -1.
      99926    2    1    2    0    0  0.00000000000E+00 -0.88817841970E-15  0.19944238966E+03  0.49777455001E+03  0.45607262124E+03 0.  0.
      99925    2    3    3    0    0  0.47490474974E+02 -0.78361093648E+01  0.23819804544E+03  0.35825301483E+03  0.26323024895E+03 0.  0.
         25    1    3    3    0    0 -0.47490474974E+02  0.78361093648E+01 -0.38755655781E+02  0.13952153518E+03  0.12509000000E+03 0.  0.
         25    1    4    4    0    0  0.48839783644E+02  0.20229656554E+02  0.93218190006E+02  0.16471703773E+03  0.12509000000E+03 0.  0.
         25    1    4    4    0    0 -0.13493086701E+01 -0.28065765919E+02  0.14497985543E+03  0.19353597710E+03  0.12509000000E+03 0.  0.
<mgrwt>
<rscale>  2 0.45607262E+03</rscale>
<asrwt>0</asrwt>
<pdfrwt beam="1">  1       21 0.51265951E-01 0.45607262E+03</pdfrwt>
<pdfrwt beam="2">  1       21 0.21936188E-01 0.45607262E+03</pdfrwt>
<totfact> 0.64873140E+04</totfact>
</mgrwt>
</event>
<event>
 7    0  0.4770865E-002  0.4507109E+03  0.7546771E-02  0.1027510E+00
         21   -1    0    0  502  501  0.00000000000E+00  0.00000000000E+00  0.98488420659E+03  0.98488420659E+03  0.00000000000E+00 0.  1.
         21   -1    0    0  501  502 -0.00000000000E+00 -0.00000000000E+00 -0.51564507723E+02  0.51564507723E+02  0.00000000000E+00 0.  1.
      99926    2    1    2    0    0  0.00000000000E+00  0.00000000000E+00  0.93331969887E+03  0.10364487143E+04  0.45071085755E+03 0.  0.
      99925    2    3    3    0    0  0.13466784040E+02 -0.71877058723E+02  0.40338019886E+03  0.48705718943E+03  0.26298565570E+03 0.  0.
         25    1    3    3    0    0 -0.13466784040E+02  0.71877058723E+02  0.52993950001E+03  0.54939152489E+03  0.12509000000E+03 0.  0.
         25    1    4    4    0    0  0.45871204017E+01 -0.56167582823E+02  0.14616119417E+03  0.20046556267E+03  0.12509000000E+03 0.  0.
         25    1    4    4    0    0  0.88796636384E+01 -0.15709475900E+02  0.25721900468E+03  0.28659162676E+03  0.12509000000E+03 0.  0.
<mgrwt>
<rscale>  2 0.45071086E+03</rscale>
<asrwt>0</asrwt>
<pdfrwt beam="1">  1       21 0.14483590E+00 0.45071086E+03</pdfrwt>
<pdfrwt beam="2">  1       21 0.75830165E-02 0.45071086E+03</pdfrwt>
<totfact> 0.39070473E+04</totfact>
</mgrwt>
</event>
<event>
 7    0  0.4770865E-002  0.4162849E+03  0.7546771E-02  0.1038282E+00
         21   -1    0    0  502  501  0.00000000000E+00  0.00000000000E+00  0.74966031617E+02  0.74966031617E+02  0.00000000000E+00 0. -1.
         21   -1    0    0  501  502 -0.00000000000E+00 -0.00000000000E+00 -0.57790551364E+03  0.57790551364E+03  0.00000000000E+00 0. -1.
      99926    2    1    2    0    0  0.00000000000E+00  0.35527136788E-14 -0.50293948202E+03  0.65287154526E+03  0.41628491689E+03 0.  0.
      99925    2    3    3    0    0 -0.27730856846E+02 -0.73566829784E+01 -0.43113469620E+03  0.50581184115E+03  0.26295507444E+03 0.  0.
         25    1    4    4    0    0 -0.52016049550E+01  0.35907302315E+02 -0.21059643423E+03  0.24761816828E+03  0.12509000000E+03 0.  0.
         25    1    3    3    0    0  0.27730856846E+02  0.73566829784E+01 -0.71804785825E+02  0.14705970411E+03  0.12509000000E+03 0.  0.
         25    1    4    4    0    0 -0.22529251891E+02 -0.43263985293E+02 -0.22053826197E+03  0.25819367287E+03  0.12509000000E+03 0.  0.
<mgrwt>
<rscale>  2 0.41628492E+03</rscale>
<asrwt>0</asrwt>
<pdfrwt beam="1">  1       21 0.11024417E-01 0.41628492E+03</pdfrwt>
<pdfrwt beam="2">  1       21 0.84986104E-01 0.41628492E+03</pdfrwt>
<totfact> 0.76281561E+04</totfact>
</mgrwt>
</event>
<event>
 7    0  0.4770865E-002  0.4326414E+03  0.7546771E-02  0.1033029E+00
         21   -1    0    0  502  501  0.00000000000E+00  0.00000000000E+00  0.15609649092E+03  0.15609649092E+03  0.00000000000E+00 0.  1.
         21   -1    0    0  501  502 -0.00000000000E+00 -0.00000000000E+00 -0.29978019039E+03  0.29978019039E+03  0.00000000000E+00 0.  1.
      99926    2    1    2    0    0  0.00000000000E+00  0.35527136788E-14 -0.14368369947E+03  0.45587668130E+03  0.43264135616E+03 0.  0.
      99925    2    3    3    0    0  0.68823805991E+02 -0.17071366321E+02 -0.33057010056E+02  0.27445474126E+03  0.26306746523E+03 0.  0.
         25    1    4    4    0    0  0.58491511413E+02 -0.29178678661E+02 -0.44114164877E+02  0.14787230924E+03  0.12509000000E+03 0.  0.
         25    1    3    3    0    0 -0.68823805991E+02  0.17071366321E+02 -0.11062668942E+03  0.18142194005E+03  0.12509000000E+03 0.  0.
         25    1    4    4    0    0  0.10332294577E+02  0.12107312340E+02  0.11057154822E+02  0.12658243202E+03  0.12509000000E+03 0.  0.
<mgrwt>
<rscale>  2 0.43264136E+03</rscale>
<asrwt>0</asrwt>
<pdfrwt beam="1">  1       21 0.22955366E-01 0.43264136E+03</pdfrwt>
<pdfrwt beam="2">  1       21 0.44085322E-01 0.43264136E+03</pdfrwt>
<totfact> 0.82131636E+04</totfact>
</mgrwt>
</event>
<event>
 7    0  0.4770865E-002  0.4530017E+03  0.7546771E-02  0.1026831E+00
         21   -1    0    0  502  501  0.00000000000E+00  0.00000000000E+00  0.23459189697E+02  0.23459189697E+02  0.00000000000E+00 0. -1.
         21   -1    0    0  501  502 -0.00000000000E+00 -0.00000000000E+00 -0.21868885252E+04  0.21868885252E+04  0.00000000000E+00 0. -1.
      99926    2    1    2    0    0 -0.35527136788E-14  0.00000000000E+00 -0.21634293355E+04  0.22103477149E+04  0.45300168989E+03 0.  0.
      99925    2    3    3    0    0  0.81538832965E+01 -0.84047574946E+02 -0.17176879958E+04  0.17397488085E+04  0.26295129806E+03 0.  0.
         25    1    3    3    0    0 -0.81538832965E+01  0.84047574946E+02 -0.44574133969E+03  0.47059890637E+03  0.12509000000E+03 0.  0.
         25    1    4    4    0    0  0.40165638004E+02 -0.61614613264E+02 -0.89476221388E+03  0.90645273817E+03  0.12509000000E+03 0.  0.
         25    1    4    4    0    0 -0.32011754708E+02 -0.22432961682E+02 -0.82292578194E+03  0.83329607037E+03  0.12509000000E+03 0.  0.
<mgrwt>
<rscale>  2 0.45300169E+03</rscale>
<asrwt>0</asrwt>
<pdfrwt beam="1">  1       21 0.34498801E-02 0.45300169E+03</pdfrwt>
<pdfrwt beam="2">  1       21 0.32160132E+00 0.45300169E+03</pdfrwt>
<totfact> 0.10735323E+04</totfact>
</mgrwt>
</event>
<event>
 7    0  0.4770865E-002  0.4464825E+03  0.7546771E-02  0.1028776E+00
         21   -1    0    0  502  501  0.00000000000E+00  0.00000000000E+00  0.66558915422E+02  0.66558915422E+02  0.00000000000E+00 0. -1.
         21   -1    0    0  501  502 -0.00000000000E+00 -0.00000000000E+00 -0.74875999794E+03  0.74875999794E+03  0.00000000000E+00 0. -1.
      99926    2    1    2    0    0  0.00000000000E+00  0.00000000000E+00 -0.68220108252E+03  0.81531891336E+03  0.44648248957E+03 0.  0.
      99925    2    3    3    0    0  0.58647060288E+02  0.30951471456E+02 -0.58128379810E+03  0.64145322479E+03  0.26300934281E+03 0.  0.
         25    1    4    4    0    0  0.68805686788E+01 -0.98271940941E+00 -0.34781974026E+03  0.36969499290E+03  0.12509000000E+03 0.  0.
         25    1    3    3    0    0 -0.58647060288E+02 -0.30951471456E+02 -0.10091728442E+03  0.17386568857E+03  0.12509000000E+03 0.  0.
         25    1    4    4    0    0  0.51766491610E+02  0.31934190865E+02 -0.23346405784E+03  0.27175823189E+03  0.12509000000E+03 0.  0.
<mgrwt>
<rscale>  2 0.44648249E+03</rscale>
<asrwt>0</asrwt>
<pdfrwt beam="1">  1       21 0.97880757E-02 0.44648249E+03</pdfrwt>
<pdfrwt beam="2">  1       21 0.11011177E+00 0.44648249E+03</pdfrwt>
<totfact> 0.50312099E+04</totfact>
</mgrwt>
</event>
<event>
 7    0  0.4770865E-002  0.4531667E+03  0.7546771E-02  0.1026782E+00
         21   -1    0    0  502  501  0.00000000000E+00  0.00000000000E+00  0.25945035723E+03  0.25945035723E+03  0.00000000000E+00 0.  1.
         21   -1    0    0  501  502 -0.00000000000E+00 -0.00000000000E+00 -0.19787991881E+03  0.19787991881E+03  0.00000000000E+00 0.  1.
      99926    2    1    2    0    0 -0.35527136788E-14  0.00000000000E+00  0.61570438418E+02  0.45733027603E+03  0.45316670497E+03 0.  0.
      99925    2    3    3    0    0  0.23704399860E+02 -0.84995206333E+02  0.10868224923E+03  0.29716437926E+03  0.26212354593E+03 0.  0.
         25    1    4    4    0    0  0.19862346983E+02 -0.60877000806E+02  0.93547883150E+02  0.16881716914E+03  0.12509000000E+03 0.  0.
         25    1    3    3    0    0 -0.23704399860E+02  0.84995206333E+02 -0.47111810813E+02  0.16016589678E+03  0.12509000000E+03 0.  0.
         25    1    4    4    0    0  0.38420528766E+01 -0.24118205527E+02  0.15134366081E+02  0.12834721012E+03  0.12509000000E+03 0.  0.
<mgrwt>
<rscale>  2 0.45316670E+03</rscale>
<asrwt>0</asrwt>
<pdfrwt beam="1">  1       21 0.38154465E-01 0.45316670E+03</pdfrwt>
<pdfrwt beam="2">  1       21 0.29099988E-01 0.45316670E+03</pdfrwt>
<totfact> 0.69384445E+04</totfact>
</mgrwt>
</event>
<event>
 7    0  0.4770865E-002  0.4524576E+03  0.7546771E-02  0.1026992E+00
         21   -1    0    0  502  501  0.00000000000E+00  0.00000000000E+00  0.14547228572E+03  0.14547228572E+03  0.00000000000E+00 0. -1.
         21   -1    0    0  501  502 -0.00000000000E+00 -0.00000000000E+00 -0.35181587541E+03  0.35181587541E+03  0.00000000000E+00 0. -1.
      99926    2    1    2    0    0  0.71054273576E-14  0.00000000000E+00 -0.20634358969E+03  0.49728816112E+03  0.45245755402E+03 0.  0.
      99925    2    3    3    0    0  0.32585250873E+02 -0.69793446714E+01 -0.24612487024E+03  0.36186080714E+03  0.26316398342E+03 0.  0.
         25    1    3    3    0    0 -0.32585250873E+02  0.69793446714E+01  0.39781280542E+02  0.13542735399E+03  0.12509000000E+03 0.  0.
         25    1    4    4    0    0 -0.20296943591E+02  0.61858614061E+01 -0.96810158083E+02  0.15959306253E+03  0.12509000000E+03 0.  0.
         25    1    4    4    0    0  0.52882194464E+02 -0.13165206077E+02 -0.14931471215E+03  0.20226774461E+03  0.12509000000E+03 0.  0.
<mgrwt>
<rscale>  2 0.45245755E+03</rscale>
<asrwt>0</asrwt>
<pdfrwt beam="1">  1       21 0.21392984E-01 0.45245755E+03</pdfrwt>
<pdfrwt beam="2">  1       21 0.51737628E-01 0.45245755E+03</pdfrwt>
<totfact> 0.66799631E+04</totfact>
</mgrwt>
</event>
<event>
 7    0  0.4770865E-002  0.4553136E+03  0.7546771E-02  0.1026149E+00
         21   -1    0    0  502  501  0.00000000000E+00  0.00000000000E+00  0.23856966819E+03  0.23856966819E+03  0.00000000000E+00 0. -1.
         21   -1    0    0  501  502 -0.00000000000E+00 -0.00000000000E+00 -0.21724308778E+03  0.21724308778E+03  0.00000000000E+00 0. -1.
      99926    2    1    2    0    0 -0.35527136788E-14 -0.14210854715E-13  0.21326580402E+02  0.45581275597E+03  0.45531356829E+03 0.  0.
      99925    2    3    3    0    0 -0.31559903298E+02  0.70494439497E+02 -0.69776855086E+02  0.28285947455E+03  0.26301174753E+03 0.  0.
         25    1    4    4    0    0 -0.23815766521E+02 -0.46788181710E+01 -0.23579419973E+02  0.12958618453E+03  0.12509000000E+03 0.  0.
         25    1    4    4    0    0 -0.77441367773E+01  0.75173257668E+02 -0.46197435113E+02  0.15327329002E+03  0.12509000000E+03 0.  0.
         25    1    3    3    0    0  0.31559903298E+02 -0.70494439497E+02  0.91103435488E+02  0.17295328142E+03  0.12509000000E+03 0.  0.
<mgrwt>
<rscale>  2 0.45531357E+03</rscale>
<asrwt>0</asrwt>
<pdfrwt beam="1">  1       21 0.35083775E-01 0.45531357E+03</pdfrwt>
<pdfrwt beam="2">  1       21 0.31947513E-01 0.45531357E+03</pdfrwt>
<totfact> 0.68315237E+04</totfact>
</mgrwt>
</event>
<event>
 7    0  0.4770865E-002  0.4482314E+03  0.7546771E-02  0.1028251E+00
         21   -1    0    0  502  501  0.00000000000E+00  0.00000000000E+00  0.98572334937E+02  0.98572334937E+02  0.00000000000E+00 0. -1.
         21   -1    0    0  501  502 -0.00000000000E+00 -0.00000000000E+00 -0.50955308050E+03  0.50955308050E+03  0.00000000000E+00 0. -1.
      99926    2    1    2    0    0  0.00000000000E+00  0.00000000000E+00 -0.41098074557E+03  0.60812541544E+03  0.44823135508E+03 0.  0.
      99925    2    3    3    0    0 -0.40191843396E+02 -0.98746820679E+02 -0.25440662963E+03  0.38112479705E+03  0.26299630958E+03 0.  0.
         25    1    4    4    0    0  0.19015928879E+02 -0.34151599930E+02 -0.11683792819E+03  0.17557490394E+03  0.12509000000E+03 0.  0.
         25    1    3    3    0    0  0.40191843396E+02  0.98746820679E+02 -0.15657411594E+03  0.22700061839E+03  0.12509000000E+03 0.  0.
         25    1    4    4    0    0 -0.59207772275E+02 -0.64595220749E+02 -0.13756870144E+03  0.20554989311E+03  0.12509000000E+03 0.  0.
<mgrwt>
<rscale>  2 0.44823136E+03</rscale>
<asrwt>0</asrwt>
<pdfrwt beam="1">  1       21 0.14495932E-01 0.44823136E+03</pdfrwt>
<pdfrwt beam="2">  1       21 0.74934276E-01 0.44823136E+03</pdfrwt>
<totfact> 0.61398362E+04</totfact>
</mgrwt>
</event>
<event>
 7    0  0.4770865E-002  0.4599531E+03  0.7546771E-02  0.1024795E+00
         21   -1    0    0  502  501  0.00000000000E+00  0.00000000000E+00  0.57591325931E+02  0.57591325931E+02  0.00000000000E+00 0. -1.
         21   -1    0    0  501  502 -0.00000000000E+00 -0.00000000000E+00 -0.91835385135E+03  0.91835385135E+03  0.00000000000E+00 0. -1.
      99926    2    1    2    0    0  0.00000000000E+00  0.00000000000E+00 -0.86076252542E+03  0.97594517728E+03  0.45995311054E+03 0.  0.
      99925    2    3    3    0    0  0.99213031825E+02  0.60326509386E+02 -0.49839733744E+03  0.57539736369E+03  0.26305837137E+03 0.  0.
         25    1    4    4    0    0  0.63295738003E+02  0.92662536151E+01 -0.31395970631E+03  0.34396281658E+03  0.12509000000E+03 0.  0.
         25    1    4    4    0    0  0.35917293822E+02  0.51060255771E+02 -0.18443763113E+03  0.23143454710E+03  0.12509000000E+03 0.  0.
         25    1    3    3    0    0 -0.99213031825E+02 -0.60326509386E+02 -0.36236518798E+03  0.40054781360E+03  0.12509000000E+03 0.  0.
<mgrwt>
<rscale>  2 0.45995311E+03</rscale>
<asrwt>0</asrwt>
<pdfrwt beam="1">  1       21 0.84693134E-02 0.45995311E+03</pdfrwt>
<pdfrwt beam="2">  1       21 0.13505203E+00 0.45995311E+03</pdfrwt>
<totfact> 0.38591538E+04</totfact>
</mgrwt>
</event>
<event>
 7    0  0.4770865E-002  0.4551257E+03  0.7546771E-02  0.1026204E+00
         21   -1    0    0  502  501  0.00000000000E+00  0.00000000000E+00  0.39724125202E+03  0.39724125202E+03  0.00000000000E+00 0. -1.
         21   -1    0    0  501  502 -0.00000000000E+00 -0.00000000000E+00 -0.13036120788E+03  0.13036120788E+03  0.00000000000E+00 0. -1.
      99926    2    1    2    0    0  0.14210854715E-13  0.00000000000E+00  0.26688004414E+03  0.52760245990E+03  0.45512569444E+03 0.  0.
      99925    2    3    3    0    0  0.63839415738E+02 -0.67959911942E+02  0.24242156264E+03  0.36967923156E+03  0.26305987832E+03 0.  0.
         25    1    4    4    0    0  0.68706062529E+02 -0.37321729604E+02  0.10363204316E+03  0.18027906977E+03  0.12509000000E+03 0.  0.
         25    1    4    4    0    0 -0.48666467910E+01 -0.30638182339E+02  0.13878951948E+03  0.18940016179E+03  0.12509000000E+03 0.  0.
         25    1    3    3    0    0 -0.63839415738E+02  0.67959911942E+02  0.24458481499E+02  0.15792322834E+03  0.12509000000E+03 0.  0.
<mgrwt>
<rscale>  2 0.45512569E+03</rscale>
<asrwt>0</asrwt>
<pdfrwt beam="1">  1       21 0.58417831E-01 0.45512569E+03</pdfrwt>
<pdfrwt beam="2">  1       21 0.19170766E-01 0.45512569E+03</pdfrwt>
<totfact> 0.63306033E+04</totfact>
</mgrwt>
</event>
<event>
 7    0  0.4770865E-002  0.4590033E+03  0.7546771E-02  0.1025071E+00
         21   -1    0    0  502  501  0.00000000000E+00  0.00000000000E+00  0.11339431349E+03  0.11339431349E+03  0.00000000000E+00 0. -1.
         21   -1    0    0  501  502 -0.00000000000E+00 -0.00000000000E+00 -0.46449433192E+03  0.46449433192E+03  0.00000000000E+00 0. -1.
      99926    2    1    2    0    0  0.00000000000E+00  0.00000000000E+00 -0.35110001843E+03  0.57788864541E+03  0.45900333719E+03 0.  0.
      99925    2    3    3    0    0  0.82378721061E+02  0.49701739867E+02 -0.30374227335E+03  0.41312584394E+03  0.26297733302E+03 0.  0.
         25    1    3    3    0    0 -0.82378721061E+02 -0.49701739867E+02 -0.47357745086E+02  0.16476280147E+03  0.12509000000E+03 0.  0.
         25    1    4    4    0    0  0.53752574142E+02  0.12366106342E+02 -0.20728521796E+03  0.24830813418E+03  0.12509000000E+03 0.  0.
         25    1    4    4    0    0  0.28626146919E+02  0.37335633525E+02 -0.96457055386E+02  0.16481770976E+03  0.12509000000E+03 0.  0.
<mgrwt>
<rscale>  2 0.45900334E+03</rscale>
<asrwt>0</asrwt>
<pdfrwt beam="1">  1       21 0.16675635E-01 0.45900334E+03</pdfrwt>
<pdfrwt beam="2">  1       21 0.68307989E-01 0.45900334E+03</pdfrwt>
<totfact> 0.58196360E+04</totfact>
</mgrwt>
</event>
<event>
 7    0  0.4770865E-002  0.4534455E+03  0.7546771E-02  0.1026700E+00
         21   -1    0    0  502  501  0.00000000000E+00  0.00000000000E+00  0.23110654331E+03  0.23110654331E+03  0.00000000000E+00 0.  1.
         21   -1    0    0  501  502 -0.00000000000E+00 -0.00000000000E+00 -0.22242215946E+03  0.22242215946E+03  0.00000000000E+00 0.  1.
      99926    2    1    2    0    0  0.00000000000E+00  0.00000000000E+00  0.86843838425E+01  0.45352870277E+03  0.45344554879E+03 0.  0.
      99925    2    3    3    0    0 -0.95769702805E+02 -0.53378940885E+02 -0.15514010499E+02  0.28543879322E+03  0.26308453555E+03 0.  0.
         25    1    4    4    0    0 -0.85403146354E+02 -0.12915311023E+02 -0.20933007120E+02  0.15344771602E+03  0.12509000000E+03 0.  0.
         25    1    4    4    0    0 -0.10366556452E+02 -0.40463629862E+02  0.54189966213E+01  0.13199107719E+03  0.12509000000E+03 0.  0.
         25    1    3    3    0    0  0.95769702805E+02  0.53378940885E+02  0.24198394342E+02  0.16808990955E+03  0.12509000000E+03 0.  0.
<mgrwt>
<rscale>  2 0.45344555E+03</rscale>
<asrwt>0</asrwt>
<pdfrwt beam="1">  1       21 0.33986257E-01 0.45344555E+03</pdfrwt>
<pdfrwt beam="2">  1       21 0.32709141E-01 0.45344555E+03</pdfrwt>
<totfact> 0.69511871E+04</totfact>
</mgrwt>
</event>
<event>
 7    0  0.4770865E-002  0.4522769E+03  0.7546771E-02  0.1027045E+00
         21   -1    0    0  502  501  0.00000000000E+00  0.00000000000E+00  0.34537662217E+03  0.34537662217E+03  0.00000000000E+00 0.  1.
         21   -1    0    0  501  502 -0.00000000000E+00 -0.00000000000E+00 -0.14806619866E+03  0.14806619866E+03  0.00000000000E+00 0.  1.
      99926    2    1    2    0    0  0.00000000000E+00  0.00000000000E+00  0.19731042351E+03  0.49344282082E+03  0.45227692203E+03 0.  0.
      99925    2    3    3    0    0  0.94480401690E+02 -0.36804513586E+02  0.17382637805E+03  0.33071566570E+03  0.26244260955E+03 0.  0.
         25    1    4    4    0    0  0.57022602634E+02 -0.50348080058E+02  0.11809652383E+03  0.18809785596E+03  0.12509000000E+03 0.  0.
         25    1    4    4    0    0  0.37457799056E+02  0.13543566472E+02  0.55729854219E+02  0.14261780974E+03  0.12509000000E+03 0.  0.
         25    1    3    3    0    0 -0.94480401690E+02  0.36804513586E+02  0.23484045456E+02  0.16272715512E+03  0.12509000000E+03 0.  0.
<mgrwt>
<rscale>  2 0.45227692E+03</rscale>
<asrwt>0</asrwt>
<pdfrwt beam="1">  1       21 0.50790680E-01 0.45227692E+03</pdfrwt>
<pdfrwt beam="2">  1       21 0.21774441E-01 0.45227692E+03</pdfrwt>
<totfact> 0.67174237E+04</totfact>
</mgrwt>
</event>
<event>
 7    0  0.4770865E-002  0.4540554E+03  0.7546771E-02  0.1026520E+00
         21   -1    0    0  502  501  0.00000000000E+00  0.00000000000E+00  0.69702671710E+02  0.69702671710E+02  0.00000000000E+00 0.  1.
         21   -1    0    0  501  502 -0.00000000000E+00 -0.00000000000E+00 -0.73944898483E+03  0.73944898483E+03  0.00000000000E+00 0.  1.
      99926    2    1    2    0    0 -0.14210854715E-13  0.35527136788E-14 -0.66974631312E+03  0.80915165654E+03  0.45405537035E+03 0.  0.
      99925    2    3    3    0    0 -0.63407371563E+02 -0.18044298911E+02 -0.26003340933E+03  0.37572546545E+03  0.26307063676E+03 0.  0.
         25    1    4    4    0    0 -0.12462287325E+02  0.23757437919E+02 -0.14568814326E+03  0.19388725499E+03  0.12509000000E+03 0.  0.
         25    1    3    3    0    0  0.63407371563E+02  0.18044298911E+02 -0.40971290378E+03  0.43342619109E+03  0.12509000000E+03 0.  0.
         25    1    4    4    0    0 -0.50945084239E+02 -0.41801736830E+02 -0.11434526608E+03  0.18183821046E+03  0.12509000000E+03 0.  0.
<mgrwt>
<rscale>  2 0.45405537E+03</rscale>
<asrwt>0</asrwt>
<pdfrwt beam="1">  1       21 0.10250393E-01 0.45405537E+03</pdfrwt>
<pdfrwt beam="2">  1       21 0.10874250E+00 0.45405537E+03</pdfrwt>
<totfact> 0.47677781E+04</totfact>
</mgrwt>
</event>
<event>
 7    0  0.4770865E-002  0.4551130E+03  0.7546771E-02  0.1026208E+00
         21   -1    0    0  502  501  0.00000000000E+00  0.00000000000E+00  0.13642699272E+03  0.13642699272E+03  0.00000000000E+00 0. -1.
         21   -1    0    0  501  502 -0.00000000000E+00 -0.00000000000E+00 -0.37955804515E+03  0.37955804515E+03  0.00000000000E+00 0. -1.
      99926    2    1    2    0    0  0.00000000000E+00  0.00000000000E+00 -0.24313105243E+03  0.51598503787E+03  0.45511300866E+03 0.  0.
      99925    2    3    3    0    0  0.54772557014E+02 -0.15204306816E+02 -0.26404849101E+03  0.37700212063E+03  0.26301670937E+03 0.  0.
         25    1    3    3    0    0 -0.54772557014E+02  0.15204306816E+02  0.20917438582E+02  0.13898291724E+03  0.12509000000E+03 0.  0.
         25    1    4    4    0    0  0.54547840154E+02 -0.37198855192E+02 -0.15201313070E+03  0.20764084786E+03  0.12509000000E+03 0.  0.
         25    1    4    4    0    0  0.22471686008E+00  0.21994548376E+02 -0.11203536031E+03  0.16936127277E+03  0.12509000000E+03 0.  0.
<mgrwt>
<rscale>  2 0.45511301E+03</rscale>
<asrwt>0</asrwt>
<pdfrwt beam="1">  1       21 0.20062793E-01 0.45511301E+03</pdfrwt>
<pdfrwt beam="2">  1       21 0.55817358E-01 0.45511301E+03</pdfrwt>
<totfact> 0.64104138E+04</totfact>
</mgrwt>
</event>
<event>
 7    0  0.4770865E-002  0.4517048E+03  0.7546771E-02  0.1027215E+00
         21   -1    0    0  502  501  0.00000000000E+00  0.00000000000E+00  0.42316861805E+02  0.42316861805E+02  0.00000000000E+00 0.  1.
         21   -1    0    0  501  502 -0.00000000000E+00 -0.00000000000E+00 -0.12054132910E+04  0.12054132910E+04  0.00000000000E+00 0.  1.
      99926    2    1    2    0    0 -0.71054273576E-14  0.00000000000E+00 -0.11630964292E+04  0.12477301528E+04  0.45170480473E+03 0.  0.
      99925    2    3    3    0    0 -0.28387967349E+02  0.85108177338E+02 -0.91009006369E+03  0.95157308700E+03  0.26301737081E+03 0.  0.
         25    1    4    4    0    0 -0.48043159528E+02  0.25633906448E+02 -0.49994901474E+03  0.51822945476E+03  0.12509000000E+03 0.  0.
         25    1    4    4    0    0  0.19655192179E+02  0.59474270890E+02 -0.41014104895E+03  0.43334363225E+03  0.12509000000E+03 0.  0.
         25    1    3    3    0    0  0.28387967349E+02 -0.85108177338E+02 -0.25300636554E+03  0.29615706583E+03  0.12509000000E+03 0.  0.
<mgrwt>
<rscale>  2 0.45170480E+03</rscale>
<asrwt>0</asrwt>
<pdfrwt beam="1">  1       21 0.62230688E-02 0.45170480E+03</pdfrwt>
<pdfrwt beam="2">  1       21 0.17726664E+00 0.45170480E+03</pdfrwt>
<totfact> 0.31470855E+04</totfact>
</mgrwt>
</event>
<event>
 7    0  0.4770865E-002  0.4193030E+03  0.7546771E-02  0.1037293E+00
         21   -1    0    0  502  501  0.00000000000E+00  0.00000000000E+00  0.33266093751E+02  0.33266093751E+02  0.00000000000E+00 0.  1.
         21   -1    0    0  501  502 -0.00000000000E+00 -0.00000000000E+00 -0.13212776469E+04  0.13212776469E+04  0.00000000000E+00 0.  1.
      99926    2    1    2    0    0  0.00000000000E+00 -0.71054273576E-14 -0.12880115531E+04  0.13545437407E+04  0.41930297434E+03 0.  0.
      99925    2    3    3    0    0 -0.48858683569E+02 -0.53255872052E+02 -0.90474915597E+03  0.94495744686E+03  0.26296422244E+03 0.  0.
         25    1    4    4    0    0 -0.22796709006E+02 -0.27725612309E+02 -0.59227326094E+03  0.60640211349E+03  0.12509000000E+03 0.  0.
         25    1    4    4    0    0 -0.26061974563E+02 -0.25530259743E+02 -0.31247589503E+03  0.33855533337E+03  0.12509000000E+03 0.  0.
         25    1    3    3    0    0  0.48858683569E+02  0.53255872052E+02 -0.38326239718E+03  0.40958629379E+03  0.12509000000E+03 0.  0.
<mgrwt>
<rscale>  2 0.41930297E+03</rscale>
<asrwt>0</asrwt>
<pdfrwt beam="1">  1       21 0.48920736E-02 0.41930297E+03</pdfrwt>
<pdfrwt beam="2">  1       21 0.19430550E+00 0.41930297E+03</pdfrwt>
<totfact> 0.36759594E+04</totfact>
</mgrwt>
</event>
<event>
 7    0  0.4770865E-002  0.4539200E+03  0.7546771E-02  0.1026559E+00
         21   -1    0    0  502  501  0.00000000000E+00  0.00000000000E+00  0.47014597229E+03  0.47014597229E+03  0.00000000000E+00 0.  1.
         21   -1    0    0  501  502 -0.00000000000E+00 -0.00000000000E+00 -0.10956350115E+03  0.10956350115E+03  0.00000000000E+00 0.  1.
      99926    2    1    2    0    0  0.00000000000E+00 -0.14210854715E-13  0.36058247114E+03  0.57970947344E+03  0.45391998756E+03 0.  0.
      99925    2    3    3    0    0 -0.17999223532E+02 -0.10887005249E+03  0.20161217817E+03  0.34928438252E+03  0.26301226039E+03 0.  0.
         25    1    3    3    0    0  0.17999223532E+02  0.10887005249E+03  0.15897029297E+03  0.23042509092E+03  0.12509000000E+03 0.  0.
         25    1    4    4    0    0 -0.41535493180E+02 -0.59986655985E+02  0.74406783825E+02  0.16281115953E+03  0.12509000000E+03 0.  0.
         25    1    4    4    0    0  0.23536269647E+02 -0.48883396501E+02  0.12720539434E+03  0.18647322299E+03  0.12509000000E+03 0.  0.
<mgrwt>
<rscale>  2 0.45391999E+03</rscale>
<asrwt>0</asrwt>
<pdfrwt beam="1">  1       21 0.69139113E-01 0.45391999E+03</pdfrwt>
<pdfrwt beam="2">  1       21 0.16112280E-01 0.45391999E+03</pdfrwt>
<totfact> 0.60459482E+04</totfact>
</mgrwt>
</event>
<event>
 7    0  0.4770865E-002  0.4459729E+03  0.7546771E-02  0.1028930E+00
         21   -1    0    0  502  501  0.00000000000E+00  0.00000000000E+00  0.67511337167E+02  0.67511337167E+02  0.00000000000E+00 0.  1.
         21   -1    0    0  501  502 -0.00000000000E+00 -0.00000000000E+00 -0.73651263790E+03  0.73651263790E+03  0.00000000000E+00 0.  1.
      99926    2    1    2    0    0  0.00000000000E+00  0.00000000000E+00 -0.66900130073E+03  0.80402397506E+03  0.44597288270E+03 0.  0.
      99925    2    3    3    0    0  0.37217766335E+02 -0.87139881858E+02 -0.34531986827E+03  0.44430783843E+03  0.26303064978E+03 0.  0.
         25    1    3    3    0    0 -0.37217766335E+02  0.87139881858E+02 -0.32368143245E+03  0.35971613664E+03  0.12509000000E+03 0.  0.
         25    1    4    4    0    0 -0.20177645481E+02 -0.44816351209E+02 -0.18721461212E+03  0.23046141066E+03  0.12509000000E+03 0.  0.
         25    1    4    4    0    0  0.57395411816E+02 -0.42323530648E+02 -0.15810525615E+03  0.21384642776E+03  0.12509000000E+03 0.  0.
<mgrwt>
<rscale>  2 0.44597288E+03</rscale>
<asrwt>0</asrwt>
<pdfrwt beam="1">  1       21 0.99281371E-02 0.44597288E+03</pdfrwt>
<pdfrwt beam="2">  1       21 0.10831069E+00 0.44597288E+03</pdfrwt>
<totfact> 0.51095434E+04</totfact>
</mgrwt>
</event>
<event>
 7    0  0.4770865E-002  0.4565673E+03  0.7546771E-02  0.1025782E+00
         21   -1    0    0  502  501  0.00000000000E+00  0.00000000000E+00  0.86828320219E+03  0.86828320219E+03  0.00000000000E+00 0. -1.
         21   -1    0    0  501  502 -0.00000000000E+00 -0.00000000000E+00 -0.60018929737E+02  0.60018929737E+02  0.00000000000E+00 0. -1.
      99926    2    1    2    0    0  0.00000000000E+00  0.00000000000E+00  0.80826427246E+03  0.92830213193E+03  0.45656731598E+03 0.  0.
      99925    2    3    3    0    0  0.76943380736E+02  0.84563045557E+02  0.51090202326E+03  0.58604052459E+03  0.26334659021E+03 0.  0.
         25    1    4    4    0    0  0.30904630668E+02  0.71113522481E+02  0.20766630375E+03  0.25452903781E+03  0.12509000000E+03 0.  0.
         25    1    3    3    0    0 -0.76943380736E+02 -0.84563045557E+02  0.29736224920E+03  0.34226160734E+03  0.12509000000E+03 0.  0.
         25    1    4    4    0    0  0.46038750068E+02  0.13449523075E+02  0.30323571951E+03  0.33151148678E+03  0.12509000000E+03 0.  0.
<mgrwt>
<rscale>  2 0.45656732E+03</rscale>
<asrwt>0</asrwt>
<pdfrwt beam="1">  1       21 0.12768870E+00 0.45656732E+03</pdfrwt>
<pdfrwt beam="2">  1       21 0.88263137E-02 0.45656732E+03</pdfrwt>
<totfact> 0.41520824E+04</totfact>
</mgrwt>
</event>
<event>
 7    0  0.4770865E-002  0.4459062E+03  0.7546771E-02  0.1028950E+00
         21   -1    0    0  502  501  0.00000000000E+00  0.00000000000E+00  0.30974719612E+03  0.30974719612E+03  0.00000000000E+00 0. -1.
         21   -1    0    0  501  502 -0.00000000000E+00 -0.00000000000E+00 -0.16047952764E+03  0.16047952764E+03  0.00000000000E+00 0. -1.
      99926    2    1    2    0    0 -0.71054273576E-14  0.00000000000E+00  0.14926766848E+03  0.47022672376E+03  0.44590619516E+03 0.  0.
      99925    2    3    3    0    0 -0.60472975741E+02  0.82696289864E+02  0.74207093437E+02  0.29196496348E+03  0.26313720761E+03 0.  0.
         25    1    4    4    0    0 -0.42311985873E+02  0.82199178347E+02  0.48926400984E+02  0.16305922201E+03  0.12509000000E+03 0.  0.
         25    1    3    3    0    0  0.60472975741E+02 -0.82696289864E+02  0.75060575044E+02  0.17826176028E+03  0.12509000000E+03 0.  0.
         25    1    4    4    0    0 -0.18160989868E+02  0.49711151661E+00  0.25280692453E+02  0.12890574147E+03  0.12509000000E+03 0.  0.
<mgrwt>
<rscale>  2 0.44590620E+03</rscale>
<asrwt>0</asrwt>
<pdfrwt beam="1">  1       21 0.45551058E-01 0.44590620E+03</pdfrwt>
<pdfrwt beam="2">  1       21 0.23599930E-01 0.44590620E+03</pdfrwt>
<totfact> 0.72512183E+04</totfact>
</mgrwt>
</event>
<event>
 7    0  0.4770865E-002  0.4641277E+03  0.7546771E-02  0.1023591E+00
         21   -1    0    0  502  501  0.00000000000E+00  0.00000000000E+00  0.55091966609E+03  0.55091966609E+03  0.00000000000E+00 0. -1.
         21   -1    0    0  501  502 -0.00000000000E+00 -0.00000000000E+00 -0.97752221606E+02  0.97752221606E+02  0.00000000000E+00 0. -1.
      99926    2    1    2    0    0  0.00000000000E+00 -0.71054273576E-14  0.45316744448E+03  0.64867188769E+03  0.46412766040E+03 0.  0.
      99925    2    3    3    0    0  0.11737059777E+03 -0.74784814991E+01  0.24070352949E+03  0.37550489082E+03  0.26312344824E+03 0.  0.
         25    1    4    4    0    0  0.55267843807E+02  0.34851522325E+02  0.10157784931E+03  0.17388136973E+03  0.12509000000E+03 0.  0.
         25    1    4    4    0    0  0.62102753962E+02 -0.42330003824E+02  0.13912568018E+03  0.20162352110E+03  0.12509000000E+03 0.  0.
         25    1    3    3    0    0 -0.11737059777E+03  0.74784814991E+01  0.21246391499E+03  0.27316699687E+03  0.12509000000E+03 0.  0.
<mgrwt>
<rscale>  2 0.46412766E+03</rscale>
<asrwt>0</asrwt>
<pdfrwt beam="1">  1       21 0.81017597E-01 0.46412766E+03</pdfrwt>
<pdfrwt beam="2">  1       21 0.14375327E-01 0.46412766E+03</pdfrwt>
<totfact> 0.51935567E+04</totfact>
</mgrwt>
</event>
<event>
 7    0  0.4770865E-002  0.4474517E+03  0.7546771E-02  0.1028485E+00
         21   -1    0    0  502  501  0.00000000000E+00  0.00000000000E+00  0.46556237805E+03  0.46556237805E+03  0.00000000000E+00 0.  1.
         21   -1    0    0  501  502 -0.00000000000E+00 -0.00000000000E+00 -0.10751136085E+03  0.10751136085E+03  0.00000000000E+00 0.  1.
      99926    2    1    2    0    0  0.00000000000E+00  0.14210854715E-13  0.35805101721E+03  0.57307373890E+03  0.44745165023E+03 0.  0.
      99925    2    3    3    0    0  0.68863659420E+02  0.79694991433E+02  0.21145921693E+03  0.35346007982E+03  0.26291734890E+03 0.  0.
         25    1    3    3    0    0 -0.68863659420E+02 -0.79694991433E+02  0.14659180027E+03  0.21961365908E+03  0.12509000000E+03 0.  0.
         25    1    4    4    0    0  0.36350430733E+02  0.44199963219E+02  0.15713038518E+03  0.20883595622E+03  0.12509000000E+03 0.  0.
         25    1    4    4    0    0  0.32513228686E+02  0.35495028214E+02  0.54328831753E+02  0.14462412360E+03  0.12509000000E+03 0.  0.
<mgrwt>
<rscale>  2 0.44745165E+03</rscale>
<asrwt>0</asrwt>
<pdfrwt beam="1">  1       21 0.68465055E-01 0.44745165E+03</pdfrwt>
<pdfrwt beam="2">  1       21 0.15810494E-01 0.44745165E+03</pdfrwt>
<totfact> 0.64108523E+04</totfact>
</mgrwt>
</event>
<event>
 7    0  0.4770865E-002  0.4725536E+03  0.7546771E-02  0.1021202E+00
         21   -1    0    0  502  501  0.00000000000E+00  0.00000000000E+00  0.41732636926E+03  0.41732636926E+03  0.00000000000E+00 0. -1.
         21   -1    0    0  501  502 -0.00000000000E+00 -0.00000000000E+00 -0.13377233296E+03  0.13377233296E+03  0.00000000000E+00 0. -1.
      99926    2    1    2    0    0  0.00000000000E+00  0.17763568394E-14  0.28355403630E+03  0.55109870223E+03  0.47255358225E+03 0.  0.
      99925    2    3    3    0    0 -0.12754246008E+03  0.92220174788E+01  0.19639149391E+03  0.35210889941E+03  0.26279066466E+03 0.  0.
         25    1    4    4    0    0 -0.57175890664E+02  0.44173493224E+02  0.93069622795E+02  0.17184249406E+03  0.12509000000E+03 0.  0.
         25    1    3    3    0    0  0.12754246008E+03 -0.92220174788E+01  0.87162542388E+02  0.19898980282E+03  0.12509000000E+03 0.  0.
         25    1    4    4    0    0 -0.70366569413E+02 -0.34951475745E+02  0.10332187112E+03  0.18026640535E+03  0.12509000000E+03 0.  0.
<mgrwt>
<rscale>  2 0.47255358E+03</rscale>
<asrwt>0</asrwt>
<pdfrwt beam="1">  1       21 0.61371525E-01 0.47255358E+03</pdfrwt>
<pdfrwt beam="2">  1       21 0.19672402E-01 0.47255358E+03</pdfrwt>
<totfact> 0.53903490E+04</totfact>
</mgrwt>
</event>
<event>
 7    0  0.4770865E-002  0.4548129E+03  0.7546771E-02  0.1026296E+00
         21   -1    0    0  502  501  0.00000000000E+00  0.00000000000E+00  0.57760203868E+02  0.57760203868E+02  0.00000000000E+00 0.  1.
         21   -1    0    0  501  502 -0.00000000000E+00 -0.00000000000E+00 -0.89531682493E+03  0.89531682493E+03  0.00000000000E+00 0.  1.
      99926    2    1    2    0    0  0.00000000000E+00  0.71054273576E-14 -0.83755662107E+03  0.95307702880E+03  0.45481285089E+03 0.  0.
      99925    2    3    3    0    0  0.94861281429E+02 -0.52956446186E+02 -0.59483408515E+03  0.65919816694E+03  0.26251016463E+03 0.  0.
         25    1    3    3    0    0 -0.94861281429E+02  0.52956446186E+02 -0.24272253592E+03  0.29387886186E+03  0.12509000000E+03 0.  0.
         25    1    4    4    0    0  0.18981425345E+02  0.38533898589E+01 -0.24485581700E+03  0.27563929753E+03  0.12509000000E+03 0.  0.
         25    1    4    4    0    0  0.75879856084E+02 -0.56809836045E+02 -0.34997826815E+03  0.38355886941E+03  0.12509000000E+03 0.  0.
<mgrwt>
<rscale>  2 0.45481285E+03</rscale>
<asrwt>0</asrwt>
<pdfrwt beam="1">  1       21 0.84941484E-02 0.45481285E+03</pdfrwt>
<pdfrwt beam="2">  1       21 0.13166423E+00 0.45481285E+03</pdfrwt>
<totfact> 0.41076550E+04</totfact>
</mgrwt>
</event>
<event>
 7    0  0.4770865E-002  0.4547049E+03  0.7546771E-02  0.1026328E+00
         21   -1    0    0  502  501  0.00000000000E+00  0.00000000000E+00  0.37112747378E+03  0.37112747378E+03  0.00000000000E+00 0. -1.
         21   -1    0    0  501  502 -0.00000000000E+00 -0.00000000000E+00 -0.13927597224E+03  0.13927597224E+03  0.00000000000E+00 0. -1.
      99926    2    1    2    0    0  0.71054273576E-14  0.00000000000E+00  0.23185150154E+03  0.51040344602E+03  0.45470491414E+03 0.  0.
      99925    2    3    3    0    0 -0.40987957112E+02 -0.83277597468E+02  0.21818831245E+03  0.35404052937E+03  0.26291326684E+03 0.  0.
         25    1    4    4    0    0 -0.16804682688E+01 -0.72074126746E+02  0.13921908863E+03  0.20056661352E+03  0.12509000000E+03 0.  0.
         25    1    4    4    0    0 -0.39307488843E+02 -0.11203470721E+02  0.78969223815E+02  0.15347391585E+03  0.12509000000E+03 0.  0.
         25    1    3    3    0    0  0.40987957112E+02  0.83277597468E+02  0.13663189089E+02  0.15636291665E+03  0.12509000000E+03 0.  0.
<mgrwt>
<rscale>  2 0.45470491E+03</rscale>
<asrwt>0</asrwt>
<pdfrwt beam="1">  1       21 0.54577569E-01 0.45470491E+03</pdfrwt>
<pdfrwt beam="2">  1       21 0.20481761E-01 0.45470491E+03</pdfrwt>
<totfact> 0.64697172E+04</totfact>
</mgrwt>
</event>
<event>
 7    0  0.4770865E-002  0.4302016E+03  0.7546771E-02  0.1033796E+00
         21   -1    0    0  502  501  0.00000000000E+00  0.00000000000E+00  0.14354266722E+03  0.14354266722E+03  0.00000000000E+00 0. -1.
         21   -1    0    0  501  502 -0.00000000000E+00 -0.00000000000E+00 -0.32233171794E+03  0.32233171794E+03  0.00000000000E+00 0. -1.
      99926    2    1    2    0    0 -0.71054273576E-14  0.71054273576E-14 -0.17878905072E+03  0.46587438515E+03  0.43020160168E+03 0.  0.
      99925    2    3    3    0    0 -0.53745008482E+02  0.55968429686E+02 -0.70579127477E+02  0.28317822579E+03  0.26303517496E+03 0.  0.
         25    1    4    4    0    0  0.10398146420E+02  0.21078951816E+02 -0.50586074778E+02  0.13696314366E+03  0.12509000000E+03 0.  0.
         25    1    4    4    0    0 -0.64143154902E+02  0.34889477869E+02 -0.19993052699E+02  0.14621508213E+03  0.12509000000E+03 0.  0.
         25    1    3    3    0    0  0.53745008482E+02 -0.55968429686E+02 -0.10820992325E+03  0.18269615937E+03  0.12509000000E+03 0.  0.
<mgrwt>
<rscale>  2 0.43020160E+03</rscale>
<asrwt>0</asrwt>
<pdfrwt beam="1">  1       21 0.21109215E-01 0.43020160E+03</pdfrwt>
<pdfrwt beam="2">  1       21 0.47401724E-01 0.43020160E+03</pdfrwt>
<totfact> 0.82897292E+04</totfact>
</mgrwt>
</event>
<event>
 7    0  0.4770865E-002  0.4639893E+03  0.7546771E-02  0.1023631E+00
         21   -1    0    0  502  501  0.00000000000E+00  0.00000000000E+00  0.77062314067E+02  0.77062314067E+02  0.00000000000E+00 0. -1.
         21   -1    0    0  501  502 -0.00000000000E+00 -0.00000000000E+00 -0.69841547391E+03  0.69841547391E+03  0.00000000000E+00 0. -1.
      99926    2    1    2    0    0  0.00000000000E+00  0.00000000000E+00 -0.62135315984E+03  0.77547778797E+03  0.46398927832E+03 0.  0.
      99925    2    3    3    0    0  0.22406641927E+02  0.10441738918E+03 -0.29088046904E+03  0.40633722365E+03  0.26285631681E+03 0.  0.
         25    1    4    4    0    0  0.46421443266E+02  0.40985658152E+02 -0.16721217433E+03  0.21781229055E+03  0.12509000000E+03 0.  0.
         25    1    4    4    0    0 -0.24014801339E+02  0.63431731029E+02 -0.12366829471E+03  0.18852493310E+03  0.12509000000E+03 0.  0.
         25    1    3    3    0    0 -0.22406641927E+02 -0.10441738918E+03 -0.33047269080E+03  0.36914056432E+03  0.12509000000E+03 0.  0.
<mgrwt>
<rscale>  2 0.46398928E+03</rscale>
<asrwt>0</asrwt>
<pdfrwt beam="1">  1       21 0.11332695E-01 0.46398928E+03</pdfrwt>
<pdfrwt beam="2">  1       21 0.10270814E+00 0.46398928E+03</pdfrwt>
<totfact> 0.45665332E+04</totfact>
</mgrwt>
</event>
<event>
 7    0  0.4770865E-002  0.4478616E+03  0.7546771E-02  0.1028362E+00
         21   -1    0    0  502  501  0.00000000000E+00  0.00000000000E+00  0.23399623146E+02  0.23399623146E+02  0.00000000000E+00 0. -1.
         21   -1    0    0  501  502 -0.00000000000E+00 -0.00000000000E+00 -0.21429834725E+04  0.21429834725E+04  0.00000000000E+00 0. -1.
      99926    2    1    2    0    0 -0.35527136788E-14 -0.71054273576E-14 -0.21195838494E+04  0.21663830957E+04  0.44786161106E+03 0.  0.
      99925    2    3    3    0    0 -0.31823380996E+02 -0.50026176415E+02 -0.91417708599E+03  0.95305366010E+03  0.26282349319E+03 0.  0.
         25    1    4    4    0    0 -0.29476020302E+02  0.10810829998E+02 -0.48737305650E+03  0.50414850403E+03  0.12509000000E+03 0.  0.
         25    1    4    4    0    0 -0.23473606940E+01 -0.60837006413E+02 -0.42680402949E+03  0.44890515607E+03  0.12509000000E+03 0.  0.
         25    1    3    3    0    0  0.31823380996E+02  0.50026176415E+02 -0.12054067634E+04  0.12133294356E+04  0.12509000000E+03 0.  0.
<mgrwt>
<rscale>  2 0.44786161E+03</rscale>
<asrwt>0</asrwt>
<pdfrwt beam="1">  1       21 0.34411205E-02 0.44786161E+03</pdfrwt>
<pdfrwt beam="2">  1       21 0.31514468E+00 0.44786161E+03</pdfrwt>
<totfact> 0.11820432E+04</totfact>
</mgrwt>
</event>
<event>
 7    0  0.4770865E-002  0.4590772E+03  0.7546771E-02  0.1025049E+00
         21   -1    0    0  502  501  0.00000000000E+00  0.00000000000E+00  0.10344222617E+04  0.10344222617E+04  0.00000000000E+00 0.  1.
         21   -1    0    0  501  502 -0.00000000000E+00 -0.00000000000E+00 -0.50934673331E+02  0.50934673331E+02  0.00000000000E+00 0.  1.
      99926    2    1    2    0    0 -0.35527136788E-14  0.14210854715E-13  0.98348758834E+03  0.10853569350E+04  0.45907716120E+03 0.  0.
      99925    2    3    3    0    0 -0.29205891734E+02  0.11326914691E+03  0.62416578956E+03  0.68730851215E+03  0.26292047137E+03 0.  0.
         25    1    3    3    0    0  0.29205891734E+02 -0.11326914691E+03  0.35932179878E+03  0.39804842285E+03  0.12509000000E+03 0.  0.
         25    1    4    4    0    0 -0.37602787839E+02  0.39717900509E+02  0.23357043243E+03  0.27054414848E+03  0.12509000000E+03 0.  0.
         25    1    4    4    0    0  0.83968961048E+01  0.73551246401E+02  0.39059535713E+03  0.41676436367E+03  0.12509000000E+03 0.  0.
<mgrwt>
<rscale>  2 0.45907716E+03</rscale>
<asrwt>0</asrwt>
<pdfrwt beam="1">  1       21 0.15212091E+00 0.45907716E+03</pdfrwt>
<pdfrwt beam="2">  1       21 0.74903938E-02 0.45907716E+03</pdfrwt>
<totfact> 0.34883182E+04</totfact>
</mgrwt>
</event>
<event>
 7    0  0.4770865E-002  0.4182900E+03  0.7546771E-02  0.1037624E+00
         21   -1    0    0  502  501  0.00000000000E+00  0.00000000000E+00  0.13353970456E+04  0.13353970456E+04  0.00000000000E+00 0.  1.
         21   -1    0    0  501  502 -0.00000000000E+00 -0.00000000000E+00 -0.32755529198E+02  0.32755529198E+02  0.00000000000E+00 0.  1.
      99926    2    1    2    0    0  0.00000000000E+00  0.00000000000E+00  0.13026415164E+04  0.13681525748E+04  0.41829002818E+03 0.  0.
      99925    2    3    3    0    0  0.21526398505E+02  0.33366804293E+00  0.61960207418E+03  0.67341961539E+03  0.26291396100E+03 0.  0.
         25    1    4    4    0    0 -0.12271653496E+02  0.28961074190E+02  0.34796774530E+03  0.37110429419E+03  0.12509000000E+03 0.  0.
         25    1    3    3    0    0 -0.21526398505E+02 -0.33366804293E+00  0.68303944223E+03  0.69473295942E+03  0.12509000000E+03 0.  0.
         25    1    4    4    0    0  0.33798052002E+02 -0.28627406148E+02  0.27163432888E+03  0.30231532120E+03  0.12509000000E+03 0.  0.
<mgrwt>
<rscale>  2 0.41829003E+03</rscale>
<asrwt>0</asrwt>
<pdfrwt beam="1">  1       21 0.19638188E+00 0.41829003E+03</pdfrwt>
<pdfrwt beam="2">  1       21 0.48169905E-02 0.41829003E+03</pdfrwt>
<totfact> 0.36566523E+04</totfact>
</mgrwt>
</event>
<event>
 7    0  0.4770865E-002  0.4122113E+03  0.7546771E-02  0.1039631E+00
         21   -1    0    0  502  501  0.00000000000E+00  0.00000000000E+00  0.71704188638E+02  0.71704188638E+02  0.00000000000E+00 0. -1.
         21   -1    0    0  501  502 -0.00000000000E+00 -0.00000000000E+00 -0.59242758183E+03  0.59242758183E+03  0.00000000000E+00 0. -1.
      99926    2    1    2    0    0  0.00000000000E+00  0.44408920985E-15 -0.52072339319E+03  0.66413177046E+03  0.41221130058E+03 0.  0.
      99925    2    3    3    0    0 -0.47577956992E+02  0.34068994241E+01 -0.41448667460E+03  0.49322531233E+03  0.26305272541E+03 0.  0.
         25    1    4    4    0    0 -0.38649062339E+02 -0.37433373832E+01 -0.28045892317E+03  0.30953590791E+03  0.12509000000E+03 0.  0.
         25    1    4    4    0    0 -0.89288946536E+01  0.71502368073E+01 -0.13402775143E+03  0.18368940443E+03  0.12509000000E+03 0.  0.
         25    1    3    3    0    0  0.47577956992E+02 -0.34068994241E+01 -0.10623671858E+03  0.17090645813E+03  0.12509000000E+03 0.  0.
<mgrwt>
<rscale>  2 0.41221130E+03</rscale>
<asrwt>0</asrwt>
<pdfrwt beam="1">  1       21 0.10544733E-01 0.41221130E+03</pdfrwt>
<pdfrwt beam="2">  1       21 0.87121705E-01 0.41221130E+03</pdfrwt>
<totfact> 0.78065155E+04</totfact>
</mgrwt>
</event>
<event>
 7    0  0.4770865E-002  0.4435892E+03  0.7546771E-02  0.1029651E+00
         21   -1    0    0  502  501  0.00000000000E+00  0.00000000000E+00  0.47697173498E+03  0.47697173498E+03  0.00000000000E+00 0. -1.
         21   -1    0    0  501  502 -0.00000000000E+00 -0.00000000000E+00 -0.10313575428E+03  0.10313575428E+03  0.00000000000E+00 0. -1.
      99926    2    1    2    0    0  0.00000000000E+00  0.00000000000E+00  0.37383598069E+03  0.58010748926E+03  0.44358917777E+03 0.  0.
      99925    2    3    3    0    0 -0.70838218458E+02 -0.18115801797E+02  0.33100552876E+03  0.42901747906E+03  0.26295456224E+03 0.  0.
         25    1    3    3    0    0  0.70838218458E+02  0.18115801797E+02  0.42830451936E+02  0.15109001020E+03  0.12509000000E+03 0.  0.
         25    1    4    4    0    0 -0.19703260744E+02 -0.27624833643E+02  0.11099060056E+03  0.17063930213E+03  0.12509000000E+03 0.  0.
         25    1    4    4    0    0 -0.51134957715E+02  0.95090318455E+01  0.22001492819E+03  0.25837817693E+03  0.12509000000E+03 0.  0.
<mgrwt>
<rscale>  2 0.44358918E+03</rscale>
<asrwt>0</asrwt>
<pdfrwt beam="1">  1       21 0.70142902E-01 0.44358918E+03</pdfrwt>
<pdfrwt beam="2">  1       21 0.15167023E-01 0.44358918E+03</pdfrwt>
<totfact> 0.65643867E+04</totfact>
</mgrwt>
</event>
<event>
 7    0  0.4770865E-002  0.4534017E+03  0.7546771E-02  0.1026712E+00
         21   -1    0    0  502  501  0.00000000000E+00  0.00000000000E+00  0.78132177427E+03  0.78132177427E+03  0.00000000000E+00 0.  1.
         21   -1    0    0  501  502 -0.00000000000E+00 -0.00000000000E+00 -0.65777337695E+02  0.65777337695E+02  0.00000000000E+00 0.  1.
      99926    2    1    2    0    0  0.17763568394E-14  0.14210854715E-13  0.71554443657E+03  0.84709911196E+03  0.45340165943E+03 0.  0.
      99925    2    3    3    0    0  0.76291515389E+01  0.67000437325E+02  0.28429690259E+03  0.39304051858E+03  0.26288563649E+03 0.  0.
         25    1    4    4    0    0  0.28108808591E+02  0.40204286413E+00  0.13389689527E+03  0.18538110320E+03  0.12509000000E+03 0.  0.
         25    1    3    3    0    0 -0.76291515389E+01 -0.67000437325E+02  0.43124753398E+03  0.45405859338E+03  0.12509000000E+03 0.  0.
         25    1    4    4    0    0 -0.20479657052E+02  0.66598394461E+02  0.15040000732E+03  0.20765941539E+03  0.12509000000E+03 0.  0.
<mgrwt>
<rscale>  2 0.45340166E+03</rscale>
<asrwt>0</asrwt>
<pdfrwt beam="1">  1       21 0.11490026E+00 0.45340166E+03</pdfrwt>
<pdfrwt beam="2">  1       21 0.96731383E-02 0.45340166E+03</pdfrwt>
<totfact> 0.46145308E+04</totfact>
</mgrwt>
</event>
<event>
 7    0  0.4770865E-002  0.4564191E+03  0.7546771E-02  0.1025825E+00
         21   -1    0    0  502  501  0.00000000000E+00  0.00000000000E+00  0.86910339898E+02  0.86910339898E+02  0.00000000000E+00 0. -1.
         21   -1    0    0  501  502 -0.00000000000E+00 -0.00000000000E+00 -0.59923371308E+03  0.59923371308E+03  0.00000000000E+00 0. -1.
      99926    2    1    2    0    0  0.00000000000E+00  0.00000000000E+00 -0.51232337319E+03  0.68614405298E+03  0.45641913055E+03 0.  0.
      99925    2    3    3    0    0 -0.75064561025E+02 -0.85562291095E+02 -0.33197817974E+03  0.43890430925E+03  0.26357520157E+03 0.  0.
         25    1    4    4    0    0 -0.53177630771E+02 -0.68921926287E+02 -0.22643538157E+03  0.27294428455E+03  0.12509000000E+03 0.  0.
         25    1    3    3    0    0  0.75064561025E+02  0.85562291095E+02 -0.18034519345E+03  0.24723974373E+03  0.12509000000E+03 0.  0.
         25    1    4    4    0    0 -0.21886930254E+02 -0.16640364809E+02 -0.10554279816E+03  0.16596002471E+03  0.12509000000E+03 0.  0.
<mgrwt>
<rscale>  2 0.45641913E+03</rscale>
<asrwt>0</asrwt>
<pdfrwt beam="1">  1       21 0.12780932E-01 0.45641913E+03</pdfrwt>
<pdfrwt beam="2">  1       21 0.88122606E-01 0.45641913E+03</pdfrwt>
<totfact> 0.53066535E+04</totfact>
</mgrwt>
</event>
<event>
 7    0  0.4770865E-002  0.4568639E+03  0.7546771E-02  0.1025695E+00
         21   -1    0    0  502  501  0.00000000000E+00  0.00000000000E+00  0.64213275792E+03  0.64213275792E+03  0.00000000000E+00 0.  1.
         21   -1    0    0  501  502 -0.00000000000E+00 -0.00000000000E+00 -0.81262259615E+02  0.81262259615E+02  0.00000000000E+00 0.  1.
      99926    2    1    2    0    0  0.00000000000E+00  0.00000000000E+00  0.56087049831E+03  0.72339501754E+03  0.45686391357E+03 0.  0.
      99925    2    3    3    0    0 -0.33024150814E+02  0.10738808604E+03  0.31429082097E+03  0.42494595834E+03  0.26301625768E+03 0.  0.
         25    1    4    4    0    0 -0.42561829312E+02  0.48074745707E+02  0.20362536863E+03  0.24745401459E+03  0.12509000000E+03 0.  0.
         25    1    3    3    0    0  0.33024150814E+02 -0.10738808604E+03  0.24657967734E+03  0.29844905920E+03  0.12509000000E+03 0.  0.
         25    1    4    4    0    0  0.95376784986E+01  0.59313340335E+02  0.11066545234E+03  0.17749194375E+03  0.12509000000E+03 0.  0.
<mgrwt>
<rscale>  2 0.45686391E+03</rscale>
<asrwt>0</asrwt>
<pdfrwt beam="1">  1       21 0.94431285E-01 0.45686391E+03</pdfrwt>
<pdfrwt beam="2">  1       21 0.11950333E-01 0.45686391E+03</pdfrwt>
<totfact> 0.50900847E+04</totfact>
</mgrwt>
</event>
<event>
 7    0  0.4770865E-002  0.4591288E+03  0.7546771E-02  0.1025034E+00
         21   -1    0    0  502  501  0.00000000000E+00  0.00000000000E+00  0.32304325548E+03  0.32304325548E+03  0.00000000000E+00 0. -1.
         21   -1    0    0  501  502 -0.00000000000E+00 -0.00000000000E+00 -0.16313550625E+03  0.16313550625E+03  0.00000000000E+00 0. -1.
      99926    2    1    2    0    0 -0.14210854715E-13  0.00000000000E+00  0.15990774923E+03  0.48617876173E+03  0.45912884912E+03 0.  0.
      99925    2    3    3    0    0  0.11471585672E+03  0.20121363535E+02  0.11303491453E+03  0.30895244374E+03  0.26288804373E+03 0.  0.
         25    1    4    4    0    0  0.32534961735E+02  0.15408141737E+02  0.17524231694E+02  0.13134131628E+03  0.12509000000E+03 0.  0.
         25    1    3    3    0    0 -0.11471585672E+03 -0.20121363535E+02  0.46872834695E+02  0.17722631798E+03  0.12509000000E+03 0.  0.
         25    1    4    4    0    0  0.82180894988E+02  0.47132217982E+01  0.95510682839E+02  0.17761112746E+03  0.12509000000E+03 0.  0.
<mgrwt>
<rscale>  2 0.45912885E+03</rscale>
<asrwt>0</asrwt>
<pdfrwt beam="1">  1       21 0.47506361E-01 0.45912885E+03</pdfrwt>
<pdfrwt beam="2">  1       21 0.23990516E-01 0.45912885E+03</pdfrwt>
<totfact> 0.64125354E+04</totfact>
</mgrwt>
</event>
<event>
 7    0  0.4770865E-002  0.4565662E+03  0.7546771E-02  0.1025782E+00
         21   -1    0    0  502  501  0.00000000000E+00  0.00000000000E+00  0.16725490637E+03  0.16725490637E+03  0.00000000000E+00 0. -1.
         21   -1    0    0  501  502 -0.00000000000E+00 -0.00000000000E+00 -0.31157940173E+03  0.31157940173E+03  0.00000000000E+00 0. -1.
      99926    2    1    2    0    0  0.00000000000E+00  0.00000000000E+00 -0.14432449536E+03  0.47883430810E+03  0.45656624345E+03 0.  0.
      99925    2    3    3    0    0 -0.47713727347E+02  0.92676469922E+02 -0.14086279884E+03  0.31596927411E+03  0.26292342275E+03 0.  0.
         25    1    4    4    0    0 -0.23572598089E+01  0.22842871550E+02 -0.95358465007E+02  0.15895942376E+03  0.12509000000E+03 0.  0.
         25    1    3    3    0    0  0.47713727347E+02 -0.92676469922E+02 -0.34616965244E+01  0.16286503399E+03  0.12509000000E+03 0.  0.
         25    1    4    4    0    0 -0.45356467538E+02  0.69833598372E+02 -0.45504333832E+02  0.15700985035E+03  0.12509000000E+03 0.  0.
<mgrwt>
<rscale>  2 0.45656624E+03</rscale>
<asrwt>0</asrwt>
<pdfrwt beam="1">  1       21 0.24596310E-01 0.45656624E+03</pdfrwt>
<pdfrwt beam="2">  1       21 0.45820500E-01 0.45656624E+03</pdfrwt>
<totfact> 0.65961257E+04</totfact>
</mgrwt>
</event>
<event>
 7    0  0.4770865E-002  0.4345159E+03  0.7546771E-02  0.1032443E+00
         21   -1    0    0  502  501  0.00000000000E+00  0.00000000000E+00  0.58755125898E+02  0.58755125898E+02  0.00000000000E+00 0.  1.
         21   -1    0    0  501  502 -0.00000000000E+00 -0.00000000000E+00 -0.80335128653E+03  0.80335128653E+03  0.00000000000E+00 0.  1.
      99926    2    1    2    0    0  0.00000000000E+00  0.00000000000E+00 -0.74459616063E+03  0.86210641243E+03  0.43451585002E+03 0.  0.
      99925    2    3    3    0    0 -0.40921932947E+02 -0.83207599740E+02 -0.47749694072E+03  0.55293395145E+03  0.26293443482E+03 0.  0.
         25    1    4    4    0    0 -0.43172753265E+01 -0.42409638120E+02 -0.16144515397E+03  0.20863667489E+03  0.12509000000E+03 0.  0.
         25    1    3    3    0    0  0.40921932947E+02  0.83207599740E+02 -0.26709921990E+03  0.30917246097E+03  0.12509000000E+03 0.  0.
         25    1    4    4    0    0 -0.36604657620E+02 -0.40797961620E+02 -0.31605178676E+03  0.34429727656E+03  0.12509000000E+03 0.  0.
<mgrwt>
<rscale>  2 0.43451585E+03</rscale>
<asrwt>0</asrwt>
<pdfrwt beam="1">  1       21 0.86404600E-02 0.43451585E+03</pdfrwt>
<pdfrwt beam="2">  1       21 0.11813989E+00 0.43451585E+03</pdfrwt>
<totfact> 0.52901449E+04</totfact>
</mgrwt>
</event>
<event>
 7    0  0.4770865E-002  0.4580619E+03  0.7546771E-02  0.1025345E+00
         21   -1    0    0  502  501  0.00000000000E+00  0.00000000000E+00  0.44947838921E+02  0.44947838921E+02  0.00000000000E+00 0. -1.
         21   -1    0    0  501  502 -0.00000000000E+00 -0.00000000000E+00 -0.11670233081E+04  0.11670233081E+04  0.00000000000E+00 0. -1.
      99926    2    1    2    0    0  0.00000000000E+00 -0.35527136788E-14 -0.11220754692E+04  0.12119711471E+04  0.45806189831E+03 0.  0.
      99925    2    3    3    0    0  0.10002720909E+03  0.25040506875E+02 -0.57429840519E+03  0.64070965745E+03  0.26468422204E+03 0.  0.
         25    1    4    4    0    0  0.72186595180E+02  0.35790602506E+01 -0.21863276194E+03  0.26205248881E+03  0.12509000000E+03 0.  0.
         25    1    3    3    0    0 -0.10002720909E+03 -0.25040506875E+02 -0.54777706403E+03  0.57126148962E+03  0.12509000000E+03 0.  0.
         25    1    4    4    0    0  0.27840613907E+02  0.21461446625E+02 -0.35566564325E+03  0.37865716864E+03  0.12509000000E+03 0.  0.
<mgrwt>
<rscale>  2 0.45806190E+03</rscale>
<asrwt>0</asrwt>
<pdfrwt beam="1">  1       21 0.66099770E-02 0.45806190E+03</pdfrwt>
<pdfrwt beam="2">  1       21 0.17162106E+00 0.45806190E+03</pdfrwt>
<totfact> 0.31032096E+04</totfact>
</mgrwt>
</event>
<event>
 7    0  0.4770865E-002  0.4591648E+03  0.7546771E-02  0.1025024E+00
         21   -1    0    0  502  501  0.00000000000E+00  0.00000000000E+00  0.17606485317E+03  0.17606485317E+03  0.00000000000E+00 0.  1.
         21   -1    0    0  501  502 -0.00000000000E+00 -0.00000000000E+00 -0.29936744174E+03  0.29936744174E+03  0.00000000000E+00 0.  1.
      99926    2    1    2    0    0  0.00000000000E+00  0.00000000000E+00 -0.12330258856E+03  0.47543229491E+03  0.45916482738E+03 0.  0.
      99925    2    3    3    0    0 -0.16537848811E+02  0.26426612938E+02 -0.19411342542E+03  0.32834881851E+03  0.26298490142E+03 0.  0.
         25    1    3    3    0    0  0.16537848811E+02 -0.26426612938E+02  0.70810836853E+02  0.14708347640E+03  0.12509000000E+03 0.  0.
         25    1    4    4    0    0 -0.12930767099E+02  0.34585165139E+02 -0.56420819299E+02  0.14210614109E+03  0.12509000000E+03 0.  0.
         25    1    4    4    0    0 -0.36070817117E+01 -0.81585522015E+01 -0.13769260612E+03  0.18624267742E+03  0.12509000000E+03 0.  0.
<mgrwt>
<rscale>  2 0.45916483E+03</rscale>
<asrwt>0</asrwt>
<pdfrwt beam="1">  1       21 0.25891890E-01 0.45916483E+03</pdfrwt>
<pdfrwt beam="2">  1       21 0.44024623E-01 0.45916483E+03</pdfrwt>
<totfact> 0.64863928E+04</totfact>
</mgrwt>
</event>
<event>
 7    0  0.4770865E-002  0.4538596E+03  0.7546771E-02  0.1026577E+00
         21   -1    0    0  502  501  0.00000000000E+00  0.00000000000E+00  0.40037292394E+03  0.40037292394E+03  0.00000000000E+00 0.  1.
         21   -1    0    0  501  502 -0.00000000000E+00 -0.00000000000E+00 -0.12862293793E+03  0.12862293793E+03  0.00000000000E+00 0.  1.
      99926    2    1    2    0    0  0.35527136788E-14  0.00000000000E+00  0.27174998602E+03  0.52899586187E+03  0.45385963356E+03 0.  0.
      99925    2    3    3    0    0  0.26686773963E+02  0.10837475362E+03  0.15769108239E+03  0.32622946247E+03  0.26287242836E+03 0.  0.
         25    1    4    4    0    0  0.16771212410E+02  0.29973685955E+02  0.11198231934E+03  0.17136873507E+03  0.12509000000E+03 0.  0.
         25    1    4    4    0    0  0.99155615533E+01  0.78401067665E+02  0.45708763054E+02  0.15486072740E+03  0.12509000000E+03 0.  0.
         25    1    3    3    0    0 -0.26686773963E+02 -0.10837475362E+03  0.11405890362E+03  0.20276639939E+03  0.12509000000E+03 0.  0.
<mgrwt>
<rscale>  2 0.45385963E+03</rscale>
<asrwt>0</asrwt>
<pdfrwt beam="1">  1       21 0.58878371E-01 0.45385963E+03</pdfrwt>
<pdfrwt beam="2">  1       21 0.18915138E-01 0.45385963E+03</pdfrwt>
<totfact> 0.63849723E+04</totfact>
</mgrwt>
</event>
<event>
 7    0  0.4770865E-002  0.4463646E+03  0.7546771E-02  0.1028812E+00
         21   -1    0    0  502  501  0.00000000000E+00  0.00000000000E+00  0.74445071665E+02  0.74445071665E+02  0.00000000000E+00 0. -1.
         21   -1    0    0  501  502 -0.00000000000E+00 -0.00000000000E+00 -0.66908836699E+03  0.66908836699E+03  0.00000000000E+00 0. -1.
      99926    2    1    2    0    0  0.00000000000E+00  0.00000000000E+00 -0.59464329533E+03  0.74353343866E+03  0.44636456594E+03 0.  0.
      99925    2    3    3    0    0 -0.10353544648E+03  0.15196144370E+02 -0.38568855723E+03  0.47846721645E+03  0.26310587709E+03 0.  0.
         25    1    4    4    0    0 -0.93062006712E+02  0.14621644484E+02 -0.23417670143E+03  0.28171007290E+03  0.12509000000E+03 0.  0.
         25    1    3    3    0    0  0.10353544648E+03 -0.15196144370E+02 -0.20895473810E+03  0.26506622221E+03  0.12509000000E+03 0.  0.
         25    1    4    4    0    0 -0.10473439767E+02  0.57449988627E+00 -0.15151185580E+03  0.19675714355E+03  0.12509000000E+03 0.  0.
<mgrwt>
<rscale>  2 0.44636457E+03</rscale>
<asrwt>0</asrwt>
<pdfrwt beam="1">  1       21 0.10947804E-01 0.44636457E+03</pdfrwt>
<pdfrwt beam="2">  1       21 0.98395350E-01 0.44636457E+03</pdfrwt>
<totfact> 0.54187975E+04</totfact>
</mgrwt>
</event>
<event>
 7    0  0.4770865E-002  0.4584757E+03  0.7546771E-02  0.1025224E+00
         21   -1    0    0  502  501  0.00000000000E+00  0.00000000000E+00  0.88682710391E+03  0.88682710391E+03  0.00000000000E+00 0. -1.
         21   -1    0    0  501  502 -0.00000000000E+00 -0.00000000000E+00 -0.59256181659E+02  0.59256181659E+02  0.00000000000E+00 0. -1.
      99926    2    1    2    0    0  0.66613381478E-15  0.00000000000E+00  0.82757092225E+03  0.94608328557E+03  0.45847568297E+03 0.  0.
      99925    2    3    3    0    0  0.62407952414E+00 -0.10404184221E+03  0.41127209792E+03  0.49911873033E+03  0.26296325604E+03 0.  0.
         25    1    3    3    0    0 -0.62407952414E+00  0.10404184221E+03  0.41629882432E+03  0.44696455524E+03  0.12509000000E+03 0.  0.
         25    1    4    4    0    0 -0.23200168296E+02 -0.62451621757E+02  0.15553582913E+03  0.21042185037E+03  0.12509000000E+03 0.  0.
         25    1    4    4    0    0  0.23824247820E+02 -0.41590220457E+02  0.25573626879E+03  0.28869687996E+03  0.12509000000E+03 0.  0.
<mgrwt>
<rscale>  2 0.45847568E+03</rscale>
<asrwt>0</asrwt>
<pdfrwt beam="1">  1       21 0.13041574E+00 0.45847568E+03</pdfrwt>
<pdfrwt beam="2">  1       21 0.87141449E-02 0.45847568E+03</pdfrwt>
<totfact> 0.40196087E+04</totfact>
</mgrwt>
</event>
<event>
 7    0  0.4770865E-002  0.4425761E+03  0.7546771E-02  0.1029959E+00
         21   -1    0    0  502  501  0.00000000000E+00  0.00000000000E+00  0.16677420132E+03  0.16677420132E+03  0.00000000000E+00 0.  1.
         21   -1    0    0  501  502 -0.00000000000E+00 -0.00000000000E+00 -0.29362101036E+03  0.29362101036E+03  0.00000000000E+00 0.  1.
      99926    2    1    2    0    0 -0.14210854715E-13 -0.71054273576E-14 -0.12684680903E+03  0.46039521168E+03  0.44257613805E+03 0.  0.
      99925    2    3    3    0    0  0.79785873686E+02  0.44755120036E+02 -0.35873349035E+02  0.28069411281E+03  0.26293246545E+03 0.  0.
         25    1    4    4    0    0  0.49927197269E+02 -0.16161438183E+02 -0.96377346277E+01  0.13599379081E+03  0.12509000000E+03 0.  0.
         25    1    3    3    0    0 -0.79785873686E+02 -0.44755120036E+02 -0.90973459999E+02  0.17970109887E+03  0.12509000000E+03 0.  0.
         25    1    4    4    0    0  0.29858676417E+02  0.60916558219E+02 -0.26235614407E+02  0.14470032200E+03  0.12509000000E+03 0.  0.
<mgrwt>
<rscale>  2 0.44257614E+03</rscale>
<asrwt>0</asrwt>
<pdfrwt beam="1">  1       21 0.24525618E-01 0.44257614E+03</pdfrwt>
<pdfrwt beam="2">  1       21 0.43179560E-01 0.44257614E+03</pdfrwt>
<totfact> 0.75310032E+04</totfact>
</mgrwt>
</event>
<event>
 7    0  0.4770865E-002  0.4530679E+03  0.7546771E-02  0.1026811E+00
         21   -1    0    0  502  501  0.00000000000E+00  0.00000000000E+00  0.40295830964E+02  0.40295830964E+02  0.00000000000E+00 0. -1.
         21   -1    0    0  501  502 -0.00000000000E+00 -0.00000000000E+00 -0.12735219694E+04  0.12735219694E+04  0.00000000000E+00 0. -1.
      99926    2    1    2    0    0  0.00000000000E+00  0.00000000000E+00 -0.12332261385E+04  0.13138178004E+04  0.45306788017E+03 0.  0.
      99925    2    3    3    0    0  0.44553797719E+02 -0.44832316555E+02 -0.10431661198E+04  0.10776710318E+04  0.26302912748E+03 0.  0.
         25    1    3    3    0    0 -0.44553797719E+02  0.44832316555E+02 -0.19006001870E+03  0.23614676857E+03  0.12509000000E+03 0.  0.
         25    1    4    4    0    0 -0.10228946790E+02 -0.42035587824E+02 -0.57140419344E+03  0.58653378621E+03  0.12509000000E+03 0.  0.
         25    1    4    4    0    0  0.54782744509E+02 -0.27967287306E+01 -0.47176192634E+03  0.49113724561E+03  0.12509000000E+03 0.  0.
<mgrwt>
<rscale>  2 0.45306788E+03</rscale>
<asrwt>0</asrwt>
<pdfrwt beam="1">  1       21 0.59258568E-02 0.45306788E+03</pdfrwt>
<pdfrwt beam="2">  1       21 0.18728266E+00 0.45306788E+03</pdfrwt>
<totfact> 0.29151557E+04</totfact>
</mgrwt>
</event>
<event>
 7    0  0.4770865E-002  0.4523635E+03  0.7546771E-02  0.1027020E+00
         21   -1    0    0  502  501  0.00000000000E+00  0.00000000000E+00  0.12560611882E+03  0.12560611882E+03  0.00000000000E+00 0.  1.
         21   -1    0    0  501  502 -0.00000000000E+00 -0.00000000000E+00 -0.40729046625E+03  0.40729046625E+03  0.00000000000E+00 0.  1.
      99926    2    1    2    0    0  0.00000000000E+00  0.00000000000E+00 -0.28168434743E+03  0.53289658506E+03  0.45236345872E+03 0.  0.
      99925    2    3    3    0    0 -0.73794724427E+02 -0.47237348531E+02 -0.97998534838E+02  0.29401373868E+03  0.26298923410E+03 0.  0.
         25    1    4    4    0    0 -0.85629003109E+01  0.61276086065E+01 -0.55900258079E+02  0.13741622103E+03  0.12509000000E+03 0.  0.
         25    1    3    3    0    0  0.73794724427E+02  0.47237348531E+02 -0.18368581259E+03  0.23888284638E+03  0.12509000000E+03 0.  0.
         25    1    4    4    0    0 -0.65231824116E+02 -0.53364957138E+02 -0.42098276759E+02  0.15659751765E+03  0.12509000000E+03 0.  0.
<mgrwt>
<rscale>  2 0.45236346E+03</rscale>
<asrwt>0</asrwt>
<pdfrwt beam="1">  1       21 0.18471488E-01 0.45236346E+03</pdfrwt>
<pdfrwt beam="2">  1       21 0.59895658E-01 0.45236346E+03</pdfrwt>
<totfact> 0.64343373E+04</totfact>
</mgrwt>
</event>
<event>
 7    0  0.4770865E-002  0.4385641E+03  0.7546771E-02  0.1031188E+00
         21   -1    0    0  502  501  0.00000000000E+00  0.00000000000E+00  0.17663690166E+03  0.17663690166E+03  0.00000000000E+00 0.  1.
         21   -1    0    0  501  502 -0.00000000000E+00 -0.00000000000E+00 -0.27222293211E+03  0.27222293211E+03  0.00000000000E+00 0.  1.
      99926    2    1    2    0    0  0.35527136788E-14  0.00000000000E+00 -0.95586030456E+02  0.44885983377E+03  0.43856409013E+03 0.  0.
      99925    2    3    3    0    0 -0.29422834037E+02 -0.44302744723E+02 -0.14369760761E+03  0.30467013820E+03  0.26333714953E+03 0.  0.
         25    1    3    3    0    0  0.29422834037E+02  0.44302744723E+02  0.48111577158E+02  0.14418969557E+03  0.12509000000E+03 0.  0.
         25    1    4    4    0    0 -0.45555912729E+02 -0.24377896272E+02 -0.42860983685E+02  0.14196547127E+03  0.12509000000E+03 0.  0.
         25    1    4    4    0    0  0.16133078692E+02 -0.19924848450E+02 -0.10083662393E+03  0.16270466693E+03  0.12509000000E+03 0.  0.
<mgrwt>
<rscale>  2 0.43856409E+03</rscale>
<asrwt>0</asrwt>
<pdfrwt beam="1">  1       21 0.25976015E-01 0.43856409E+03</pdfrwt>
<pdfrwt beam="2">  1       21 0.40032784E-01 0.43856409E+03</pdfrwt>
<totfact> 0.78826781E+04</totfact>
</mgrwt>
</event>
<event>
 7    0  0.4770865E-002  0.4572281E+03  0.7546771E-02  0.1025588E+00
         21   -1    0    0  502  501  0.00000000000E+00  0.00000000000E+00  0.12205826532E+03  0.12205826532E+03  0.00000000000E+00 0. -1.
         21   -1    0    0  501  502 -0.00000000000E+00 -0.00000000000E+00 -0.42819204525E+03  0.42819204525E+03  0.00000000000E+00 0. -1.
      99926    2    1    2    0    0  0.00000000000E+00  0.00000000000E+00 -0.30613377993E+03  0.55025031057E+03  0.45722807554E+03 0.  0.
      99925    2    3    3    0    0 -0.10100511918E+03  0.40679597897E+02 -0.23713369338E+03  0.37062463359E+03  0.26319834098E+03 0.  0.
         25    1    4    4    0    0 -0.68066100514E+02  0.35898246979E+02 -0.80683408589E+02  0.16756789280E+03  0.12509000000E+03 0.  0.
         25    1    4    4    0    0 -0.32939018671E+02  0.47813509178E+01 -0.15645028479E+03  0.20305674079E+03  0.12509000000E+03 0.  0.
         25    1    3    3    0    0  0.10100511918E+03 -0.40679597897E+02 -0.69000086552E+02  0.17962567698E+03  0.12509000000E+03 0.  0.
<mgrwt>
<rscale>  2 0.45722808E+03</rscale>
<asrwt>0</asrwt>
<pdfrwt beam="1">  1       21 0.17949745E-01 0.45722808E+03</pdfrwt>
<pdfrwt beam="2">  1       21 0.62969417E-01 0.45722808E+03</pdfrwt>
<totfact> 0.60771569E+04</totfact>
</mgrwt>
</event>
<event>
 7    0  0.4770865E-002  0.4491752E+03  0.7546771E-02  0.1027968E+00
         21   -1    0    0  502  501  0.00000000000E+00  0.00000000000E+00  0.15487249823E+04  0.15487249823E+04  0.00000000000E+00 0.  1.
         21   -1    0    0  501  502 -0.00000000000E+00 -0.00000000000E+00 -0.32568458796E+02  0.32568458796E+02  0.00000000000E+00 0.  1.
      99926    2    1    2    0    0  0.00000000000E+00  0.00000000000E+00  0.15161565235E+04  0.15812934411E+04  0.44917518085E+03 0.  0.
      99925    2    3    3    0    0 -0.87223639728E+02 -0.53413005459E+02  0.84115645481E+03  0.88722319010E+03  0.26298268974E+03 0.  0.
         25    1    4    4    0    0 -0.26855595224E+02 -0.81368006353E+00  0.30199008280E+03  0.32797469915E+03  0.12509000000E+03 0.  0.
         25    1    3    3    0    0  0.87223639728E+02  0.53413005459E+02  0.67500006874E+03  0.69407025104E+03  0.12509000000E+03 0.  0.
         25    1    4    4    0    0 -0.60368044505E+02 -0.52599325396E+02  0.53916637201E+03  0.55924849095E+03  0.12509000000E+03 0.  0.
<mgrwt>
<rscale>  2 0.44917518E+03</rscale>
<asrwt>0</asrwt>
<pdfrwt beam="1">  1       21 0.22775362E+00 0.44917518E+03</pdfrwt>
<pdfrwt beam="2">  1       21 0.47894803E-02 0.44917518E+03</pdfrwt>
<totfact> 0.22872464E+04</totfact>
</mgrwt>
</event>
<event>
 7    0  0.4770865E-002  0.4513473E+03  0.7546771E-02  0.1027321E+00
         21   -1    0    0  502  501  0.00000000000E+00  0.00000000000E+00  0.36176490462E+02  0.36176490462E+02  0.00000000000E+00 0. -1.
         21   -1    0    0  501  502 -0.00000000000E+00 -0.00000000000E+00 -0.14077815875E+04  0.14077815875E+04  0.00000000000E+00 0. -1.
      99926    2    1    2    0    0  0.00000000000E+00  0.00000000000E+00 -0.13716050971E+04  0.14439580780E+04  0.45134730385E+03 0.  0.
      99925    2    3    3    0    0 -0.22613259888E+02  0.92977944652E+02 -0.10378665252E+04  0.10749252879E+04  0.26294712911E+03 0.  0.
         25    1    3    3    0    0  0.22613259888E+02 -0.92977944652E+02 -0.33373857183E+03  0.36903279006E+03  0.12509000000E+03 0.  0.
         25    1    4    4    0    0 -0.36339020943E+02  0.80794523605E+02 -0.55411369459E+03  0.57492414640E+03  0.12509000000E+03 0.  0.
         25    1    4    4    0    0  0.13725761055E+02  0.12183421048E+02 -0.48375283064E+03  0.50000114152E+03  0.12509000000E+03 0.  0.
<mgrwt>
<rscale>  2 0.45134730E+03</rscale>
<asrwt>0</asrwt>
<pdfrwt beam="1">  1       21 0.53200729E-02 0.45134730E+03</pdfrwt>
<pdfrwt beam="2">  1       21 0.20702667E+00 0.45134730E+03</pdfrwt>
<totfact> 0.25911408E+04</totfact>
</mgrwt>
</event>
<event>
 7    0  0.4770865E-002  0.4555900E+03  0.7546771E-02  0.1026068E+00
         21   -1    0    0  502  501  0.00000000000E+00  0.00000000000E+00  0.25935311615E+03  0.25935311615E+03  0.00000000000E+00 0. -1.
         21   -1    0    0  501  502 -0.00000000000E+00 -0.00000000000E+00 -0.20007690074E+03  0.20007690074E+03  0.00000000000E+00 0. -1.
      99926    2    1    2    0    0  0.35527136788E-14  0.00000000000E+00  0.59276215415E+02  0.45943001689E+03  0.45559002481E+03 0.  0.
      99925    2    3    3    0    0 -0.25913672644E+02  0.78633285056E+02 -0.40986762708E+02  0.27900029420E+03  0.26326134827E+03 0.  0.
         25    1    3    3    0    0  0.25913672644E+02 -0.78633285056E+02  0.10026297812E+03  0.18042972269E+03  0.12509000000E+03 0.  0.
         25    1    4    4    0    0 -0.35983786761E+02  0.71084301289E+02 -0.56874514117E+01  0.14841720252E+03  0.12509000000E+03 0.  0.
         25    1    4    4    0    0  0.10070114117E+02  0.75489837669E+01 -0.35299311296E+02  0.13058309168E+03  0.12509000000E+03 0.  0.
<mgrwt>
<rscale>  2 0.45559002E+03</rscale>
<asrwt>0</asrwt>
<pdfrwt beam="1">  1       21 0.38140164E-01 0.45559002E+03</pdfrwt>
<pdfrwt beam="2">  1       21 0.29423074E-01 0.45559002E+03</pdfrwt>
<totfact> 0.67902047E+04</totfact>
</mgrwt>
</event>
<event>
 7    0  0.4770865E-002  0.4536475E+03  0.7546771E-02  0.1026640E+00
         21   -1    0    0  502  501  0.00000000000E+00  0.00000000000E+00  0.65601168892E+02  0.65601168892E+02  0.00000000000E+00 0. -1.
         21   -1    0    0  501  502 -0.00000000000E+00 -0.00000000000E+00 -0.78426993219E+03  0.78426993219E+03  0.00000000000E+00 0. -1.
      99926    2    1    2    0    0  0.71054273576E-14  0.00000000000E+00 -0.71866876330E+03  0.84987110108E+03  0.45364754724E+03 0.  0.
      99925    2    3    3    0    0 -0.53364372636E+02 -0.69387943490E+02 -0.58358904194E+03  0.64601703026E+03  0.26286762932E+03 0.  0.
         25    1    4    4    0    0 -0.59053553985E+02 -0.12233015727E+02 -0.31331397387E+03  0.34270996955E+03  0.12509000000E+03 0.  0.
         25    1    3    3    0    0  0.53364372636E+02  0.69387943490E+02 -0.13507972136E+03  0.20385407082E+03  0.12509000000E+03 0.  0.
         25    1    4    4    0    0  0.56891813492E+01 -0.57154927763E+02 -0.27027506807E+03  0.30330706070E+03  0.12509000000E+03 0.  0.
<mgrwt>
<rscale>  2 0.45364755E+03</rscale>
<asrwt>0</asrwt>
<pdfrwt beam="1">  1       21 0.96472319E-02 0.45364755E+03</pdfrwt>
<pdfrwt beam="2">  1       21 0.11533380E+00 0.45364755E+03</pdfrwt>
<totfact> 0.45930504E+04</totfact>
</mgrwt>
</event>
<event>
 7    0  0.4770865E-002  0.4637889E+03  0.7546771E-02  0.1023688E+00
         21   -1    0    0  502  501  0.00000000000E+00  0.00000000000E+00  0.17024724221E+03  0.17024724221E+03  0.00000000000E+00 0. -1.
         21   -1    0    0  501  502 -0.00000000000E+00 -0.00000000000E+00 -0.31586431377E+03  0.31586431377E+03  0.00000000000E+00 0. -1.
      99926    2    1    2    0    0 -0.71054273576E-14  0.35527136788E-14 -0.14561707157E+03  0.48611155598E+03  0.46378886719E+03 0.  0.
      99925    2    3    3    0    0 -0.63968224141E+02 -0.21220564597E+02 -0.19651969859E+03  0.33517835354E+03  0.26302526625E+03 0.  0.
         25    1    4    4    0    0 -0.52068039294E+02  0.22281278276E+02 -0.11580098412E+03  0.17962436389E+03  0.12509000000E+03 0.  0.
         25    1    4    4    0    0 -0.11900184847E+02 -0.43501842874E+02 -0.80718714467E+02  0.15555398966E+03  0.12509000000E+03 0.  0.
         25    1    3    3    0    0  0.63968224141E+02  0.21220564597E+02  0.50902627024E+02  0.15093320244E+03  0.12509000000E+03 0.  0.
<mgrwt>
<rscale>  2 0.46378887E+03</rscale>
<asrwt>0</asrwt>
<pdfrwt beam="1">  1       21 0.25036359E-01 0.46378887E+03</pdfrwt>
<pdfrwt beam="2">  1       21 0.46450634E-01 0.46378887E+03</pdfrwt>
<totfact> 0.61830481E+04</totfact>
</mgrwt>
</event>
<event>
 7    0  0.4770865E-002  0.4503958E+03  0.7546771E-02  0.1027604E+00
         21   -1    0    0  502  501  0.00000000000E+00  0.00000000000E+00  0.10584584720E+03  0.10584584720E+03  0.00000000000E+00 0. -1.
         21   -1    0    0  501  502 -0.00000000000E+00 -0.00000000000E+00 -0.47913154301E+03  0.47913154301E+03  0.00000000000E+00 0. -1.
      99926    2    1    2    0    0  0.00000000000E+00  0.00000000000E+00 -0.37328569580E+03  0.58497739021E+03  0.45039575527E+03 0.  0.
      99925    2    3    3    0    0 -0.73305370996E+02  0.74390994974E+02 -0.27346642021E+03  0.39387769521E+03  0.26352999497E+03 0.  0.
         25    1    4    4    0    0 -0.37672647244E+02 -0.55431058927E+01 -0.12979794245E+03  0.18424160317E+03  0.12509000000E+03 0.  0.
         25    1    4    4    0    0 -0.35632723752E+02  0.79934100866E+02 -0.14366847776E+03  0.20963609204E+03  0.12509000000E+03 0.  0.
         25    1    3    3    0    0  0.73305370996E+02 -0.74390994974E+02 -0.99819275592E+02  0.19109969500E+03  0.12509000000E+03 0.  0.
<mgrwt>
<rscale>  2 0.45039576E+03</rscale>
<asrwt>0</asrwt>
<pdfrwt beam="1">  1       21 0.15565566E-01 0.45039576E+03</pdfrwt>
<pdfrwt beam="2">  1       21 0.70460522E-01 0.45039576E+03</pdfrwt>
<totfact> 0.61832409E+04</totfact>
</mgrwt>
</event>
<event>
 7    0  0.4770865E-002  0.4500785E+03  0.7546771E-02  0.1027699E+00
         21   -1    0    0  502  501  0.00000000000E+00  0.00000000000E+00  0.17032377176E+04  0.17032377176E+04  0.00000000000E+00 0.  1.
         21   -1    0    0  501  502 -0.00000000000E+00 -0.00000000000E+00 -0.29733173518E+02  0.29733173518E+02  0.00000000000E+00 0.  1.
      99926    2    1    2    0    0  0.17763568394E-14  0.00000000000E+00  0.16735045441E+04  0.17329708912E+04  0.45007849361E+03 0.  0.
      99925    2    3    3    0    0 -0.15963443665E+02  0.10720639189E+03  0.10488523084E+04  0.10867619731E+04  0.26308245760E+03 0.  0.
         25    1    3    3    0    0  0.15963443665E+02 -0.10720639189E+03  0.62465223574E+03  0.64620891801E+03  0.12509000000E+03 0.  0.
         25    1    4    4    0    0  0.26301588297E+02  0.30083076045E+02  0.45951731687E+03  0.47791258365E+03  0.12509000000E+03 0.  0.
         25    1    4    4    0    0 -0.42265031962E+02  0.77123315841E+02  0.58933499151E+03  0.60884938949E+03  0.12509000000E+03 0.  0.
<mgrwt>
<rscale>  2 0.45007849E+03</rscale>
<asrwt>0</asrwt>
<pdfrwt beam="1">  1       21 0.25047607E+00 0.45007849E+03</pdfrwt>
<pdfrwt beam="2">  1       21 0.43725267E-02 0.45007849E+03</pdfrwt>
<totfact> 0.19311079E+04</totfact>
</mgrwt>
</event>
<event>
 7    0  0.4770865E-002  0.4210680E+03  0.7546771E-02  0.1036719E+00
         21   -1    0    0  502  501  0.00000000000E+00  0.00000000000E+00  0.56216042640E+02  0.56216042640E+02  0.00000000000E+00 0. -1.
         21   -1    0    0  501  502 -0.00000000000E+00 -0.00000000000E+00 -0.78846827902E+03  0.78846827902E+03  0.00000000000E+00 0. -1.
      99926    2    1    2    0    0  0.00000000000E+00  0.00000000000E+00 -0.73225223638E+03  0.84468432166E+03  0.42106800588E+03 0.  0.
      99925    2    3    3    0    0  0.70026662294E+02  0.22494738652E+02 -0.42969620552E+03  0.50912895126E+03  0.26298994899E+03 0.  0.
         25    1    3    3    0    0 -0.70026662294E+02 -0.22494738652E+02 -0.30255603086E+03  0.33555537041E+03  0.12509000000E+03 0.  0.
         25    1    4    4    0    0  0.65304073864E+02  0.13625183757E+02 -0.27956974910E+03  0.31345975884E+03  0.12509000000E+03 0.  0.
         25    1    4    4    0    0  0.47225884295E+01  0.88695548949E+01 -0.15012645642E+03  0.19566919242E+03  0.12509000000E+03 0.  0.
<mgrwt>
<rscale>  2 0.42106801E+03</rscale>
<asrwt>0</asrwt>
<pdfrwt beam="1">  1       21 0.82670646E-02 0.42106801E+03</pdfrwt>
<pdfrwt beam="2">  1       21 0.11595122E+00 0.42106801E+03</pdfrwt>
<totfact> 0.60159678E+04</totfact>
</mgrwt>
</event>
<event>
 7    0  0.4770865E-002  0.4436487E+03  0.7546771E-02  0.1029633E+00
         21   -1    0    0  502  501  0.00000000000E+00  0.00000000000E+00  0.92741764565E+03  0.92741764565E+03  0.00000000000E+00 0. -1.
         21   -1    0    0  501  502 -0.00000000000E+00 -0.00000000000E+00 -0.53057057258E+02  0.53057057258E+02  0.00000000000E+00 0. -1.
      99926    2    1    2    0    0  0.00000000000E+00  0.00000000000E+00  0.87436058839E+03  0.98047470291E+03  0.44364874001E+03 0.  0.
      99925    2    3    3    0    0 -0.30508643544E+02  0.27604725451E+02  0.76268762365E+03  0.80781562451E+03  0.26302257269E+03 0.  0.
         25    1    4    4    0    0 -0.14494159888E+02 -0.73362445771E+01  0.48016873642E+03  0.49646089946E+03  0.12509000000E+03 0.  0.
         25    1    3    3    0    0  0.30508643544E+02 -0.27604725451E+02  0.11167296474E+03  0.17265907840E+03  0.12509000000E+03 0.  0.
         25    1    4    4    0    0 -0.16014483656E+02  0.34940970028E+02  0.28251888723E+03  0.31135472505E+03  0.12509000000E+03 0.  0.
<mgrwt>
<rscale>  2 0.44364874E+03</rscale>
<asrwt>0</asrwt>
<pdfrwt beam="1">  1       21 0.13638494E+00 0.44364874E+03</pdfrwt>
<pdfrwt beam="2">  1       21 0.78025090E-02 0.44364874E+03</pdfrwt>
<totfact> 0.43679460E+04</totfact>
</mgrwt>
</event>
<event>
 7    0  0.4770865E-002  0.4614839E+03  0.7546771E-02  0.1024352E+00
         21   -1    0    0  502  501  0.00000000000E+00  0.00000000000E+00  0.14857284536E+03  0.14857284536E+03  0.00000000000E+00 0.  1.
         21   -1    0    0  501  502 -0.00000000000E+00 -0.00000000000E+00 -0.35835514468E+03  0.35835514468E+03  0.00000000000E+00 0.  1.
      99926    2    1    2    0    0  0.00000000000E+00 -0.35527136788E-14 -0.20978229932E+03  0.50692799003E+03  0.46148388268E+03 0.  0.
      99925    2    3    3    0    0  0.76390106442E+02 -0.18839772600E+02 -0.32841236854E+02  0.27639375596E+03  0.26291553036E+03 0.  0.
         25    1    4    4    0    0  0.24406273040E+02  0.28488735672E+02 -0.22621888527E+02  0.13253879494E+03  0.12509000000E+03 0.  0.
         25    1    4    4    0    0  0.51983833402E+02 -0.47328508272E+02 -0.10219348327E+02  0.14385496102E+03  0.12509000000E+03 0.  0.
         25    1    3    3    0    0 -0.76390106442E+02  0.18839772600E+02 -0.17694106246E+03  0.23053423407E+03  0.12509000000E+03 0.  0.
<mgrwt>
<rscale>  2 0.46148388E+03</rscale>
<asrwt>0</asrwt>
<pdfrwt beam="1">  1       21 0.21848948E-01 0.46148388E+03</pdfrwt>
<pdfrwt beam="2">  1       21 0.52699285E-01 0.46148388E+03</pdfrwt>
<totfact> 0.61556999E+04</totfact>
</mgrwt>
</event>
<event>
 7    0  0.4770865E-002  0.4624973E+03  0.7546771E-02  0.1024059E+00
         21   -1    0    0  502  501  0.00000000000E+00  0.00000000000E+00  0.10362603202E+04  0.10362603202E+04  0.00000000000E+00 0.  1.
         21   -1    0    0  501  502 -0.00000000000E+00 -0.00000000000E+00 -0.51604743007E+02  0.51604743007E+02  0.00000000000E+00 0.  1.
      99926    2    1    2    0    0 -0.14210854715E-13  0.00000000000E+00  0.98465557717E+03  0.10878650632E+04  0.46249734058E+03 0.  0.
      99925    2    3    3    0    0 -0.11760566236E+03  0.24405433996E+02  0.62780122770E+03  0.69110411266E+03  0.26279991630E+03 0.  0.
         25    1    3    3    0    0  0.11760566236E+03 -0.24405433996E+02  0.35685434947E+03  0.39676095052E+03  0.12509000000E+03 0.  0.
         25    1    4    4    0    0 -0.85810017897E+02  0.33959022362E+02  0.39939463290E+03  0.42857922868E+03  0.12509000000E+03 0.  0.
         25    1    4    4    0    0 -0.31795644459E+02 -0.95535883661E+01  0.22840659481E+03  0.26252488398E+03  0.12509000000E+03 0.  0.
<mgrwt>
<rscale>  2 0.46249734E+03</rscale>
<asrwt>0</asrwt>
<pdfrwt beam="1">  1       21 0.15239121E+00 0.46249734E+03</pdfrwt>
<pdfrwt beam="2">  1       21 0.75889334E-02 0.46249734E+03</pdfrwt>
<totfact> 0.33891552E+04</totfact>
</mgrwt>
</event>
<event>
 7    0  0.4770865E-002  0.4497465E+03  0.7546771E-02  0.1027798E+00
         21   -1    0    0  502  501  0.00000000000E+00  0.00000000000E+00  0.28457870442E+03  0.28457870442E+03  0.00000000000E+00 0. -1.
         21   -1    0    0  501  502 -0.00000000000E+00 -0.00000000000E+00 -0.17769420499E+03  0.17769420499E+03  0.00000000000E+00 0. -1.
      99926    2    1    2    0    0  0.00000000000E+00 -0.88817841970E-15  0.10688449943E+03  0.46227290941E+03  0.44974653590E+03 0.  0.
      99925    2    3    3    0    0 -0.10682097002E+03 -0.51531805544E+01  0.61846485626E+02  0.29164698613E+03  0.26418876174E+03 0.  0.
         25    1    4    4    0    0 -0.23028823411E+02  0.25204818526E+02  0.44455158361E+02  0.13707435497E+03  0.12509000000E+03 0.  0.
         25    1    3    3    0    0  0.10682097002E+03  0.51531805544E+01  0.45038013807E+02  0.17062592328E+03  0.12509000000E+03 0.  0.
         25    1    4    4    0    0 -0.83792146613E+02 -0.30357999080E+02  0.17391327265E+02  0.15457263117E+03  0.12509000000E+03 0.  0.
<mgrwt>
<rscale>  2 0.44974654E+03</rscale>
<asrwt>0</asrwt>
<pdfrwt beam="1">  1       21 0.41849809E-01 0.44974654E+03</pdfrwt>
<pdfrwt beam="2">  1       21 0.26131501E-01 0.44974654E+03</pdfrwt>
<totfact> 0.70924728E+04</totfact>
</mgrwt>
</event>
<event>
 7    0  0.4770865E-002  0.4544002E+03  0.7546771E-02  0.1026418E+00
         21   -1    0    0  502  501  0.00000000000E+00  0.00000000000E+00  0.12405526408E+03  0.12405526408E+03  0.00000000000E+00 0. -1.
         21   -1    0    0  501  502 -0.00000000000E+00 -0.00000000000E+00 -0.41610397224E+03  0.41610397224E+03  0.00000000000E+00 0. -1.
      99926    2    1    2    0    0  0.00000000000E+00  0.00000000000E+00 -0.29204870815E+03  0.54015923632E+03  0.45440021198E+03 0.  0.
      99925    2    3    3    0    0 -0.56198838590E+02 -0.38217119641E+02 -0.29049237715E+03  0.39779074276E+03  0.26312125751E+03 0.  0.
         25    1    4    4    0    0 -0.41411385788E+02 -0.15975436514E+02 -0.91424095015E+02  0.16117068807E+03  0.12509000000E+03 0.  0.
         25    1    4    4    0    0 -0.14787452803E+02 -0.22241683127E+02 -0.19906828213E+03  0.23662005469E+03  0.12509000000E+03 0.  0.
         25    1    3    3    0    0  0.56198838590E+02  0.38217119641E+02 -0.15563310055E+01  0.14236849356E+03  0.12509000000E+03 0.  0.
<mgrwt>
<rscale>  2 0.45440021E+03</rscale>
<asrwt>0</asrwt>
<pdfrwt beam="1">  1       21 0.18243421E-01 0.45440021E+03</pdfrwt>
<pdfrwt beam="2">  1       21 0.61191760E-01 0.45440021E+03</pdfrwt>
<totfact> 0.62819170E+04</totfact>
</mgrwt>
</event>
<event>
 7    0  0.4770865E-002  0.4529521E+03  0.7546771E-02  0.1026845E+00
         21   -1    0    0  502  501  0.00000000000E+00  0.00000000000E+00  0.89287507308E+03  0.89287507308E+03  0.00000000000E+00 0.  1.
         21   -1    0    0  501  502 -0.00000000000E+00 -0.00000000000E+00 -0.57445204099E+02  0.57445204099E+02  0.00000000000E+00 0.  1.
      99926    2    1    2    0    0 -0.14210854715E-13 -0.71054273576E-14  0.83542986898E+03  0.95032027718E+03  0.45295205401E+03 0.  0.
      99925    2    3    3    0    0 -0.89543902895E+02 -0.63896616598E+02  0.49247036362E+03  0.56904659781E+03  0.26303247572E+03 0.  0.
         25    1    4    4    0    0 -0.73084332646E+02 -0.36889379129E+01  0.26550752161E+03  0.30248418153E+03  0.12509000000E+03 0.  0.
         25    1    4    4    0    0 -0.16459570249E+02 -0.60207678685E+02  0.22696284201E+03  0.26656241629E+03  0.12509000000E+03 0.  0.
         25    1    3    3    0    0  0.89543902895E+02  0.63896616598E+02  0.34295950536E+03  0.38127367936E+03  0.12509000000E+03 0.  0.
<mgrwt>
<rscale>  2 0.45295205E+03</rscale>
<asrwt>0</asrwt>
<pdfrwt beam="1">  1       21 0.13130515E+00 0.45295205E+03</pdfrwt>
<pdfrwt beam="2">  1       21 0.84478247E-02 0.45295205E+03</pdfrwt>
<totfact> 0.41793131E+04</totfact>
</mgrwt>
</event>
<event>
 7    0  0.4770865E-002  0.4548513E+03  0.7546771E-02  0.1026285E+00
         21   -1    0    0  502  501  0.00000000000E+00  0.00000000000E+00  0.59127500177E+03  0.59127500177E+03  0.00000000000E+00 0. -1.
         21   -1    0    0  501  502 -0.00000000000E+00 -0.00000000000E+00 -0.87476075239E+02  0.87476075239E+02  0.00000000000E+00 0. -1.
      99926    2    1    2    0    0  0.00000000000E+00  0.00000000000E+00  0.50379892654E+03  0.67875107701E+03  0.45485125719E+03 0.  0.
      99925    2    3    3    0    0 -0.58439143332E+02 -0.59185006767E+02  0.20323060690E+03  0.34273497418E+03  0.26314745760E+03 0.  0.
         25    1    4    4    0    0 -0.55270942201E+02  0.14856795609E+01  0.10645108557E+03  0.17331020170E+03  0.12509000000E+03 0.  0.
         25    1    3    3    0    0  0.58439143332E+02  0.59185006767E+02  0.30056831963E+03  0.33601610284E+03  0.12509000000E+03 0.  0.
         25    1    4    4    0    0 -0.31682011306E+01 -0.60670686328E+02  0.96779521338E+02  0.16942477248E+03  0.12509000000E+03 0.  0.
<mgrwt>
<rscale>  2 0.45485126E+03</rscale>
<asrwt>0</asrwt>
<pdfrwt beam="1">  1       21 0.86952204E-01 0.45485126E+03</pdfrwt>
<pdfrwt beam="2">  1       21 0.12864129E-01 0.45485126E+03</pdfrwt>
<totfact> 0.54135753E+04</totfact>
</mgrwt>
</event>
<event>
 6    0  0.4770865E-002  0.4452458E+03  0.7546771E-02  0.1029149E+00
         21   -1    0    0  502  501  0.00000000000E+00  0.00000000000E+00  0.65770326726E+02  0.65770326726E+02  0.00000000000E+00 0.  1.
         21   -1    0    0  501  502 -0.00000000000E+00 -0.00000000000E+00 -0.75354595350E+03  0.75354595350E+03  0.00000000000E+00 0.  1.
      99926    2    1    2    0    0  0.00000000000E+00  0.00000000000E+00 -0.68777562677E+03  0.81931628022E+03  0.44524583575E+03 0.  0.
         25    1    3    3    0    0  0.76016296232E+02  0.54859528624E+02 -0.31809881289E+03  0.35443251549E+03  0.12509000000E+03 0.  0.
         25    1    3    3    0    0 -0.66446157509E+02 -0.65339293581E+02 -0.20487339591E+03  0.25749743996E+03  0.12509000000E+03 0.  0.
         25    1    3    3    0    0 -0.95701387233E+01  0.10479764956E+02 -0.16480341797E+03  0.20738632477E+03  0.12509000000E+03 0.  0.
<mgrwt>
<rscale>  2 0.44524584E+03</rscale>
<asrwt>0</asrwt>
<pdfrwt beam="1">  1       21 0.96721073E-02 0.44524584E+03</pdfrwt>
<pdfrwt beam="2">  1       21 0.11081558E+00 0.44524584E+03</pdfrwt>
<totfact> 0.50608360E+04</totfact>
</mgrwt>
</event>
<event>
 7    0  0.4770865E-002  0.4424189E+03  0.7546771E-02  0.1030007E+00
         21   -1    0    0  502  501  0.00000000000E+00  0.00000000000E+00  0.59189208923E+03  0.59189208923E+03  0.00000000000E+00 0. -1.
         21   -1    0    0  501  502 -0.00000000000E+00 -0.00000000000E+00 -0.82673199852E+02  0.82673199852E+02  0.00000000000E+00 0. -1.
      99926    2    1    2    0    0  0.00000000000E+00  0.00000000000E+00  0.50921888937E+03  0.67456528908E+03  0.44241886480E+03 0.  0.
      99925    2    3    3    0    0  0.35427364617E+02 -0.35914596378E+02  0.45753958521E+03  0.53012424582E+03  0.26295301402E+03 0.  0.
         25    1    3    3    0    0 -0.35427364617E+02  0.35914596378E+02  0.51679304167E+02  0.14444104325E+03  0.12509000000E+03 0.  0.
         25    1    4    4    0    0  0.79165608749E+01 -0.32647506412E+02  0.15779046572E+03  0.20414179088E+03  0.12509000000E+03 0.  0.
         25    1    4    4    0    0  0.27510803742E+02 -0.32670899659E+01  0.29974911949E+03  0.32598245495E+03  0.12509000000E+03 0.  0.
<mgrwt>
<rscale>  2 0.44241886E+03</rscale>
<asrwt>0</asrwt>
<pdfrwt beam="1">  1       21 0.87042953E-01 0.44241886E+03</pdfrwt>
<pdfrwt beam="2">  1       21 0.12157824E-01 0.44241886E+03</pdfrwt>
<totfact> 0.60037388E+04</totfact>
</mgrwt>
</event>
<event>
 7    0  0.4770865E-002  0.4506176E+03  0.7546771E-02  0.1027538E+00
         21   -1    0    0  502  501  0.00000000000E+00  0.00000000000E+00  0.10250477065E+03  0.10250477065E+03  0.00000000000E+00 0. -1.
         21   -1    0    0  501  502 -0.00000000000E+00 -0.00000000000E+00 -0.49523600996E+03  0.49523600996E+03  0.00000000000E+00 0. -1.
      99926    2    1    2    0    0  0.00000000000E+00  0.00000000000E+00 -0.39273123931E+03  0.59774078060E+03  0.45061759228E+03 0.  0.
      99925    2    3    3    0    0 -0.10446835123E+03 -0.30183863780E+02 -0.25813601639E+03  0.38422711787E+03  0.26300489179E+03 0.  0.
         25    1    4    4    0    0 -0.87401585914E+02 -0.30465061870E+01 -0.11265589059E+03  0.18970286293E+03  0.12509000000E+03 0.  0.
         25    1    4    4    0    0 -0.17066765319E+02 -0.27137357593E+02 -0.14548012580E+03  0.19452425494E+03  0.12509000000E+03 0.  0.
         25    1    3    3    0    0  0.10446835123E+03  0.30183863780E+02 -0.13459522292E+03  0.21351366273E+03  0.12509000000E+03 0.  0.
<mgrwt>
<rscale>  2 0.45061759E+03</rscale>
<asrwt>0</asrwt>
<pdfrwt beam="1">  1       21 0.15074231E-01 0.45061759E+03</pdfrwt>
<pdfrwt beam="2">  1       21 0.72828825E-01 0.45061759E+03</pdfrwt>
<totfact> 0.60899126E+04</totfact>
</mgrwt>
</event>
<event>
 7    0  0.4770865E-002  0.4438591E+03  0.7546771E-02  0.1029569E+00
         21   -1    0    0  502  501  0.00000000000E+00  0.00000000000E+00  0.12835303419E+03  0.12835303419E+03  0.00000000000E+00 0.  1.
         21   -1    0    0  501  502 -0.00000000000E+00 -0.00000000000E+00 -0.38372855513E+03  0.38372855513E+03  0.00000000000E+00 0.  1.
      99926    2    1    2    0    0  0.00000000000E+00  0.00000000000E+00 -0.25537552093E+03  0.51208158932E+03  0.44385909637E+03 0.  0.
      99925    2    3    3    0    0  0.14309741610E+02  0.96838924763E+02 -0.13144670092E+03  0.31061594316E+03  0.26385883140E+03 0.  0.
         25    1    3    3    0    0 -0.14309741610E+02 -0.96838924763E+02 -0.12392882002E+03  0.20146564617E+03  0.12509000000E+03 0.  0.
         25    1    4    4    0    0  0.16428940955E+02  0.60838319319E+02 -0.11125365444E+03  0.17887452285E+03  0.12509000000E+03 0.  0.
         25    1    4    4    0    0 -0.21191993456E+01  0.36000605445E+02 -0.20193046473E+02  0.13174142031E+03  0.12509000000E+03 0.  0.
<mgrwt>
<rscale>  2 0.44385910E+03</rscale>
<asrwt>0</asrwt>
<pdfrwt beam="1">  1       21 0.18875446E-01 0.44385910E+03</pdfrwt>
<pdfrwt beam="2">  1       21 0.56430670E-01 0.44385910E+03</pdfrwt>
<totfact> 0.70454704E+04</totfact>
</mgrwt>
</event>
<event>
 7    0  0.4770865E-002  0.4546045E+03  0.7546771E-02  0.1026358E+00
         21   -1    0    0  502  501  0.00000000000E+00  0.00000000000E+00  0.37178146284E+02  0.37178146284E+02  0.00000000000E+00 0. -1.
         21   -1    0    0  501  502 -0.00000000000E+00 -0.00000000000E+00 -0.13896957215E+04  0.13896957215E+04  0.00000000000E+00 0. -1.
      99926    2    1    2    0    0  0.00000000000E+00  0.00000000000E+00 -0.13525175752E+04  0.14268738678E+04  0.45460449107E+03 0.  0.
      99925    2    3    3    0    0  0.43338407557E+02  0.33749271764E+02 -0.11605787252E+04  0.11912783221E+04  0.26302819683E+03 0.  0.
         25    1    4    4    0    0 -0.59416674607E+01  0.38792958300E+02 -0.48333175226E+03  0.50079665322E+03  0.12509000000E+03 0.  0.
         25    1    4    4    0    0  0.49280075017E+02 -0.50436865352E+01 -0.67724697296E+03  0.69048166887E+03  0.12509000000E+03 0.  0.
         25    1    3    3    0    0 -0.43338407557E+02 -0.33749271764E+02 -0.19193884999E+03  0.23559554569E+03  0.12509000000E+03 0.  0.
<mgrwt>
<rscale>  2 0.45460449E+03</rscale>
<asrwt>0</asrwt>
<pdfrwt beam="1">  1       21 0.54673745E-02 0.45460449E+03</pdfrwt>
<pdfrwt beam="2">  1       21 0.20436702E+00 0.45460449E+03</pdfrwt>
<totfact> 0.25703501E+04</totfact>
</mgrwt>
</event>
<event>
 7    0  0.4770865E-002  0.4585324E+03  0.7546771E-02  0.1025208E+00
         21   -1    0    0  502  501  0.00000000000E+00  0.00000000000E+00  0.71384517109E+03  0.71384517109E+03  0.00000000000E+00 0. -1.
         21   -1    0    0  501  502 -0.00000000000E+00 -0.00000000000E+00 -0.73633601096E+02  0.73633601096E+02  0.00000000000E+00 0. -1.
      99926    2    1    2    0    0  0.00000000000E+00  0.00000000000E+00  0.64021156999E+03  0.78747877218E+03  0.45853240048E+03 0.  0.
      99925    2    3    3    0    0  0.16917941004E+02  0.46478972679E+02  0.58257044816E+03  0.64113493509E+03  0.26309535589E+03 0.  0.
         25    1    3    3    0    0 -0.16917941004E+02 -0.46478972679E+02  0.57641121828E+02  0.14634383709E+03  0.12509000000E+03 0.  0.
         25    1    4    4    0    0 -0.28800942963E+02  0.39270392015E+02  0.28386099007E+03  0.31400036272E+03  0.12509000000E+03 0.  0.
         25    1    4    4    0    0  0.45718883967E+02  0.72085806636E+01  0.29870945809E+03  0.32713457237E+03  0.12509000000E+03 0.  0.
<mgrwt>
<rscale>  2 0.45853240E+03</rscale>
<asrwt>0</asrwt>
<pdfrwt beam="1">  1       21 0.10497723E+00 0.45853240E+03</pdfrwt>
<pdfrwt beam="2">  1       21 0.10828471E-01 0.45853240E+03</pdfrwt>
<totfact> 0.47058155E+04</totfact>
</mgrwt>
</event>
<event>
 6    0  0.4770865E-002  0.4543107E+03  0.7546771E-02  0.1026444E+00
         21   -1    0    0  502  501  0.00000000000E+00  0.00000000000E+00  0.14650664013E+03  0.14650664013E+03  0.00000000000E+00 0.  1.
         21   -1    0    0  501  502 -0.00000000000E+00 -0.00000000000E+00 -0.35219943590E+03  0.35219943590E+03  0.00000000000E+00 0.  1.
      99926    2    1    2    0    0  0.00000000000E+00  0.14210854715E-13 -0.20569279577E+03  0.49870607603E+03  0.45431071311E+03 0.  0.
         25    1    3    3    0    0 -0.23694259327E+02  0.98075619115E+02 -0.69648441584E+02  0.17515324292E+03  0.12509000000E+03 0.  0.
         25    1    3    3    0    0  0.33209177520E+02 -0.97695295356E+02 -0.44194511911E+02  0.16807106589E+03  0.12509000000E+03 0.  0.
         25    1    3    3    0    0 -0.95149181936E+01 -0.38032375885E+00 -0.91849842271E+02  0.15548176723E+03  0.12509000000E+03 0.  0.
<mgrwt>
<rscale>  2 0.45431071E+03</rscale>
<asrwt>0</asrwt>
<pdfrwt beam="1">  1       21 0.21545095E-01 0.45431071E+03</pdfrwt>
<pdfrwt beam="2">  1       21 0.51794034E-01 0.45431071E+03</pdfrwt>
<totfact> 0.65720524E+04</totfact>
</mgrwt>
</event>
<event>
 7    0  0.4770865E-002  0.4254374E+03  0.7546771E-02  0.1035311E+00
         21   -1    0    0  502  501  0.00000000000E+00  0.00000000000E+00  0.26844080770E+03  0.26844080770E+03  0.00000000000E+00 0.  1.
         21   -1    0    0  501  502 -0.00000000000E+00 -0.00000000000E+00 -0.16856317848E+03  0.16856317848E+03  0.00000000000E+00 0.  1.
      99926    2    1    2    0    0 -0.35527136788E-14  0.00000000000E+00  0.99877629226E+02  0.43700398618E+03  0.42543735511E+03 0.  0.
      99925    2    3    3    0    0  0.23370460320E+02 -0.35962893529E+02  0.13689848320E+03  0.29968115539E+03  0.26311231835E+03 0.  0.
         25    1    4    4    0    0  0.49837348844E+02 -0.24445471630E+02  0.85693593442E+02  0.16146901399E+03  0.12509000000E+03 0.  0.
         25    1    3    3    0    0 -0.23370460320E+02  0.35962893529E+02 -0.37020853976E+02  0.13732283079E+03  0.12509000000E+03 0.  0.
         25    1    4    4    0    0 -0.26466888524E+02 -0.11517421899E+02  0.51204889760E+02  0.13821214140E+03  0.12509000000E+03 0.  0.
<mgrwt>
<rscale>  2 0.42543736E+03</rscale>
<asrwt>0</asrwt>
<pdfrwt beam="1">  1       21 0.39476589E-01 0.42543736E+03</pdfrwt>
<pdfrwt beam="2">  1       21 0.24788703E-01 0.42543736E+03</pdfrwt>
<totfact> 0.89099967E+04</totfact>
</mgrwt>
</event>
<event>
 7    0  0.4770865E-002  0.4549090E+03  0.7546771E-02  0.1026268E+00
         21   -1    0    0  502  501  0.00000000000E+00  0.00000000000E+00  0.40917051426E+03  0.40917051426E+03  0.00000000000E+00 0. -1.
         21   -1    0    0  501  502 -0.00000000000E+00 -0.00000000000E+00 -0.12644007548E+03  0.12644007548E+03  0.00000000000E+00 0. -1.
      99926    2    1    2    0    0 -0.71054273576E-14 -0.14210854715E-13  0.28273043878E+03  0.53561058974E+03  0.45490900500E+03 0.  0.
      99925    2    3    3    0    0  0.47678792800E+02  0.98405860504E+02  0.21186764896E+03  0.35498383716E+03  0.26299932188E+03 0.  0.
         25    1    4    4    0    0  0.64527903149E+02  0.57803594476E+02  0.10910986948E+03  0.18723668855E+03  0.12509000000E+03 0.  0.
         25    1    3    3    0    0 -0.47678792800E+02 -0.98405860504E+02  0.70862789818E+02  0.18062675257E+03  0.12509000000E+03 0.  0.
         25    1    4    4    0    0 -0.16849110349E+02  0.40602266029E+02  0.10275777948E+03  0.16774714862E+03  0.12509000000E+03 0.  0.
<mgrwt>
<rscale>  2 0.45490900E+03</rscale>
<asrwt>0</asrwt>
<pdfrwt beam="1">  1       21 0.60172134E-01 0.45490900E+03</pdfrwt>
<pdfrwt beam="2">  1       21 0.18594129E-01 0.45490900E+03</pdfrwt>
<totfact> 0.62872776E+04</totfact>
</mgrwt>
</event>
<event>
 7    0  0.4770865E-002  0.4065940E+03  0.7546771E-02  0.1041520E+00
         21   -1    0    0  502  501  0.00000000000E+00  0.00000000000E+00  0.16544914709E+03  0.16544914709E+03  0.00000000000E+00 0.  1.
         21   -1    0    0  501  502 -0.00000000000E+00 -0.00000000000E+00 -0.24980286003E+03  0.24980286003E+03  0.00000000000E+00 0.  1.
      99926    2    1    2    0    0  0.00000000000E+00  0.00000000000E+00 -0.84353712941E+02  0.41525200712E+03  0.40659399962E+03 0.  0.
      99925    2    3    3    0    0 -0.52772127083E+02 -0.15661492109E+02 -0.71301695019E+02  0.27796383208E+03  0.26296345849E+03 0.  0.
         25    1    4    4    0    0 -0.11093807717E+02 -0.10896626052E+02 -0.73677396223E+02  0.14600573908E+03  0.12509000000E+03 0.  0.
         25    1    4    4    0    0 -0.41678319367E+02 -0.47648660573E+01  0.23757012038E+01  0.13195809301E+03  0.12509000000E+03 0.  0.
         25    1    3    3    0    0  0.52772127083E+02  0.15661492109E+02 -0.13052017923E+02  0.13728817503E+03  0.12509000000E+03 0.  0.
<mgrwt>
<rscale>  2 0.40659400E+03</rscale>
<asrwt>0</asrwt>
<pdfrwt beam="1">  1       21 0.24330757E-01 0.40659400E+03</pdfrwt>
<pdfrwt beam="2">  1       21 0.36735714E-01 0.40659400E+03</pdfrwt>
<totfact> 0.10740677E+05</totfact>
</mgrwt>
</event>
<event>
 7    0  0.4770865E-002  0.4555715E+03  0.7546771E-02  0.1026073E+00
         21   -1    0    0  502  501  0.00000000000E+00  0.00000000000E+00  0.59122476334E+02  0.59122476334E+02  0.00000000000E+00 0. -1.
         21   -1    0    0  501  502 -0.00000000000E+00 -0.00000000000E+00 -0.87760799410E+03  0.87760799410E+03  0.00000000000E+00 0. -1.
      99926    2    1    2    0    0 -0.35527136788E-14  0.00000000000E+00 -0.81848551776E+03  0.93673047043E+03  0.45557154372E+03 0.  0.
      99925    2    3    3    0    0  0.29147083110E+02 -0.10007744136E+02 -0.29019956373E+03  0.39296281350E+03  0.26316207669E+03 0.  0.
         25    1    3    3    0    0 -0.29147083110E+02  0.10007744136E+02 -0.52828595403E+03  0.54376765693E+03  0.12509000000E+03 0.  0.
         25    1    4    4    0    0  0.30213788708E+02 -0.82123753052E+01 -0.91336926249E+02  0.15801980361E+03  0.12509000000E+03 0.  0.
         25    1    4    4    0    0 -0.10667055982E+01 -0.17953688303E+01 -0.19886263748E+03  0.23494300989E+03  0.12509000000E+03 0.  0.
<mgrwt>
<rscale>  2 0.45557154E+03</rscale>
<asrwt>0</asrwt>
<pdfrwt beam="1">  1       21 0.86944818E-02 0.45557154E+03</pdfrwt>
<pdfrwt beam="2">  1       21 0.12906000E+00 0.45557154E+03</pdfrwt>
<totfact> 0.41497048E+04</totfact>
</mgrwt>
</event>
<event>
 7    0  0.4770865E-002  0.4448086E+03  0.7546771E-02  0.1029282E+00
         21   -1    0    0  502  501  0.00000000000E+00  0.00000000000E+00  0.20548377089E+03  0.20548377089E+03  0.00000000000E+00 0.  1.
         21   -1    0    0  501  502 -0.00000000000E+00 -0.00000000000E+00 -0.24071811849E+03  0.24071811849E+03  0.00000000000E+00 0.  1.
      99926    2    1    2    0    0  0.00000000000E+00  0.35527136788E-14 -0.35234347601E+02  0.44620188938E+03  0.44480857325E+03 0.  0.
      99925    2    3    3    0    0  0.10040964732E+03 -0.24214848698E+02 -0.22788165465E+02  0.28350317482E+03  0.26303287527E+03 0.  0.
         25    1    4    4    0    0  0.29826165825E+02 -0.36479299890E+02 -0.36875862065E+02  0.13866389866E+03  0.12509000000E+03 0.  0.
         25    1    4    4    0    0  0.70583481492E+02  0.12264451192E+02  0.14087696600E+02  0.14483927616E+03  0.12509000000E+03 0.  0.
         25    1    3    3    0    0 -0.10040964732E+03  0.24214848698E+02 -0.12446182136E+02  0.16269871457E+03  0.12509000000E+03 0.  0.
<mgrwt>
<rscale>  2 0.44480857E+03</rscale>
<asrwt>0</asrwt>
<pdfrwt beam="1">  1       21 0.30218202E-01 0.44480857E+03</pdfrwt>
<pdfrwt beam="2">  1       21 0.35399723E-01 0.44480857E+03</pdfrwt>
<totfact> 0.75120264E+04</totfact>
</mgrwt>
</event>
<event>
 7    0  0.4770865E-002  0.4522450E+03  0.7546771E-02  0.1027055E+00
         21   -1    0    0  502  501  0.00000000000E+00  0.00000000000E+00  0.80457746215E+02  0.80457746215E+02  0.00000000000E+00 0.  1.
         21   -1    0    0  501  502 -0.00000000000E+00 -0.00000000000E+00 -0.63550599638E+03  0.63550599638E+03  0.00000000000E+00 0.  1.
      99926    2    1    2    0    0  0.00000000000E+00  0.00000000000E+00 -0.55504825017E+03  0.71596374260E+03  0.45224497863E+03 0.  0.
      99925    2    3    3    0    0  0.84597111463E+02 -0.37021184426E+02 -0.44639258609E+03  0.52627768407E+03  0.26301068508E+03 0.  0.
         25    1    4    4    0    0  0.38155365297E+02  0.73503827189E+01 -0.27485231427E+03  0.30446865650E+03  0.12509000000E+03 0.  0.
         25    1    3    3    0    0 -0.84597111463E+02  0.37021184426E+02 -0.10865566408E+03  0.18968605853E+03  0.12509000000E+03 0.  0.
         25    1    4    4    0    0  0.46441746166E+02 -0.44371567145E+02 -0.17154027182E+03  0.22180902757E+03  0.12509000000E+03 0.  0.
<mgrwt>
<rscale>  2 0.45224498E+03</rscale>
<asrwt>0</asrwt>
<pdfrwt beam="1">  1       21 0.11832021E-01 0.45224498E+03</pdfrwt>
<pdfrwt beam="2">  1       21 0.93456765E-01 0.45224498E+03</pdfrwt>
<totfact> 0.53188172E+04</totfact>
</mgrwt>
</event>
<event>
 7    0  0.4770865E-002  0.4641490E+03  0.7546771E-02  0.1023585E+00
         21   -1    0    0  502  501  0.00000000000E+00  0.00000000000E+00  0.72315567447E+02  0.72315567447E+02  0.00000000000E+00 0.  1.
         21   -1    0    0  501  502 -0.00000000000E+00 -0.00000000000E+00 -0.74477154947E+03  0.74477154947E+03  0.00000000000E+00 0.  1.
      99926    2    1    2    0    0  0.00000000000E+00  0.71054273576E-14 -0.67245598202E+03  0.81708711692E+03  0.46414901581E+03 0.  0.
      99925    2    3    3    0    0  0.54395172624E+02 -0.33117070699E+02 -0.60210907016E+03  0.66007829142E+03  0.26289245568E+03 0.  0.
         25    1    3    3    0    0 -0.54395172624E+02  0.33117070699E+02 -0.70346911861E+02  0.15700882550E+03  0.12509000000E+03 0.  0.
         25    1    4    4    0    0  0.13736436827E+02 -0.29573750283E+02 -0.38592351327E+03  0.40699847984E+03  0.12509000000E+03 0.  0.
         25    1    4    4    0    0  0.40658735797E+02 -0.35433204154E+01 -0.21618555690E+03  0.25307981158E+03  0.12509000000E+03 0.  0.
<mgrwt>
<rscale>  2 0.46414902E+03</rscale>
<asrwt>0</asrwt>
<pdfrwt beam="1">  1       21 0.10634642E-01 0.46414902E+03</pdfrwt>
<pdfrwt beam="2">  1       21 0.10952523E+00 0.46414902E+03</pdfrwt>
<totfact> 0.43724828E+04</totfact>
</mgrwt>
</event>
<event>
 7    0  0.4770865E-002  0.4541868E+03  0.7546771E-02  0.1026481E+00
         21   -1    0    0  502  501  0.00000000000E+00  0.00000000000E+00  0.78430152908E+03  0.78430152908E+03  0.00000000000E+00 0.  1.
         21   -1    0    0  501  502 -0.00000000000E+00 -0.00000000000E+00 -0.65754577941E+02  0.65754577941E+02  0.00000000000E+00 0.  1.
      99926    2    1    2    0    0  0.00000000000E+00  0.00000000000E+00  0.71854695114E+03  0.85005610702E+03  0.45418681629E+03 0.  0.
      99925    2    3    3    0    0 -0.58189658851E+02 -0.50689441935E+02  0.60617552734E+03  0.66504178080E+03  0.26244303066E+03 0.  0.
         25    1    4    4    0    0 -0.40726089224E+02 -0.19912459194E+02  0.39759370868E+03  0.41926529269E+03  0.12509000000E+03 0.  0.
         25    1    4    4    0    0 -0.17463569627E+02 -0.30776982741E+02  0.20858181866E+03  0.24577648811E+03  0.12509000000E+03 0.  0.
         25    1    3    3    0    0  0.58189658851E+02  0.50689441935E+02  0.11237142380E+03  0.18501432622E+03  0.12509000000E+03 0.  0.
<mgrwt>
<rscale>  2 0.45418682E+03</rscale>
<asrwt>0</asrwt>
<pdfrwt beam="1">  1       21 0.11533845E+00 0.45418682E+03</pdfrwt>
<pdfrwt beam="2">  1       21 0.96697913E-02 0.45418682E+03</pdfrwt>
<totfact> 0.45727871E+04</totfact>
</mgrwt>
</event>
<event>
 7    0  0.4770865E-002  0.4572419E+03  0.7546771E-02  0.1025584E+00
         21   -1    0    0  502  501  0.00000000000E+00  0.00000000000E+00  0.11965700957E+03  0.11965700957E+03  0.00000000000E+00 0.  1.
         21   -1    0    0  501  502 -0.00000000000E+00 -0.00000000000E+00 -0.43681129480E+03  0.43681129480E+03  0.00000000000E+00 0.  1.
      99926    2    1    2    0    0  0.71054273576E-14  0.00000000000E+00 -0.31715428524E+03  0.55646830437E+03  0.45724187596E+03 0.  0.
      99925    2    3    3    0    0 -0.59322902803E+02 -0.45824433401E+02 -0.30573966115E+03  0.41019155558E+03  0.26298533491E+03 0.  0.
         25    1    3    3    0    0  0.59322902803E+02  0.45824433401E+02 -0.11414624084E+02  0.14627674879E+03  0.12509000000E+03 0.  0.
         25    1    4    4    0    0 -0.22172559633E+02  0.41471967550E+01 -0.19079485559E+03  0.22925751168E+03  0.12509000000E+03 0.  0.
         25    1    4    4    0    0 -0.37150343170E+02 -0.49971630156E+02 -0.11494480556E+03  0.18093404391E+03  0.12509000000E+03 0.  0.
<mgrwt>
<rscale>  2 0.45724188E+03</rscale>
<asrwt>0</asrwt>
<pdfrwt beam="1">  1       21 0.17596619E-01 0.45724188E+03</pdfrwt>
<pdfrwt beam="2">  1       21 0.64236954E-01 0.45724188E+03</pdfrwt>
<totfact> 0.60363425E+04</totfact>
</mgrwt>
</event>
<event>
 7    0  0.4770865E-002  0.4564476E+03  0.7546771E-02  0.1025817E+00
         21   -1    0    0  502  501  0.00000000000E+00  0.00000000000E+00  0.98835365802E+02  0.98835365802E+02  0.00000000000E+00 0.  1.
         21   -1    0    0  501  502 -0.00000000000E+00 -0.00000000000E+00 -0.52699854446E+03  0.52699854446E+03  0.00000000000E+00 0.  1.
      99926    2    1    2    0    0 -0.66613381478E-15  0.00000000000E+00 -0.42816317866E+03  0.62583391026E+03  0.45644756071E+03 0.  0.
      99925    2    3    3    0    0  0.19852968979E+01  0.10178404779E+03 -0.34119321180E+03  0.44259849604E+03  0.26290052707E+03 0.  0.
         25    1    4    4    0    0  0.26235144359E+02  0.17425811226E+02 -0.14986738146E+03  0.19773639478E+03  0.12509000000E+03 0.  0.
         25    1    3    3    0    0 -0.19852968979E+01 -0.10178404779E+03 -0.86969966863E+02  0.18323541422E+03  0.12509000000E+03 0.  0.
         25    1    4    4    0    0 -0.24249847461E+02  0.84358236567E+02 -0.19132583034E+03  0.24486210126E+03  0.12509000000E+03 0.  0.
<mgrwt>
<rscale>  2 0.45644756E+03</rscale>
<asrwt>0</asrwt>
<pdfrwt beam="1">  1       21 0.14534613E-01 0.45644756E+03</pdfrwt>
<pdfrwt beam="2">  1       21 0.77499785E-01 0.45644756E+03</pdfrwt>
<totfact> 0.56467520E+04</totfact>
</mgrwt>
</event>
<event>
 7    0  0.4770865E-002  0.4556802E+03  0.7546771E-02  0.1026042E+00
         21   -1    0    0  502  501  0.00000000000E+00  0.00000000000E+00  0.17094578140E+03  0.17094578140E+03  0.00000000000E+00 0. -1.
         21   -1    0    0  501  502 -0.00000000000E+00 -0.00000000000E+00 -0.30367002798E+03  0.30367002798E+03  0.00000000000E+00 0. -1.
      99926    2    1    2    0    0  0.00000000000E+00 -0.71054273576E-14 -0.13272424658E+03  0.47461580938E+03  0.45568019585E+03 0.  0.
      99925    2    3    3    0    0 -0.81597453513E+02 -0.34777293753E+02 -0.92864720570E+01  0.27776054057E+03  0.26305336864E+03 0.  0.
         25    1    4    4    0    0 -0.11527257152E+02  0.76804711783E+01  0.13206817959E+02  0.12654562590E+03  0.12509000000E+03 0.  0.
         25    1    3    3    0    0  0.81597453513E+02  0.34777293753E+02 -0.12343777453E+03  0.19685526882E+03  0.12509000000E+03 0.  0.
         25    1    4    4    0    0 -0.70070196361E+02 -0.42457764931E+02 -0.22493290016E+02  0.15121491466E+03  0.12509000000E+03 0.  0.
<mgrwt>
<rscale>  2 0.45568020E+03</rscale>
<asrwt>0</asrwt>
<pdfrwt beam="1">  1       21 0.25139085E-01 0.45568020E+03</pdfrwt>
<pdfrwt beam="2">  1       21 0.44657357E-01 0.45568020E+03</pdfrwt>
<totfact> 0.66733249E+04</totfact>
</mgrwt>
</event>
<event>
 7    0  0.4770865E-002  0.4529247E+03  0.7546771E-02  0.1026853E+00
         21   -1    0    0  502  501  0.00000000000E+00  0.00000000000E+00  0.16670129603E+03  0.16670129603E+03  0.00000000000E+00 0.  1.
         21   -1    0    0  501  502 -0.00000000000E+00 -0.00000000000E+00 -0.30764725525E+03  0.30764725525E+03  0.00000000000E+00 0.  1.
      99926    2    1    2    0    0  0.17763568394E-14  0.14210854715E-13 -0.14094595922E+03  0.47434855128E+03  0.45292470090E+03 0.  0.
      99925    2    3    3    0    0  0.89762342632E+01 -0.10362473181E+03 -0.13030282618E+03  0.31131652313E+03  0.26290776564E+03 0.  0.
         25    1    4    4    0    0  0.40072424695E+02 -0.72897704540E+02 -0.68695140702E+02  0.16518597097E+03  0.12509000000E+03 0.  0.
         25    1    4    4    0    0 -0.31096190432E+02 -0.30727027271E+02 -0.61607685477E+02  0.14613055216E+03  0.12509000000E+03 0.  0.
         25    1    3    3    0    0 -0.89762342632E+01  0.10362473181E+03 -0.10643133042E+02  0.16303202816E+03  0.12509000000E+03 0.  0.
<mgrwt>
<rscale>  2 0.45292470E+03</rscale>
<asrwt>0</asrwt>
<pdfrwt beam="1">  1       21 0.24514897E-01 0.45292470E+03</pdfrwt>
<pdfrwt beam="2">  1       21 0.45242243E-01 0.45292470E+03</pdfrwt>
<totfact> 0.68230674E+04</totfact>
</mgrwt>
</event>
<event>
 6    0  0.4770865E-002  0.4737369E+03  0.7546771E-02  0.1020871E+00
         21   -1    0    0  502  501  0.00000000000E+00  0.00000000000E+00  0.65274250468E+02  0.65274250468E+02  0.00000000000E+00 0.  1.
         21   -1    0    0  501  502 -0.00000000000E+00 -0.00000000000E+00 -0.85955276181E+03  0.85955276181E+03  0.00000000000E+00 0.  1.
      99926    2    1    2    0    0 -0.53290705182E-14  0.14210854715E-13 -0.79427851134E+03  0.92482701227E+03  0.47373689856E+03 0.  0.
         25    1    3    3    0    0 -0.13449644199E+02  0.92523653927E+02 -0.47098141569E+03  0.49619806679E+03  0.12509000000E+03 0.  0.
         25    1    3    3    0    0  0.43945444611E+02 -0.23153708078E+02 -0.14116897765E+03  0.19504739078E+03  0.12509000000E+03 0.  0.
         25    1    3    3    0    0 -0.30495800412E+02 -0.69369945849E+02 -0.18212811800E+03  0.23358155470E+03  0.12509000000E+03 0.  0.
<mgrwt>
<rscale>  2 0.47373690E+03</rscale>
<asrwt>0</asrwt>
<pdfrwt beam="1">  1       21 0.95991551E-02 0.47373690E+03</pdfrwt>
<pdfrwt beam="2">  1       21 0.12640481E+00 0.47373690E+03</pdfrwt>
<totfact> 0.36520019E+04</totfact>
</mgrwt>
</event>
<event>
 7    0  0.4770865E-002  0.4672027E+03  0.7546771E-02  0.1022713E+00
         21   -1    0    0  502  501  0.00000000000E+00  0.00000000000E+00  0.17153051701E+03  0.17153051701E+03  0.00000000000E+00 0.  1.
         21   -1    0    0  501  502 -0.00000000000E+00 -0.00000000000E+00 -0.31813339445E+03  0.31813339445E+03  0.00000000000E+00 0.  1.
      99926    2    1    2    0    0  0.00000000000E+00  0.00000000000E+00 -0.14660287745E+03  0.48966391146E+03  0.46720267820E+03 0.  0.
      99925    2    3    3    0    0  0.25129193118E+02  0.98392150588E+02 -0.16188614074E+02  0.28237696099E+03  0.26298704385E+03 0.  0.
         25    1    4    4    0    0 -0.16720293245E+01  0.84351834922E+02 -0.26795961920E+02  0.15324346450E+03  0.12509000000E+03 0.  0.
         25    1    4    4    0    0  0.26801222442E+02  0.14040315666E+02  0.10607347845E+02  0.12913349649E+03  0.12509000000E+03 0.  0.
         25    1    3    3    0    0 -0.25129193118E+02 -0.98392150588E+02 -0.13041426337E+03  0.20728695047E+03  0.12509000000E+03 0.  0.
<mgrwt>
<rscale>  2 0.46720268E+03</rscale>
<asrwt>0</asrwt>
<pdfrwt beam="1">  1       21 0.25225077E-01 0.46720268E+03</pdfrwt>
<pdfrwt beam="2">  1       21 0.46784321E-01 0.46720268E+03</pdfrwt>
<totfact> 0.59979314E+04</totfact>
</mgrwt>
</event>
<event>
 7    0  0.4770865E-002  0.4483421E+03  0.7546771E-02  0.1028218E+00
         21   -1    0    0  502  501  0.00000000000E+00  0.00000000000E+00  0.18290581216E+03  0.18290581216E+03  0.00000000000E+00 0.  1.
         21   -1    0    0  501  502 -0.00000000000E+00 -0.00000000000E+00 -0.27474609023E+03  0.27474609023E+03  0.00000000000E+00 0.  1.
      99926    2    1    2    0    0  0.00000000000E+00 -0.14210854715E-13 -0.91840278073E+02  0.45765190239E+03  0.44834208712E+03 0.  0.
      99925    2    3    3    0    0  0.27541443635E+02  0.87576526770E+02 -0.22993096430E+01  0.27850594992E+03  0.26292983505E+03 0.  0.
         25    1    3    3    0    0 -0.27541443635E+02 -0.87576526770E+02 -0.89540968430E+02  0.17914595247E+03  0.12509000000E+03 0.  0.
         25    1    4    4    0    0  0.11056842450E+02  0.78771688383E+02  0.21555040179E+02  0.14979773200E+03  0.12509000000E+03 0.  0.
         25    1    4    4    0    0  0.16484601186E+02  0.88048383869E+01 -0.23854349822E+02  0.12870821792E+03  0.12509000000E+03 0.  0.
<mgrwt>
<rscale>  2 0.44834209E+03</rscale>
<asrwt>0</asrwt>
<pdfrwt beam="1">  1       21 0.26897914E-01 0.44834209E+03</pdfrwt>
<pdfrwt beam="2">  1       21 0.40403836E-01 0.44834209E+03</pdfrwt>
<totfact> 0.72098930E+04</totfact>
</mgrwt>
</event>
<event>
 7    0  0.4770865E-002  0.4564799E+03  0.7546771E-02  0.1025807E+00
         21   -1    0    0  502  501  0.00000000000E+00  0.00000000000E+00  0.21644114127E+04  0.21644114127E+04  0.00000000000E+00 0. -1.
         21   -1    0    0  501  502 -0.00000000000E+00 -0.00000000000E+00 -0.24068191474E+02  0.24068191474E+02  0.00000000000E+00 0. -1.
      99926    2    1    2    0    0  0.14210854715E-13  0.14210854715E-13  0.21403432212E+04  0.21884796041E+04  0.45647987166E+03 0.  0.
      99925    2    3    3    0    0  0.37597625585E+02  0.69070637004E+02  0.17440758442E+04  0.17655615547E+04  0.26310210735E+03 0.  0.
         25    1    4    4    0    0 -0.18744041591E+01  0.68557418004E+02  0.97463415662E+03  0.98501922839E+03  0.12509000000E+03 0.  0.
         25    1    3    3    0    0 -0.37597625585E+02 -0.69070637004E+02  0.39626737704E+03  0.42291804945E+03  0.12509000000E+03 0.  0.
         25    1    4    4    0    0  0.39472029744E+02  0.51321900091E+00  0.76944168754E+03  0.78054232630E+03  0.12509000000E+03 0.  0.
<mgrwt>
<rscale>  2 0.45647987E+03</rscale>
<asrwt>0</asrwt>
<pdfrwt beam="1">  1       21 0.31829566E+00 0.45647987E+03</pdfrwt>
<pdfrwt beam="2">  1       21 0.35394414E-02 0.45647987E+03</pdfrwt>
<totfact> 0.10745548E+04</totfact>
</mgrwt>
</event>
<event>
 7    0  0.4770865E-002  0.4530273E+03  0.7546771E-02  0.1026823E+00
         21   -1    0    0  502  501  0.00000000000E+00  0.00000000000E+00  0.89844345237E+02  0.89844345237E+02  0.00000000000E+00 0.  1.
         21   -1    0    0  501  502 -0.00000000000E+00 -0.00000000000E+00 -0.57108128975E+03  0.57108128975E+03  0.00000000000E+00 0.  1.
      99926    2    1    2    0    0 -0.14210854715E-13  0.00000000000E+00 -0.48123694451E+03  0.66092563498E+03  0.45302725991E+03 0.  0.
      99925    2    3    3    0    0  0.99987272527E+02 -0.13852300899E+02 -0.23383259514E+03  0.36589044878E+03  0.26269525511E+03 0.  0.
         25    1    3    3    0    0 -0.99987272527E+02  0.13852300899E+02 -0.24740434937E+03  0.29503518620E+03  0.12509000000E+03 0.  0.
         25    1    4    4    0    0  0.12280045763E+02 -0.24114150022E+02 -0.97809185699E+02  0.16107897648E+03  0.12509000000E+03 0.  0.
         25    1    4    4    0    0  0.87707226764E+02  0.10261849123E+02 -0.13602340944E+03  0.20481147231E+03  0.12509000000E+03 0.  0.
<mgrwt>
<rscale>  2 0.45302726E+03</rscale>
<asrwt>0</asrwt>
<pdfrwt beam="1">  1       21 0.13212404E-01 0.45302726E+03</pdfrwt>
<pdfrwt beam="2">  1       21 0.83982539E-01 0.45302726E+03</pdfrwt>
<totfact> 0.55941010E+04</totfact>
</mgrwt>
</event>
<event>
 7    0  0.4770865E-002  0.4560383E+03  0.7546771E-02  0.1025937E+00
         21   -1    0    0  502  501  0.00000000000E+00  0.00000000000E+00  0.81570006952E+03  0.81570006952E+03  0.00000000000E+00 0. -1.
         21   -1    0    0  501  502 -0.00000000000E+00 -0.00000000000E+00 -0.63740020750E+02  0.63740020750E+02  0.00000000000E+00 0. -1.
      99926    2    1    2    0    0  0.14210854715E-13  0.00000000000E+00  0.75196004877E+03  0.87944009027E+03  0.45603832890E+03 0.  0.
      99925    2    3    3    0    0  0.71132263705E+02 -0.24666713598E+02  0.63869916747E+03  0.69465973138E+03  0.26257812203E+03 0.  0.
         25    1    4    4    0    0  0.54798386815E+02 -0.27694913016E+02  0.41569541079E+03  0.43842907529E+03  0.12509000000E+03 0.  0.
         25    1    3    3    0    0 -0.71132263705E+02  0.24666713598E+02  0.11326088129E+03  0.18478035889E+03  0.12509000000E+03 0.  0.
         25    1    4    4    0    0  0.16333876890E+02  0.30281994180E+01  0.22300375668E+03  0.25623065609E+03  0.12509000000E+03 0.  0.
<mgrwt>
<rscale>  2 0.45603833E+03</rscale>
<asrwt>0</asrwt>
<pdfrwt beam="1">  1       21 0.11995589E+00 0.45603833E+03</pdfrwt>
<pdfrwt beam="2">  1       21 0.93735330E-02 0.45603833E+03</pdfrwt>
<totfact> 0.43777505E+04</totfact>
</mgrwt>
</event>
<event>
 6    0  0.4770865E-002  0.4622812E+03  0.7546771E-02  0.1024122E+00
         21   -1    0    0  502  501  0.00000000000E+00  0.00000000000E+00  0.11381631426E+03  0.11381631426E+03  0.00000000000E+00 0.  1.
         21   -1    0    0  501  502 -0.00000000000E+00 -0.00000000000E+00 -0.46940526286E+03  0.46940526286E+03  0.00000000000E+00 0.  1.
      99926    2    1    2    0    0  0.00000000000E+00  0.00000000000E+00 -0.35558894860E+03  0.58322157712E+03  0.46228119977E+03 0.  0.
         25    1    3    3    0    0 -0.28926484399E+02  0.41208401571E+02 -0.10458942567E+03  0.17064972875E+03  0.12509000000E+03 0.  0.
         25    1    3    3    0    0  0.47491748608E+02  0.65200661691E+02 -0.61290349141E+02  0.16096772182E+03  0.12509000000E+03 0.  0.
         25    1    3    3    0    0 -0.18565264208E+02 -0.10640906326E+03 -0.18970917379E+03  0.25160412655E+03  0.12509000000E+03 0.  0.
<mgrwt>
<rscale>  2 0.46228120E+03</rscale>
<asrwt>0</asrwt>
<pdfrwt beam="1">  1       21 0.16737693E-01 0.46228120E+03</pdfrwt>
<pdfrwt beam="2">  1       21 0.69030185E-01 0.46228120E+03</pdfrwt>
<totfact> 0.56405622E+04</totfact>
</mgrwt>
</event>
<event>
 7    0  0.4770865E-002  0.4498995E+03  0.7546771E-02  0.1027752E+00
         21   -1    0    0  502  501  0.00000000000E+00  0.00000000000E+00  0.24524852325E+03  0.24524852325E+03  0.00000000000E+00 0.  1.
         21   -1    0    0  501  502 -0.00000000000E+00 -0.00000000000E+00 -0.20633105735E+03  0.20633105735E+03  0.00000000000E+00 0.  1.
      99926    2    1    2    0    0  0.00000000000E+00  0.00000000000E+00  0.38917465907E+02  0.45157958060E+03  0.44989948706E+03 0.  0.
      99925    2    3    3    0    0 -0.37316519193E+02 -0.27296448886E+02  0.12291975192E+03  0.29396768104E+03  0.26300211664E+03 0.  0.
         25    1    4    4    0    0  0.11622339448E+02  0.12474475445E+02  0.68918847846E+02  0.14383326111E+03  0.12509000000E+03 0.  0.
         25    1    4    4    0    0 -0.48938858641E+02 -0.39770924331E+02  0.54000904078E+02  0.15013441993E+03  0.12509000000E+03 0.  0.
         25    1    3    3    0    0  0.37316519193E+02  0.27296448886E+02 -0.84002286017E+02  0.15761189956E+03  0.12509000000E+03 0.  0.
<mgrwt>
<rscale>  2 0.44989949E+03</rscale>
<asrwt>0</asrwt>
<pdfrwt beam="1">  1       21 0.36065959E-01 0.44989949E+03</pdfrwt>
<pdfrwt beam="2">  1       21 0.30342803E-01 0.44989949E+03</pdfrwt>
<totfact> 0.71669629E+04</totfact>
</mgrwt>
</event>
<event>
 7    0  0.4770865E-002  0.4561463E+03  0.7546771E-02  0.1025905E+00
         21   -1    0    0  502  501  0.00000000000E+00  0.00000000000E+00  0.16436390588E+03  0.16436390588E+03  0.00000000000E+00 0. -1.
         21   -1    0    0  501  502 -0.00000000000E+00 -0.00000000000E+00 -0.31647679282E+03  0.31647679282E+03  0.00000000000E+00 0. -1.
      99926    2    1    2    0    0  0.00000000000E+00  0.00000000000E+00 -0.15211288694E+03  0.48084069871E+03  0.45614630017E+03 0.  0.
      99925    2    3    3    0    0 -0.49965746058E+02  0.68788505977E+02 -0.15120514093E+02  0.27677489400E+03  0.26295869954E+03 0.  0.
         25    1    3    3    0    0  0.49965746058E+02 -0.68788505977E+02 -0.13699237285E+03  0.20406580471E+03  0.12509000000E+03 0.  0.
         25    1    4    4    0    0 -0.33185496188E+02  0.52399037130E+02 -0.43765192867E+02  0.14632100484E+03  0.12509000000E+03 0.  0.
         25    1    4    4    0    0 -0.16780249870E+02  0.16389468847E+02  0.28644678774E+02  0.13045388916E+03  0.12509000000E+03 0.  0.
<mgrwt>
<rscale>  2 0.45614630E+03</rscale>
<asrwt>0</asrwt>
<pdfrwt beam="1">  1       21 0.24171163E-01 0.45614630E+03</pdfrwt>
<pdfrwt beam="2">  1       21 0.46540704E-01 0.45614630E+03</pdfrwt>
<totfact> 0.66036058E+04</totfact>
</mgrwt>
</event>
<event>
 7    0  0.4770865E-002  0.4511679E+03  0.7546771E-02  0.1027374E+00
         21   -1    0    0  502  501  0.00000000000E+00  0.00000000000E+00  0.99813196612E+03  0.99813196612E+03  0.00000000000E+00 0. -1.
         21   -1    0    0  501  502 -0.00000000000E+00 -0.00000000000E+00 -0.50983353392E+02  0.50983353392E+02  0.00000000000E+00 0. -1.
      99926    2    1    2    0    0  0.00000000000E+00  0.00000000000E+00  0.94714861273E+03  0.10491153195E+04  0.45116788343E+03 0.  0.
      99925    2    3    3    0    0  0.70300541908E+02 -0.83290664104E+02  0.62072309637E+03  0.68294510397E+03  0.26312991421E+03 0.  0.
         25    1    4    4    0    0  0.12495634154E+02 -0.54383031791E+02  0.23085118162E+03  0.26842770195E+03  0.12509000000E+03 0.  0.
         25    1    4    4    0    0  0.57804907754E+02 -0.28907632313E+02  0.38987191475E+03  0.41451740202E+03  0.12509000000E+03 0.  0.
         25    1    3    3    0    0 -0.70300541908E+02  0.83290664104E+02  0.32642551635E+03  0.36617021554E+03  0.12509000000E+03 0.  0.
<mgrwt>
<rscale>  2 0.45116788E+03</rscale>
<asrwt>0</asrwt>
<pdfrwt beam="1">  1       21 0.14678410E+00 0.45116788E+03</pdfrwt>
<pdfrwt beam="2">  1       21 0.74975526E-02 0.45116788E+03</pdfrwt>
<totfact> 0.38447037E+04</totfact>
</mgrwt>
</event>
<event>
 7    0  0.4770865E-002  0.4518920E+03  0.7546771E-02  0.1027159E+00
         21   -1    0    0  502  501  0.00000000000E+00  0.00000000000E+00  0.97695837005E+02  0.97695837005E+02  0.00000000000E+00 0.  1.
         21   -1    0    0  501  502 -0.00000000000E+00 -0.00000000000E+00 -0.52255654179E+03  0.52255654179E+03  0.00000000000E+00 0.  1.
      99926    2    1    2    0    0 -0.35527136788E-14  0.00000000000E+00 -0.42486070479E+03  0.62025237880E+03  0.45189201689E+03 0.  0.
      99925    2    3    3    0    0 -0.26922925504E+02  0.98352531014E+02 -0.32519269927E+03  0.43057031930E+03  0.26313959018E+03 0.  0.
         25    1    4    4    0    0  0.24496592582E+02  0.61266750040E+02 -0.14993783485E+03  0.20611297904E+03  0.12509000000E+03 0.  0.
         25    1    3    3    0    0  0.26922925504E+02 -0.98352531014E+02 -0.99668005515E+02  0.18968205950E+03  0.12509000000E+03 0.  0.
         25    1    4    4    0    0 -0.51419518086E+02  0.37085780974E+02 -0.17525486443E+03  0.22445734026E+03  0.12509000000E+03 0.  0.
<mgrwt>
<rscale>  2 0.45189202E+03</rscale>
<asrwt>0</asrwt>
<pdfrwt beam="1">  1       21 0.14367035E-01 0.45189202E+03</pdfrwt>
<pdfrwt beam="2">  1       21 0.76846550E-01 0.45189202E+03</pdfrwt>
<totfact> 0.58880452E+04</totfact>
</mgrwt>
</event>
<event>
 7    0  0.4770865E-002  0.4572657E+03  0.7546771E-02  0.1025577E+00
         21   -1    0    0  502  501  0.00000000000E+00  0.00000000000E+00  0.76125589962E+03  0.76125589962E+03  0.00000000000E+00 0.  1.
         21   -1    0    0  501  502 -0.00000000000E+00 -0.00000000000E+00 -0.68666773298E+02  0.68666773298E+02  0.00000000000E+00 0.  1.
      99926    2    1    2    0    0 -0.17763568394E-14  0.00000000000E+00  0.69258912632E+03  0.82992267292E+03  0.45726572704E+03 0.  0.
      99925    2    3    3    0    0  0.13371559024E+02 -0.10221684238E+03  0.34393542573E+03  0.44543081021E+03  0.26360946142E+03 0.  0.
         25    1    3    3    0    0 -0.13371559024E+02  0.10221684238E+03  0.34865370059E+03  0.38449186271E+03  0.12509000000E+03 0.  0.
         25    1    4    4    0    0  0.32394302714E+02 -0.58670987037E+02  0.12644277382E+03  0.19007093076E+03  0.12509000000E+03 0.  0.
         25    1    4    4    0    0 -0.19022743691E+02 -0.43545855341E+02  0.21749265192E+03  0.25535987945E+03  0.12509000000E+03 0.  0.
<mgrwt>
<rscale>  2 0.45726573E+03</rscale>
<asrwt>0</asrwt>
<pdfrwt beam="1">  1       21 0.11194939E+00 0.45726573E+03</pdfrwt>
<pdfrwt beam="2">  1       21 0.10098055E-01 0.45726573E+03</pdfrwt>
<totfact> 0.45536379E+04</totfact>
</mgrwt>
</event>
<event>
 7    0  0.4770865E-002  0.4360513E+03  0.7546771E-02  0.1031965E+00
         21   -1    0    0  502  501  0.00000000000E+00  0.00000000000E+00  0.27029811630E+03  0.27029811630E+03  0.00000000000E+00 0. -1.
         21   -1    0    0  501  502 -0.00000000000E+00 -0.00000000000E+00 -0.17586208506E+03  0.17586208506E+03  0.00000000000E+00 0. -1.
      99926    2    1    2    0    0 -0.35527136788E-14  0.00000000000E+00  0.94436031249E+02  0.44616020136E+03  0.43605132872E+03 0.  0.
      99925    2    3    3    0    0 -0.25907876852E+02 -0.80018783822E+02  0.10412945607E+03  0.29511155214E+03  0.26300886056E+03 0.  0.
         25    1    4    4    0    0  0.26755366734E+02 -0.37860633435E+02  0.40666589241E+02  0.13946525300E+03  0.12509000000E+03 0.  0.
         25    1    4    4    0    0 -0.52663243586E+02 -0.42158150388E+02  0.63462866833E+02  0.15564629914E+03  0.12509000000E+03 0.  0.
         25    1    3    3    0    0  0.25907876852E+02  0.80018783822E+02 -0.96934248242E+01  0.15104864922E+03  0.12509000000E+03 0.  0.
<mgrwt>
<rscale>  2 0.43605133E+03</rscale>
<asrwt>0</asrwt>
<pdfrwt beam="1">  1       21 0.39749723E-01 0.43605133E+03</pdfrwt>
<pdfrwt beam="2">  1       21 0.25862071E-01 0.43605133E+03</pdfrwt>
<totfact> 0.80716668E+04</totfact>
</mgrwt>
</event>
<event>
 7    0  0.4770865E-002  0.4450948E+03  0.7546771E-02  0.1029195E+00
         21   -1    0    0  502  501  0.00000000000E+00  0.00000000000E+00  0.62540243351E+03  0.62540243351E+03  0.00000000000E+00 0. -1.
         21   -1    0    0  501  502 -0.00000000000E+00 -0.00000000000E+00 -0.79192766597E+02  0.79192766597E+02  0.00000000000E+00 0. -1.
      99926    2    1    2    0    0  0.00000000000E+00 -0.35527136788E-14  0.54620966691E+03  0.70459520011E+03  0.44509481662E+03 0.  0.
      99925    2    3    3    0    0  0.97544594155E+02 -0.24325884365E+02  0.30735005778E+03  0.41683120396E+03  0.26301615556E+03 0.  0.
         25    1    4    4    0    0  0.46868700530E+02  0.10541674899E+02  0.20067855613E+03  0.24130311434E+03  0.12509000000E+03 0.  0.
         25    1    3    3    0    0 -0.97544594155E+02  0.24325884365E+02  0.23885960914E+03  0.28776399614E+03  0.12509000000E+03 0.  0.
         25    1    4    4    0    0  0.50675893625E+02 -0.34867559264E+02  0.10667150165E+03  0.17552808962E+03  0.12509000000E+03 0.  0.
<mgrwt>
<rscale>  2 0.44509482E+03</rscale>
<asrwt>0</asrwt>
<pdfrwt beam="1">  1       21 0.91970943E-01 0.44509482E+03</pdfrwt>
<pdfrwt beam="2">  1       21 0.11645995E-01 0.44509482E+03</pdfrwt>
<totfact> 0.56965991E+04</totfact>
</mgrwt>
</event>
<event>
 7    0  0.4770865E-002  0.4561764E+03  0.7546771E-02  0.1025896E+00
         21   -1    0    0  502  501  0.00000000000E+00  0.00000000000E+00  0.46052475340E+03  0.46052475340E+03  0.00000000000E+00 0. -1.
         21   -1    0    0  501  502 -0.00000000000E+00 -0.00000000000E+00 -0.11296725639E+03  0.11296725639E+03  0.00000000000E+00 0. -1.
      99926    2    1    2    0    0  0.71054273576E-14  0.14210854715E-13  0.34755749701E+03  0.57349200979E+03  0.45617636016E+03 0.  0.
      99925    2    3    3    0    0 -0.35657415763E+02 -0.10841627887E+03  0.21841361432E+03  0.36053381821E+03  0.26316266136E+03 0.  0.
         25    1    3    3    0    0  0.35657415763E+02  0.10841627887E+03  0.12914388269E+03  0.21295819157E+03  0.12509000000E+03 0.  0.
         25    1    4    4    0    0 -0.21375140063E+02 -0.12248382044E+02  0.83099444435E+02  0.15218391913E+03  0.12509000000E+03 0.  0.
         25    1    4    4    0    0 -0.14282275701E+02 -0.96167896823E+02  0.13531416988E+03  0.20834989909E+03  0.12509000000E+03 0.  0.
<mgrwt>
<rscale>  2 0.45617636E+03</rscale>
<asrwt>0</asrwt>
<pdfrwt beam="1">  1       21 0.67724228E-01 0.45617636E+03</pdfrwt>
<pdfrwt beam="2">  1       21 0.16612832E-01 0.45617636E+03</pdfrwt>
<totfact> 0.59782295E+04</totfact>
</mgrwt>
</event>
<event>
 7    0  0.4770865E-002  0.4520799E+03  0.7546771E-02  0.1027104E+00
         21   -1    0    0  502  501  0.00000000000E+00  0.00000000000E+00  0.45074936144E+03  0.45074936144E+03  0.00000000000E+00 0. -1.
         21   -1    0    0  501  502 -0.00000000000E+00 -0.00000000000E+00 -0.11335359219E+03  0.11335359219E+03  0.00000000000E+00 0. -1.
      99926    2    1    2    0    0  0.00000000000E+00  0.00000000000E+00  0.33739576924E+03  0.56410295363E+03  0.45207990134E+03 0.  0.
      99925    2    3    3    0    0  0.81283697067E+02  0.17316903663E+02  0.30403850517E+03  0.41026170517E+03  0.26261823917E+03 0.  0.
         25    1    3    3    0    0 -0.81283697067E+02 -0.17316903663E+02  0.33357264076E+02  0.15384124846E+03  0.12509000000E+03 0.  0.
         25    1    4    4    0    0  0.39746357452E+02 -0.30907038285E+02  0.15790834948E+03  0.20764771340E+03  0.12509000000E+03 0.  0.
         25    1    4    4    0    0  0.41537339615E+02  0.48223941948E+02  0.14613015569E+03  0.20261399177E+03  0.12509000000E+03 0.  0.
<mgrwt>
<rscale>  2 0.45207990E+03</rscale>
<asrwt>0</asrwt>
<pdfrwt beam="1">  1       21 0.66286670E-01 0.45207990E+03</pdfrwt>
<pdfrwt beam="2">  1       21 0.16669646E-01 0.45207990E+03</pdfrwt>
<totfact> 0.62372139E+04</totfact>
</mgrwt>
</event>
<event>
 7    0  0.4770865E-002  0.4102969E+03  0.7546771E-02  0.1040271E+00
         21   -1    0    0  502  501  0.00000000000E+00  0.00000000000E+00  0.22658692571E+03  0.22658692571E+03  0.00000000000E+00 0.  1.
         21   -1    0    0  501  502 -0.00000000000E+00 -0.00000000000E+00 -0.18573839108E+03  0.18573839108E+03  0.00000000000E+00 0.  1.
      99926    2    1    2    0    0  0.00000000000E+00  0.00000000000E+00  0.40848534622E+02  0.41232531679E+03  0.41029692186E+03 0.  0.
      99925    2    3    3    0    0  0.23040623667E+02 -0.54872607026E+02  0.72423595509E+01  0.26978144129E+03  0.26303555073E+03 0.  0.
         25    1    4    4    0    0 -0.27463599860E+02 -0.27189933813E+02 -0.83499381026E+01  0.13118982958E+03  0.12509000000E+03 0.  0.
         25    1    3    3    0    0 -0.23040623667E+02  0.54872607026E+02  0.33606175071E+02  0.14254387550E+03  0.12509000000E+03 0.  0.
         25    1    4    4    0    0  0.50504223527E+02 -0.27682673214E+02  0.15592297654E+02  0.13859161171E+03  0.12509000000E+03 0.  0.
<mgrwt>
<rscale>  2 0.41029692E+03</rscale>
<asrwt>0</asrwt>
<pdfrwt beam="1">  1       21 0.33321607E-01 0.41029692E+03</pdfrwt>
<pdfrwt beam="2">  1       21 0.27314469E-01 0.41029692E+03</pdfrwt>
<totfact> 0.10432497E+05</totfact>
</mgrwt>
</event>
<event>
 7    0  0.4770865E-002  0.4425048E+03  0.7546771E-02  0.1029981E+00
         21   -1    0    0  502  501  0.00000000000E+00  0.00000000000E+00  0.24971814582E+03  0.24971814582E+03  0.00000000000E+00 0. -1.
         21   -1    0    0  501  502 -0.00000000000E+00 -0.00000000000E+00 -0.19603150799E+03  0.19603150799E+03  0.00000000000E+00 0. -1.
      99926    2    1    2    0    0  0.00000000000E+00  0.00000000000E+00  0.53686637830E+02  0.44574965382E+03  0.44250480088E+03 0.  0.
      99925    2    3    3    0    0  0.22429173296E+02  0.92478634858E+02  0.67899242152E+02  0.28793687885E+03  0.26313869613E+03 0.  0.
         25    1    4    4    0    0  0.10307471204E+02  0.67467299594E+02  0.72157240036E+02  0.15972556422E+03  0.12509000000E+03 0.  0.
         25    1    4    4    0    0  0.12121702093E+02  0.25011335264E+02 -0.42579978840E+01  0.12821131463E+03  0.12509000000E+03 0.  0.
         25    1    3    3    0    0 -0.22429173296E+02 -0.92478634858E+02 -0.14212604322E+02  0.15781277496E+03  0.12509000000E+03 0.  0.
<mgrwt>
<rscale>  2 0.44250480E+03</rscale>
<asrwt>0</asrwt>
<pdfrwt beam="1">  1       21 0.36723257E-01 0.44250480E+03</pdfrwt>
<pdfrwt beam="2">  1       21 0.28828163E-01 0.44250480E+03</pdfrwt>
<totfact> 0.76583341E+04</totfact>
</mgrwt>
</event>
<event>
 7    0  0.4770865E-002  0.4617304E+03  0.7546771E-02  0.1024281E+00
         21   -1    0    0  502  501  0.00000000000E+00  0.00000000000E+00  0.18489315198E+03  0.18489315198E+03  0.00000000000E+00 0.  1.
         21   -1    0    0  501  502 -0.00000000000E+00 -0.00000000000E+00 -0.28826784358E+03  0.28826784358E+03  0.00000000000E+00 0.  1.
      99926    2    1    2    0    0  0.00000000000E+00  0.00000000000E+00 -0.10337469160E+03  0.47316099556E+03  0.46173044176E+03 0.  0.
      99925    2    3    3    0    0  0.38150712769E+02  0.11160227541E+03 -0.46550646642E+02  0.29208911771E+03  0.26313218203E+03 0.  0.
         25    1    4    4    0    0  0.46161195338E+02  0.32734906365E+02 -0.15304677261E+01  0.13730360695E+03  0.12509000000E+03 0.  0.
         25    1    3    3    0    0 -0.38150712769E+02 -0.11160227541E+03 -0.56824044962E+02  0.18107187785E+03  0.12509000000E+03 0.  0.
         25    1    4    4    0    0 -0.80104825689E+01  0.78867369045E+02 -0.45020178916E+02  0.15478551076E+03  0.12509000000E+03 0.  0.
<mgrwt>
<rscale>  2 0.46173044E+03</rscale>
<asrwt>0</asrwt>
<pdfrwt beam="1">  1       21 0.27190170E-01 0.46173044E+03</pdfrwt>
<pdfrwt beam="2">  1       21 0.42392330E-01 0.46173044E+03</pdfrwt>
<totfact> 0.63730444E+04</totfact>
</mgrwt>
</event>
<event>
 7    0  0.4770865E-002  0.4722755E+03  0.7546771E-02  0.1021280E+00
         21   -1    0    0  502  501  0.00000000000E+00  0.00000000000E+00  0.27426034330E+03  0.27426034330E+03  0.00000000000E+00 0. -1.
         21   -1    0    0  501  502 -0.00000000000E+00 -0.00000000000E+00 -0.20331426528E+03  0.20331426528E+03  0.00000000000E+00 0. -1.
      99926    2    1    2    0    0  0.00000000000E+00  0.00000000000E+00  0.70946078018E+02  0.47757460859E+03  0.47227551364E+03 0.  0.
      99925    2    3    3    0    0 -0.29557793870E+02  0.83809948995E+02  0.13800295085E+03  0.31011744086E+03  0.26311640381E+03 0.  0.
         25    1    4    4    0    0  0.25284251198E+02  0.46027014873E+02  0.59835145188E+02  0.14827519063E+03  0.12509000000E+03 0.  0.
         25    1    3    3    0    0  0.29557793870E+02 -0.83809948995E+02 -0.67056872829E+02  0.16745716773E+03  0.12509000000E+03 0.  0.
         25    1    4    4    0    0 -0.54842045068E+02  0.37782934122E+02  0.78167805659E+02  0.16184225023E+03  0.12509000000E+03 0.  0.
<mgrwt>
<rscale>  2 0.47227551E+03</rscale>
<asrwt>0</asrwt>
<pdfrwt beam="1">  1       21 0.40332404E-01 0.47227551E+03</pdfrwt>
<pdfrwt beam="2">  1       21 0.29899156E-01 0.47227551E+03</pdfrwt>
<totfact> 0.58439468E+04</totfact>
</mgrwt>
</event>
<event>
 7    0  0.4770865E-002  0.4511886E+03  0.7546771E-02  0.1027368E+00
         21   -1    0    0  502  501  0.00000000000E+00  0.00000000000E+00  0.13240941949E+03  0.13240941949E+03  0.00000000000E+00 0.  1.
         21   -1    0    0  501  502 -0.00000000000E+00 -0.00000000000E+00 -0.38435931865E+03  0.38435931865E+03  0.00000000000E+00 0.  1.
      99926    2    1    2    0    0  0.00000000000E+00  0.00000000000E+00 -0.25194989917E+03  0.51676873814E+03  0.45118862688E+03 0.  0.
      99925    2    3    3    0    0 -0.83498334703E+02  0.53990329234E+02 -0.21197104825E+03  0.35204853850E+03  0.26290591590E+03 0.  0.
         25    1    4    4    0    0 -0.46741943302E+02 -0.54721233461E+01 -0.72343743635E+02  0.15197328298E+03  0.12509000000E+03 0.  0.
         25    1    3    3    0    0  0.83498334703E+02 -0.53990329234E+02 -0.39978850921E+02  0.16472019964E+03  0.12509000000E+03 0.  0.
         25    1    4    4    0    0 -0.36756391401E+02  0.59462452580E+02 -0.13962730461E+03  0.20007525551E+03  0.12509000000E+03 0.  0.
<mgrwt>
<rscale>  2 0.45118863E+03</rscale>
<asrwt>0</asrwt>
<pdfrwt beam="1">  1       21 0.19471974E-01 0.45118863E+03</pdfrwt>
<pdfrwt beam="2">  1       21 0.56523429E-01 0.45118863E+03</pdfrwt>
<totfact> 0.66083801E+04</totfact>
</mgrwt>
</event>
<event>
 7    0  0.4770865E-002  0.4490138E+03  0.7546771E-02  0.1028017E+00
         21   -1    0    0  502  501  0.00000000000E+00  0.00000000000E+00  0.26668760590E+03  0.26668760590E+03  0.00000000000E+00 0. -1.
         21   -1    0    0  501  502 -0.00000000000E+00 -0.00000000000E+00 -0.18899773136E+03  0.18899773136E+03  0.00000000000E+00 0. -1.
      99926    2    1    2    0    0  0.00000000000E+00  0.00000000000E+00  0.77689874543E+02  0.45568533726E+03  0.44901381938E+03 0.  0.
      99925    2    3    3    0    0 -0.53085423825E+02  0.85008108882E+02  0.88105242737E+02  0.29506021845E+03  0.26316070740E+03 0.  0.
         25    1    4    4    0    0 -0.26069308753E+01  0.65282559449E+02  0.19564625996E+02  0.14247417783E+03  0.12509000000E+03 0.  0.
         25    1    4    4    0    0 -0.50478492950E+02  0.19725549432E+02  0.68540616741E+02  0.15258604063E+03  0.12509000000E+03 0.  0.
         25    1    3    3    0    0  0.53085423825E+02 -0.85008108882E+02 -0.10415368195E+02  0.16062511881E+03  0.12509000000E+03 0.  0.
<mgrwt>
<rscale>  2 0.44901382E+03</rscale>
<asrwt>0</asrwt>
<pdfrwt beam="1">  1       21 0.39218766E-01 0.44901382E+03</pdfrwt>
<pdfrwt beam="2">  1       21 0.27793784E-01 0.44901382E+03</pdfrwt>
<totfact> 0.71865823E+04</totfact>
</mgrwt>
</event>
<event>
 7    0  0.4770865E-002  0.4512147E+03  0.7546771E-02  0.1027360E+00
         21   -1    0    0  502  501  0.00000000000E+00  0.00000000000E+00  0.89485498995E+03  0.89485498995E+03  0.00000000000E+00 0. -1.
         21   -1    0    0  501  502 -0.00000000000E+00 -0.00000000000E+00 -0.56879252868E+02  0.56879252868E+02  0.00000000000E+00 0. -1.
      99926    2    1    2    0    0  0.00000000000E+00  0.00000000000E+00  0.83797573708E+03  0.95173424282E+03  0.45121473049E+03 0.  0.
      99925    2    3    3    0    0  0.49766679087E+02 -0.90007826791E+02  0.60886928634E+03  0.67117158475E+03  0.26300448113E+03 0.  0.
         25    1    3    3    0    0 -0.49766679087E+02  0.90007826791E+02  0.22910645074E+03  0.28056265807E+03  0.12509000000E+03 0.  0.
         25    1    4    4    0    0 -0.94557759827E+01 -0.64755842144E+02  0.32569043449E+03  0.35497112278E+03  0.12509000000E+03 0.  0.
         25    1    4    4    0    0  0.59222455070E+02 -0.25251984648E+02  0.28317885185E+03  0.31620046196E+03  0.12509000000E+03 0.  0.
<mgrwt>
<rscale>  2 0.45121473E+03</rscale>
<asrwt>0</asrwt>
<pdfrwt beam="1">  1       21 0.13159631E+00 0.45121473E+03</pdfrwt>
<pdfrwt beam="2">  1       21 0.83645966E-02 0.45121473E+03</pdfrwt>
<totfact> 0.42309173E+04</totfact>
</mgrwt>
</event>
<event>
 7    0  0.4770865E-002  0.4494441E+03  0.7546771E-02  0.1027888E+00
         21   -1    0    0  502  501  0.00000000000E+00  0.00000000000E+00  0.28571937119E+03  0.28571937119E+03  0.00000000000E+00 0. -1.
         21   -1    0    0  501  502 -0.00000000000E+00 -0.00000000000E+00 -0.17674688623E+03  0.17674688623E+03  0.00000000000E+00 0. -1.
      99926    2    1    2    0    0 -0.14210854715E-13  0.00000000000E+00  0.10897248496E+03  0.46246625742E+03  0.44944414199E+03 0.  0.
      99925    2    3    3    0    0  0.87301464397E+02  0.31412632625E+02  0.12620447473E+03  0.30577308991E+03  0.26260486266E+03 0.  0.
         25    1    4    4    0    0  0.77137100869E+02  0.37153989355E+02  0.54295257511E+02  0.16101563385E+03  0.12509000000E+03 0.  0.
         25    1    3    3    0    0 -0.87301464397E+02 -0.31412632625E+02 -0.17231989767E+02  0.15669316751E+03  0.12509000000E+03 0.  0.
         25    1    4    4    0    0  0.10164363529E+02 -0.57413567300E+01  0.71909217218E+02  0.14475745606E+03  0.12509000000E+03 0.  0.
<mgrwt>
<rscale>  2 0.44944414E+03</rscale>
<asrwt>0</asrwt>
<pdfrwt beam="1">  1       21 0.42017554E-01 0.44944414E+03</pdfrwt>
<pdfrwt beam="2">  1       21 0.25992189E-01 0.44944414E+03</pdfrwt>
<totfact> 0.71081634E+04</totfact>
</mgrwt>
</event>
<event>
 7    0  0.4770865E-002  0.4567685E+03  0.7546771E-02  0.1025723E+00
         21   -1    0    0  502  501  0.00000000000E+00  0.00000000000E+00  0.30941430132E+03  0.30941430132E+03  0.00000000000E+00 0. -1.
         21   -1    0    0  501  502 -0.00000000000E+00 -0.00000000000E+00 -0.16857453375E+03  0.16857453375E+03  0.00000000000E+00 0. -1.
      99926    2    1    2    0    0 -0.88817841970E-15  0.00000000000E+00  0.14083976757E+03  0.47798883506E+03  0.45676852597E+03 0.  0.
      99925    2    3    3    0    0 -0.65309576414E+01 -0.11131244226E+03  0.60066417127E+02  0.29196476283E+03  0.26306336700E+03 0.  0.
         25    1    4    4    0    0 -0.12523386127E+02 -0.28245275066E+02 -0.32555638654E+01  0.12889040911E+03  0.12509000000E+03 0.  0.
         25    1    4    4    0    0  0.59924284854E+01 -0.83067167194E+02  0.63321980992E+02  0.16307435372E+03  0.12509000000E+03 0.  0.
         25    1    3    3    0    0  0.65309576414E+01  0.11131244226E+03  0.80773350445E+02  0.18602407224E+03  0.12509000000E+03 0.  0.
<mgrwt>
<rscale>  2 0.45676853E+03</rscale>
<asrwt>0</asrwt>
<pdfrwt beam="1">  1       21 0.45502103E-01 0.45676853E+03</pdfrwt>
<pdfrwt beam="2">  1       21 0.24790373E-01 0.45676853E+03</pdfrwt>
<totfact> 0.65916711E+04</totfact>
</mgrwt>
</event>
<event>
 7    0  0.4770865E-002  0.4502437E+03  0.7546771E-02  0.1027649E+00
         21   -1    0    0  502  501  0.00000000000E+00  0.00000000000E+00  0.35548360166E+02  0.35548360166E+02  0.00000000000E+00 0. -1.
         21   -1    0    0  501  502 -0.00000000000E+00 -0.00000000000E+00 -0.14256590586E+04  0.14256590586E+04  0.00000000000E+00 0. -1.
      99926    2    1    2    0    0  0.00000000000E+00  0.17763568394E-14 -0.13901106984E+04  0.14612074187E+04  0.45024367486E+03 0.  0.
      99925    2    3    3    0    0  0.89016171275E+02 -0.12154119789E+02 -0.10766827380E+04  0.11119851459E+04  0.26304684950E+03 0.  0.
         25    1    4    4    0    0  0.36035426269E+02 -0.45447574628E+02 -0.51256523252E+03  0.53078683073E+03  0.12509000000E+03 0.  0.
         25    1    4    4    0    0  0.52980745006E+02  0.33293454839E+02 -0.56411750551E+03  0.58119831520E+03  0.12509000000E+03 0.  0.
         25    1    3    3    0    0 -0.89016171275E+02  0.12154119789E+02 -0.31342796037E+03  0.34922227280E+03  0.12509000000E+03 0.  0.
<mgrwt>
<rscale>  2 0.45024367E+03</rscale>
<asrwt>0</asrwt>
<pdfrwt beam="1">  1       21 0.52276997E-02 0.45024367E+03</pdfrwt>
<pdfrwt beam="2">  1       21 0.20965576E+00 0.45024367E+03</pdfrwt>
<totfact> 0.25681452E+04</totfact>
</mgrwt>
</event>
<event>
 7    0  0.4770865E-002  0.4454132E+03  0.7546771E-02  0.1029099E+00
         21   -1    0    0  502  501  0.00000000000E+00  0.00000000000E+00  0.75253898411E+03  0.75253898411E+03  0.00000000000E+00 0. -1.
         21   -1    0    0  501  502 -0.00000000000E+00 -0.00000000000E+00 -0.65907845815E+02  0.65907845815E+02  0.00000000000E+00 0. -1.
      99926    2    1    2    0    0  0.00000000000E+00 -0.14210854715E-13  0.68663113830E+03  0.81844682993E+03  0.44541317149E+03 0.  0.
      99925    2    3    3    0    0  0.25185043214E+02 -0.81034166378E+02  0.54616590767E+03  0.61210049088E+03  0.26299998045E+03 0.  0.
         25    1    3    3    0    0 -0.25185043214E+02  0.81034166378E+02  0.14046523063E+03  0.20634633905E+03  0.12509000000E+03 0.  0.
         25    1    4    4    0    0  0.77871162070E+01 -0.53558546864E+01  0.20227054919E+03  0.23801304067E+03  0.12509000000E+03 0.  0.
         25    1    4    4    0    0  0.17397927007E+02 -0.75678311691E+02  0.34389535848E+03  0.37408745021E+03  0.12509000000E+03 0.  0.
<mgrwt>
<rscale>  2 0.44541317E+03</rscale>
<asrwt>0</asrwt>
<pdfrwt beam="1">  1       21 0.11066749E+00 0.44541317E+03</pdfrwt>
<pdfrwt beam="2">  1       21 0.96923307E-02 0.44541317E+03</pdfrwt>
<totfact> 0.50584729E+04</totfact>
</mgrwt>
</event>
<event>
 7    0  0.4770865E-002  0.4633218E+03  0.7546771E-02  0.1023822E+00
         21   -1    0    0  502  501  0.00000000000E+00  0.00000000000E+00  0.86619260218E+03  0.86619260218E+03  0.00000000000E+00 0.  1.
         21   -1    0    0  501  502 -0.00000000000E+00 -0.00000000000E+00 -0.61957087093E+02  0.61957087093E+02  0.00000000000E+00 0.  1.
      99926    2    1    2    0    0 -0.14210854715E-13  0.35527136788E-14  0.80423551509E+03  0.92814968928E+03  0.46332179095E+03 0.  0.
      99925    2    3    3    0    0 -0.86311561141E+02  0.28221942654E+02  0.66044580576E+03  0.71703561527E+03  0.26401751379E+03 0.  0.
         25    1    4    4    0    0 -0.20379307475E+02 -0.63643949530E+00  0.39581020211E+03  0.41560671966E+03  0.12509000000E+03 0.  0.
         25    1    3    3    0    0  0.86311561141E+02 -0.28221942654E+02  0.14378970933E+03  0.21111407401E+03  0.12509000000E+03 0.  0.
         25    1    4    4    0    0 -0.65932253666E+02  0.28858382150E+02  0.26463560365E+03  0.30142889561E+03  0.12509000000E+03 0.  0.
<mgrwt>
<rscale>  2 0.46332179E+03</rscale>
<asrwt>0</asrwt>
<pdfrwt beam="1">  1       21 0.12738126E+00 0.46332179E+03</pdfrwt>
<pdfrwt beam="2">  1       21 0.91113369E-02 0.46332179E+03</pdfrwt>
<totfact> 0.39409042E+04</totfact>
</mgrwt>
</event>
<event>
 7    0  0.4770865E-002  0.4537555E+03  0.7546771E-02  0.1026608E+00
         21   -1    0    0  502  501  0.00000000000E+00  0.00000000000E+00  0.14271707029E+03  0.14271707029E+03  0.00000000000E+00 0. -1.
         21   -1    0    0  501  502 -0.00000000000E+00 -0.00000000000E+00 -0.36066820367E+03  0.36066820367E+03  0.00000000000E+00 0. -1.
      99926    2    1    2    0    0  0.22204460493E-14  0.00000000000E+00 -0.21795113337E+03  0.50338527396E+03  0.45375548206E+03 0.  0.
      99925    2    3    3    0    0  0.36413795903E+01 -0.11149117909E+03 -0.12436559696E+03  0.31142355021E+03  0.26281986845E+03 0.  0.
         25    1    3    3    0    0 -0.36413795903E+01  0.11149117909E+03 -0.93585536410E+02  0.19196172375E+03  0.12509000000E+03 0.  0.
         25    1    4    4    0    0  0.29293795501E+02 -0.37074736896E+02 -0.85106191884E+02  0.15850310586E+03  0.12509000000E+03 0.  0.
         25    1    4    4    0    0 -0.25652415911E+02 -0.74416442197E+02 -0.39259405079E+02  0.15292044434E+03  0.12509000000E+03 0.  0.
<mgrwt>
<rscale>  2 0.45375548E+03</rscale>
<asrwt>0</asrwt>
<pdfrwt beam="1">  1       21 0.20987804E-01 0.45375548E+03</pdfrwt>
<pdfrwt beam="2">  1       21 0.53039443E-01 0.45375548E+03</pdfrwt>
<totfact> 0.65679896E+04</totfact>
</mgrwt>
</event>
<event>
 7    0  0.4770865E-002  0.4622741E+03  0.7546771E-02  0.1024124E+00
         21   -1    0    0  502  501  0.00000000000E+00  0.00000000000E+00  0.13032516527E+03  0.13032516527E+03  0.00000000000E+00 0. -1.
         21   -1    0    0  501  502 -0.00000000000E+00 -0.00000000000E+00 -0.40993116590E+03  0.40993116590E+03  0.00000000000E+00 0. -1.
      99926    2    1    2    0    0  0.00000000000E+00  0.00000000000E+00 -0.27960600063E+03  0.54025633116E+03  0.46227414785E+03 0.  0.
      99925    2    3    3    0    0 -0.72444608487E+02  0.48097165248E+02 -0.78433819113E+02  0.28790872701E+03  0.26301713348E+03 0.  0.
         25    1    4    4    0    0 -0.20005258551E+01  0.95888347454E+01 -0.56709295124E+02  0.13769313748E+03  0.12509000000E+03 0.  0.
         25    1    3    3    0    0  0.72444608487E+02 -0.48097165248E+02 -0.20117218152E+03  0.25234760415E+03  0.12509000000E+03 0.  0.
         25    1    4    4    0    0 -0.70444082632E+02  0.38508330502E+02 -0.21724523989E+02  0.15021558953E+03  0.12509000000E+03 0.  0.
<mgrwt>
<rscale>  2 0.46227415E+03</rscale>
<asrwt>0</asrwt>
<pdfrwt beam="1">  1       21 0.19165466E-01 0.46227415E+03</pdfrwt>
<pdfrwt beam="2">  1       21 0.60283995E-01 0.46227415E+03</pdfrwt>
<totfact> 0.59039924E+04</totfact>
</mgrwt>
</event>
<event>
 7    0  0.4770865E-002  0.4511096E+03  0.7546771E-02  0.1027392E+00
         21   -1    0    0  502  501  0.00000000000E+00  0.00000000000E+00  0.72209096214E+02  0.72209096214E+02  0.00000000000E+00 0. -1.
         21   -1    0    0  501  502 -0.00000000000E+00 -0.00000000000E+00 -0.70455066347E+03  0.70455066347E+03  0.00000000000E+00 0. -1.
      99926    2    1    2    0    0  0.00000000000E+00  0.00000000000E+00 -0.63234156726E+03  0.77675975969E+03  0.45110959487E+03 0.  0.
      99925    2    3    3    0    0  0.23303644402E+02  0.66526299711E+02 -0.25363676967E+03  0.37174909290E+03  0.26248232083E+03 0.  0.
         25    1    3    3    0    0 -0.23303644402E+02 -0.66526299711E+02 -0.37870479758E+03  0.40501066678E+03  0.12509000000E+03 0.  0.
         25    1    4    4    0    0  0.79348830508E+01  0.21345639456E+02 -0.17554771292E+03  0.21675586798E+03  0.12509000000E+03 0.  0.
         25    1    4    4    0    0  0.15368761352E+02  0.45180660255E+02 -0.78089056753E+02  0.15499322492E+03  0.12509000000E+03 0.  0.
<mgrwt>
<rscale>  2 0.45110959E+03</rscale>
<asrwt>0</asrwt>
<pdfrwt beam="1">  1       21 0.10618985E-01 0.45110959E+03</pdfrwt>
<pdfrwt beam="2">  1       21 0.10361039E+00 0.45110959E+03</pdfrwt>
<totfact> 0.50432022E+04</totfact>
</mgrwt>
</event>
<event>
 7    0  0.4770865E-002  0.4529555E+03  0.7546771E-02  0.1026844E+00
         21   -1    0    0  502  501  0.00000000000E+00  0.00000000000E+00  0.61223429243E+03  0.61223429243E+03  0.00000000000E+00 0. -1.
         21   -1    0    0  501  502 -0.00000000000E+00 -0.00000000000E+00 -0.83778660825E+02  0.83778660825E+02  0.00000000000E+00 0. -1.
      99926    2    1    2    0    0  0.00000000000E+00 -0.71054273576E-14  0.52845563161E+03  0.69601295326E+03  0.45295549067E+03 0.  0.
      99925    2    3    3    0    0 -0.95316764160E+02 -0.53740122317E+02  0.30251512754E+03  0.41553139280E+03  0.26301644385E+03 0.  0.
         25    1    3    3    0    0  0.95316764160E+02  0.53740122317E+02  0.22594050407E+03  0.28048156045E+03  0.12509000000E+03 0.  0.
         25    1    4    4    0    0 -0.63160318487E+02  0.41626591667E+01  0.11981244923E+03  0.18441552172E+03  0.12509000000E+03 0.  0.
         25    1    4    4    0    0 -0.32156445673E+02 -0.57902781484E+02  0.18270267831E+03  0.23111587108E+03  0.12509000000E+03 0.  0.
<mgrwt>
<rscale>  2 0.45295549E+03</rscale>
<asrwt>0</asrwt>
<pdfrwt beam="1">  1       21 0.90034452E-01 0.45295549E+03</pdfrwt>
<pdfrwt beam="2">  1       21 0.12320392E-01 0.45295549E+03</pdfrwt>
<totfact> 0.53983430E+04</totfact>
</mgrwt>
</event>
<event>
 7    0  0.4770865E-002  0.4582038E+03  0.7546771E-02  0.1025303E+00
         21   -1    0    0  502  501  0.00000000000E+00  0.00000000000E+00  0.18015723166E+03  0.18015723166E+03  0.00000000000E+00 0.  1.
         21   -1    0    0  501  502 -0.00000000000E+00 -0.00000000000E+00 -0.29134378277E+03  0.29134378277E+03  0.00000000000E+00 0.  1.
      99926    2    1    2    0    0  0.00000000000E+00 -0.17763568394E-14 -0.11118655111E+03  0.47150101442E+03  0.45820383832E+03 0.  0.
      99925    2    3    3    0    0  0.96785958950E+01 -0.11853392986E+02  0.48672742889E+02  0.26794099840E+03  0.26303833291E+03 0.  0.
         25    1    4    4    0    0 -0.18833107242E+01 -0.42948265386E+02  0.89760349360E+01  0.13257517740E+03  0.12509000000E+03 0.  0.
         25    1    4    4    0    0  0.11561906619E+02  0.31094872400E+02  0.39696707953E+02  0.13536582101E+03  0.12509000000E+03 0.  0.
         25    1    3    3    0    0 -0.96785958950E+01  0.11853392986E+02 -0.15985929400E+03  0.20356001602E+03  0.12509000000E+03 0.  0.
<mgrwt>
<rscale>  2 0.45820384E+03</rscale>
<asrwt>0</asrwt>
<pdfrwt beam="1">  1       21 0.26493711E-01 0.45820384E+03</pdfrwt>
<pdfrwt beam="2">  1       21 0.42844674E-01 0.45820384E+03</pdfrwt>
<totfact> 0.65640103E+04</totfact>
</mgrwt>
</event>
<event>
 7    0  0.4770865E-002  0.4583677E+03  0.7546771E-02  0.1025256E+00
         21   -1    0    0  502  501  0.00000000000E+00  0.00000000000E+00  0.97396831524E+02  0.97396831524E+02  0.00000000000E+00 0.  1.
         21   -1    0    0  501  502 -0.00000000000E+00 -0.00000000000E+00 -0.53929095342E+03  0.53929095342E+03  0.00000000000E+00 0.  1.
      99926    2    1    2    0    0 -0.71054273576E-14  0.00000000000E+00 -0.44189412190E+03  0.63668778494E+03  0.45836766960E+03 0.  0.
      99925    2    3    3    0    0  0.50986200965E+02  0.23565400464E+02 -0.13541041859E+03  0.30092791647E+03  0.26280545782E+03 0.  0.
         25    1    3    3    0    0 -0.50986200965E+02 -0.23565400464E+02 -0.30648370331E+03  0.33575986848E+03  0.12509000000E+03 0.  0.
         25    1    4    4    0    0  0.60231554103E+02  0.17399941537E+02 -0.48026460950E+02  0.14793460422E+03  0.12509000000E+03 0.  0.
         25    1    4    4    0    0 -0.92453531385E+01  0.61654589274E+01 -0.87383957638E+02  0.15299331224E+03  0.12509000000E+03 0.  0.
<mgrwt>
<rscale>  2 0.45836767E+03</rscale>
<asrwt>0</asrwt>
<pdfrwt beam="1">  1       21 0.14323063E-01 0.45836767E+03</pdfrwt>
<pdfrwt beam="2">  1       21 0.79307494E-01 0.45836767E+03</pdfrwt>
<totfact> 0.54998513E+04</totfact>
</mgrwt>
</event>
<event>
 7    0  0.4770865E-002  0.4532893E+03  0.7546771E-02  0.1026746E+00
         21   -1    0    0  502  501  0.00000000000E+00  0.00000000000E+00  0.72072848877E+03  0.72072848877E+03  0.00000000000E+00 0. -1.
         21   -1    0    0  501  502 -0.00000000000E+00 -0.00000000000E+00 -0.71272065719E+02  0.71272065719E+02  0.00000000000E+00 0. -1.
      99926    2    1    2    0    0  0.00000000000E+00  0.00000000000E+00  0.64945642305E+03  0.79200055449E+03  0.45328934784E+03 0.  0.
      99925    2    3    3    0    0  0.43295057634E+02  0.81414979077E+02  0.51931771688E+03  0.58930262214E+03  0.26283802724E+03 0.  0.
         25    1    3    3    0    0 -0.43295057634E+02 -0.81414979077E+02  0.13013870617E+03  0.20269793235E+03  0.12509000000E+03 0.  0.
         25    1    4    4    0    0  0.70060183564E+01  0.79268185679E+02  0.27272914971E+03  0.31042104754E+03  0.12509000000E+03 0.  0.
         25    1    4    4    0    0  0.36289039278E+02  0.21467933987E+01  0.24658856716E+03  0.27888157460E+03  0.12509000000E+03 0.  0.
<mgrwt>
<rscale>  2 0.45328935E+03</rscale>
<asrwt>0</asrwt>
<pdfrwt beam="1">  1       21 0.10598948E+00 0.45328935E+03</pdfrwt>
<pdfrwt beam="2">  1       21 0.10481187E-01 0.45328935E+03</pdfrwt>
<totfact> 0.48806149E+04</totfact>
</mgrwt>
</event>
<event>
 7    0  0.4770865E-002  0.4587550E+03  0.7546771E-02  0.1025143E+00
         21   -1    0    0  502  501  0.00000000000E+00  0.00000000000E+00  0.78494335594E+03  0.78494335594E+03  0.00000000000E+00 0. -1.
         21   -1    0    0  501  502 -0.00000000000E+00 -0.00000000000E+00 -0.67029099500E+02  0.67029099500E+02  0.00000000000E+00 0. -1.
      99926    2    1    2    0    0  0.00000000000E+00  0.71054273576E-14  0.71791425644E+03  0.85197245544E+03  0.45875503837E+03 0.  0.
      99925    2    3    3    0    0 -0.10280524446E+03  0.54734350225E+02  0.45761165151E+03  0.54057283820E+03  0.26314597170E+03 0.  0.
         25    1    3    3    0    0  0.10280524446E+03 -0.54734350225E+02  0.26030260493E+03  0.31139961724E+03  0.12509000000E+03 0.  0.
         25    1    4    4    0    0 -0.60423765781E+02 -0.91216062015E+01  0.25347115875E+03  0.28918743332E+03  0.12509000000E+03 0.  0.
         25    1    4    4    0    0 -0.42381478675E+02  0.63855956426E+02  0.20414049276E+03  0.25138540489E+03  0.12509000000E+03 0.  0.
<mgrwt>
<rscale>  2 0.45875504E+03</rscale>
<asrwt>0</asrwt>
<pdfrwt beam="1">  1       21 0.11543284E+00 0.45875504E+03</pdfrwt>
<pdfrwt beam="2">  1       21 0.98572210E-02 0.45875504E+03</pdfrwt>
<totfact> 0.44039628E+04</totfact>
</mgrwt>
</event>
<event>
 7    0  0.4770865E-002  0.4503897E+03  0.7546771E-02  0.1027606E+00
         21   -1    0    0  502  501  0.00000000000E+00  0.00000000000E+00  0.23169856893E+03  0.23169856893E+03  0.00000000000E+00 0. -1.
         21   -1    0    0  501  502 -0.00000000000E+00 -0.00000000000E+00 -0.21887366440E+03  0.21887366440E+03  0.00000000000E+00 0. -1.
      99926    2    1    2    0    0 -0.35527136788E-14  0.00000000000E+00  0.12824904531E+02  0.45057223332E+03  0.45038967491E+03 0.  0.
      99925    2    3    3    0    0  0.22655638519E+02  0.64836444024E+02 -0.76302432202E+02  0.28232172758E+03  0.26299516017E+03 0.  0.
         25    1    3    3    0    0 -0.22655638519E+02 -0.64836444024E+02  0.89127336733E+02  0.16825050574E+03  0.12509000000E+03 0.  0.
         25    1    4    4    0    0  0.41083497207E+02  0.24995294626E+02 -0.10789676341E+02  0.13444903760E+03  0.12509000000E+03 0.  0.
         25    1    4    4    0    0 -0.18427858688E+02  0.39841149398E+02 -0.65512755860E+02  0.14787268998E+03  0.12509000000E+03 0.  0.
<mgrwt>
<rscale>  2 0.45038967E+03</rscale>
<asrwt>0</asrwt>
<pdfrwt beam="1">  1       21 0.34073319E-01 0.45038967E+03</pdfrwt>
<pdfrwt beam="2">  1       21 0.32187304E-01 0.45038967E+03</pdfrwt>
<totfact> 0.71464289E+04</totfact>
</mgrwt>
</event>
<event>
 7    0  0.4770865E-002  0.4542235E+03  0.7546771E-02  0.1026470E+00
         21   -1    0    0  502  501  0.00000000000E+00  0.00000000000E+00  0.31350199613E+04  0.31350199613E+04  0.00000000000E+00 0.  1.
         21   -1    0    0  501  502 -0.00000000000E+00 -0.00000000000E+00 -0.16452765509E+02  0.16452765509E+02  0.00000000000E+00 0.  1.
      99926    2    1    2    0    0  0.00000000000E+00  0.00000000000E+00  0.31185671958E+04  0.31514727268E+04  0.45422350573E+03 0.  0.
      99925    2    3    3    0    0  0.10250075850E+03 -0.24238904127E+02  0.22332577585E+04  0.22511870845E+04  0.26326629742E+03 0.  0.
         25    1    4    4    0    0  0.61238370986E+02  0.27542586043E+02  0.11393509104E+04  0.11481623306E+04  0.12509000000E+03 0.  0.
         25    1    4    4    0    0  0.41262387518E+02 -0.51781490170E+02  0.10939068481E+04  0.11030247539E+04  0.12509000000E+03 0.  0.
         25    1    3    3    0    0 -0.10250075850E+03  0.24238904127E+02  0.88530943725E+03  0.90028564231E+03  0.12509000000E+03 0.  0.
<mgrwt>
<rscale>  2 0.45422351E+03</rscale>
<asrwt>0</asrwt>
<pdfrwt beam="1">  1       21 0.46103193E+00 0.45422351E+03</pdfrwt>
<pdfrwt beam="2">  1       21 0.24195265E-02 0.45422351E+03</pdfrwt>
<totfact> 0.25040468E+03</totfact>
</mgrwt>
</event>
<event>
 7    0  0.4770865E-002  0.4562656E+03  0.7546771E-02  0.1025870E+00
         21   -1    0    0  502  501  0.00000000000E+00  0.00000000000E+00  0.42599187355E+02  0.42599187355E+02  0.00000000000E+00 0. -1.
         21   -1    0    0  501  502 -0.00000000000E+00 -0.00000000000E+00 -0.12217269167E+04  0.12217269167E+04  0.00000000000E+00 0. -1.
      99926    2    1    2    0    0  0.00000000000E+00  0.00000000000E+00 -0.11791277293E+04  0.12643261040E+04  0.45626559730E+03 0.  0.
      99925    2    3    3    0    0 -0.75986313234E+02  0.13377944754E+02 -0.97494636262E+03  0.10127502153E+04  0.26303934935E+03 0.  0.
         25    1    4    4    0    0 -0.42870769835E+02  0.78191874168E+01 -0.64149322200E+03  0.65502679684E+03  0.12509000000E+03 0.  0.
         25    1    4    4    0    0 -0.33115543398E+02  0.55587573371E+01 -0.33345314062E+03  0.35772341842E+03  0.12509000000E+03 0.  0.
         25    1    3    3    0    0  0.75986313234E+02 -0.13377944754E+02 -0.20418136669E+03  0.25157588876E+03  0.12509000000E+03 0.  0.
<mgrwt>
<rscale>  2 0.45626560E+03</rscale>
<asrwt>0</asrwt>
<pdfrwt beam="1">  1       21 0.62645863E-02 0.45626560E+03</pdfrwt>
<pdfrwt beam="2">  1       21 0.17966572E+00 0.45626560E+03</pdfrwt>
<totfact> 0.29873232E+04</totfact>
</mgrwt>
</event>
<event>
 7    0  0.4770865E-002  0.4529380E+03  0.7546771E-02  0.1026849E+00
         21   -1    0    0  502  501  0.00000000000E+00  0.00000000000E+00  0.25272208887E+03  0.25272208887E+03  0.00000000000E+00 0.  1.
         21   -1    0    0  501  502 -0.00000000000E+00 -0.00000000000E+00 -0.20294315088E+03  0.20294315088E+03  0.00000000000E+00 0.  1.
      99926    2    1    2    0    0  0.00000000000E+00  0.00000000000E+00  0.49778937993E+02  0.45566523975E+03  0.45293803996E+03 0.  0.
      99925    2    3    3    0    0 -0.22332920036E+02 -0.95576250200E+02 -0.20799288240E+02  0.28170440209E+03  0.26323218049E+03 0.  0.
         25    1    4    4    0    0 -0.86656383469E+01 -0.81938445157E+02 -0.36477240286E+02  0.15416581736E+03  0.12509000000E+03 0.  0.
         25    1    4    4    0    0 -0.13667281689E+02 -0.13637805043E+02  0.15677952046E+02  0.12753858473E+03  0.12509000000E+03 0.  0.
         25    1    3    3    0    0  0.22332920036E+02  0.95576250200E+02  0.70578226233E+02  0.17396083766E+03  0.12509000000E+03 0.  0.
<mgrwt>
<rscale>  2 0.45293804E+03</rscale>
<asrwt>0</asrwt>
<pdfrwt beam="1">  1       21 0.37165013E-01 0.45293804E+03</pdfrwt>
<pdfrwt beam="2">  1       21 0.29844581E-01 0.45293804E+03</pdfrwt>
<totfact> 0.69635596E+04</totfact>
</mgrwt>
</event>
<event>
 7    0  0.4770865E-002  0.4523443E+03  0.7546771E-02  0.1027025E+00
         21   -1    0    0  502  501  0.00000000000E+00  0.00000000000E+00  0.68870592484E+02  0.68870592484E+02  0.00000000000E+00 0. -1.
         21   -1    0    0  501  502 -0.00000000000E+00 -0.00000000000E+00 -0.74275293072E+03  0.74275293072E+03  0.00000000000E+00 0. -1.
      99926    2    1    2    0    0  0.00000000000E+00 -0.14210854715E-13 -0.67388233824E+03  0.81162352321E+03  0.45234426893E+03 0.  0.
      99925    2    3    3    0    0 -0.98538508316E+01  0.80596931746E+02 -0.29023562786E+03  0.40001051288E+03  0.26301849166E+03 0.  0.
         25    1    4    4    0    0 -0.16449854925E+02  0.77208272606E+02 -0.13272082057E+03  0.19873107306E+03  0.12509000000E+03 0.  0.
         25    1    3    3    0    0  0.98538508316E+01 -0.80596931746E+02 -0.38364671039E+03  0.41161301033E+03  0.12509000000E+03 0.  0.
         25    1    4    4    0    0  0.65960040939E+01  0.33886591405E+01 -0.15751480728E+03  0.20127943982E+03  0.12509000000E+03 0.  0.
<mgrwt>
<rscale>  2 0.45234427E+03</rscale>
<asrwt>0</asrwt>
<pdfrwt beam="1">  1       21 0.10128029E-01 0.45234427E+03</pdfrwt>
<pdfrwt beam="2">  1       21 0.10922837E+00 0.45234427E+03</pdfrwt>
<totfact> 0.48204483E+04</totfact>
</mgrwt>
</event>
<event>
 7    0  0.4770865E-002  0.4534298E+03  0.7546771E-02  0.1026704E+00
         21   -1    0    0  502  501  0.00000000000E+00  0.00000000000E+00  0.18341116943E+03  0.18341116943E+03  0.00000000000E+00 0.  1.
         21   -1    0    0  501  502 -0.00000000000E+00 -0.00000000000E+00 -0.28024269159E+03  0.28024269159E+03  0.00000000000E+00 0.  1.
      99926    2    1    2    0    0  0.00000000000E+00  0.00000000000E+00 -0.96831522167E+02  0.46365386102E+03  0.45342977312E+03 0.  0.
      99925    2    3    3    0    0 -0.22408376950E+01 -0.91688768246E+02 -0.12610039168E+03  0.30580574922E+03  0.26306652371E+03 0.  0.
         25    1    3    3    0    0  0.22408376950E+01  0.91688768246E+02  0.29268869510E+02  0.15784811180E+03  0.12509000000E+03 0.  0.
         25    1    4    4    0    0 -0.33446343590E+01 -0.75543111276E+02 -0.99717379607E+02  0.17694352810E+03  0.12509000000E+03 0.  0.
         25    1    4    4    0    0  0.11037966640E+01 -0.16145656970E+02 -0.26383012069E+02  0.12886222112E+03  0.12509000000E+03 0.  0.
<mgrwt>
<rscale>  2 0.45342977E+03</rscale>
<asrwt>0</asrwt>
<pdfrwt beam="1">  1       21 0.26972231E-01 0.45342977E+03</pdfrwt>
<pdfrwt beam="2">  1       21 0.41212160E-01 0.45342977E+03</pdfrwt>
<totfact> 0.68763740E+04</totfact>
</mgrwt>
</event>
<event>
 7    0  0.4770865E-002  0.4458832E+03  0.7546771E-02  0.1028957E+00
         21   -1    0    0  502  501  0.00000000000E+00  0.00000000000E+00  0.20986578377E+03  0.20986578377E+03  0.00000000000E+00 0. -1.
         21   -1    0    0  501  502 -0.00000000000E+00 -0.00000000000E+00 -0.23683213934E+03  0.23683213934E+03  0.00000000000E+00 0. -1.
      99926    2    1    2    0    0  0.71054273576E-14  0.71054273576E-14 -0.26966355570E+02  0.44669792310E+03  0.44588322482E+03 0.  0.
      99925    2    3    3    0    0  0.61161875926E+02 -0.32155132005E+02 -0.95705861902E+02  0.28811874600E+03  0.26282707663E+03 0.  0.
         25    1    3    3    0    0 -0.61161875926E+02  0.32155132005E+02  0.68739506332E+02  0.15857917711E+03  0.12509000000E+03 0.  0.
         25    1    4    4    0    0  0.21750590779E+02  0.39670408617E+01 -0.10189200862E+02  0.12743686094E+03  0.12509000000E+03 0.  0.
         25    1    4    4    0    0  0.39411285147E+02 -0.36122172867E+02 -0.85516661041E+02  0.16068188506E+03  0.12509000000E+03 0.  0.
<mgrwt>
<rscale>  2 0.44588322E+03</rscale>
<asrwt>0</asrwt>
<pdfrwt beam="1">  1       21 0.30862615E-01 0.44588322E+03</pdfrwt>
<pdfrwt beam="2">  1       21 0.34828256E-01 0.44588322E+03</pdfrwt>
<totfact> 0.74426673E+04</totfact>
</mgrwt>
</event>
<event>
 7    0  0.4770865E-002  0.4578750E+03  0.7546771E-02  0.1025399E+00
         21   -1    0    0  502  501  0.00000000000E+00  0.00000000000E+00  0.46189654956E+03  0.46189654956E+03  0.00000000000E+00 0. -1.
         21   -1    0    0  501  502 -0.00000000000E+00 -0.00000000000E+00 -0.11347211238E+03  0.11347211238E+03  0.00000000000E+00 0. -1.
      99926    2    1    2    0    0  0.00000000000E+00  0.17763568394E-14  0.34842443718E+03  0.57536866194E+03  0.45787499246E+03 0.  0.
      99925    2    3    3    0    0  0.11070806304E+03  0.10976107697E+02  0.17797319519E+03  0.33645887947E+03  0.26297028199E+03 0.  0.
         25    1    3    3    0    0 -0.11070806304E+03 -0.10976107697E+02  0.17045124199E+03  0.23890978246E+03  0.12509000000E+03 0.  0.
         25    1    4    4    0    0  0.96212208013E+02 -0.29112852753E+01  0.84631338156E+02  0.17909560589E+03  0.12509000000E+03 0.  0.
         25    1    4    4    0    0  0.14495855025E+02  0.13887392973E+02  0.93341857031E+02  0.15736327358E+03  0.12509000000E+03 0.  0.
<mgrwt>
<rscale>  2 0.45787499E+03</rscale>
<asrwt>0</asrwt>
<pdfrwt beam="1">  1       21 0.67925962E-01 0.45787499E+03</pdfrwt>
<pdfrwt beam="2">  1       21 0.16687076E-01 0.45787499E+03</pdfrwt>
<totfact> 0.58870894E+04</totfact>
</mgrwt>
</event>
<event>
 7    0  0.4770865E-002  0.4499667E+03  0.7546771E-02  0.1027732E+00
         21   -1    0    0  502  501  0.00000000000E+00  0.00000000000E+00  0.97803645493E+03  0.97803645493E+03  0.00000000000E+00 0. -1.
         21   -1    0    0  501  502 -0.00000000000E+00 -0.00000000000E+00 -0.51754207608E+02  0.51754207608E+02  0.00000000000E+00 0. -1.
      99926    2    1    2    0    0  0.00000000000E+00  0.14210854715E-13  0.92628224733E+03  0.10297906625E+04  0.44996667315E+03 0.  0.
      99925    2    3    3    0    0  0.76961082880E+02  0.71566883641E+02  0.64482013504E+03  0.70434749414E+03  0.26318730749E+03 0.  0.
         25    1    4    4    0    0  0.58130424686E+02  0.51144020658E+02  0.25974769452E+03  0.29851504155E+03  0.12509000000E+03 0.  0.
         25    1    4    4    0    0  0.18830658194E+02  0.20422862984E+02  0.38507244053E+03  0.40583245259E+03  0.12509000000E+03 0.  0.
         25    1    3    3    0    0 -0.76961082880E+02 -0.71566883641E+02  0.28146211228E+03  0.32544316841E+03  0.12509000000E+03 0.  0.
<mgrwt>
<rscale>  2 0.44996667E+03</rscale>
<asrwt>0</asrwt>
<pdfrwt beam="1">  1       21 0.14382888E+00 0.44996667E+03</pdfrwt>
<pdfrwt beam="2">  1       21 0.76109135E-02 0.44996667E+03</pdfrwt>
<totfact> 0.39559559E+04</totfact>
</mgrwt>
</event>
<event>
 7    0  0.4770865E-002  0.4563524E+03  0.7546771E-02  0.1025844E+00
         21   -1    0    0  502  501  0.00000000000E+00  0.00000000000E+00  0.18997681707E+03  0.18997681707E+03  0.00000000000E+00 0. -1.
         21   -1    0    0  501  502 -0.00000000000E+00 -0.00000000000E+00 -0.27405653702E+03  0.27405653702E+03  0.00000000000E+00 0. -1.
      99926    2    1    2    0    0  0.00000000000E+00  0.00000000000E+00 -0.84079719955E+02  0.46403335409E+03  0.45635244537E+03 0.  0.
      99925    2    3    3    0    0  0.98367106157E+02 -0.39287276615E+02 -0.88014611580E+01  0.28366178752E+03  0.26299613363E+03 0.  0.
         25    1    4    4    0    0  0.73488479774E+02  0.21086883698E+01  0.20135026992E+02  0.14648525741E+03  0.12509000000E+03 0.  0.
         25    1    3    3    0    0 -0.98367106157E+02  0.39287276615E+02 -0.75278258797E+02  0.18037156656E+03  0.12509000000E+03 0.  0.
         25    1    4    4    0    0  0.24878626383E+02 -0.41395964985E+02 -0.28936488150E+02  0.13717653011E+03  0.12509000000E+03 0.  0.
<mgrwt>
<rscale>  2 0.45635245E+03</rscale>
<asrwt>0</asrwt>
<pdfrwt beam="1">  1       21 0.27937767E-01 0.45635245E+03</pdfrwt>
<pdfrwt beam="2">  1       21 0.40302432E-01 0.45635245E+03</pdfrwt>
<totfact> 0.67157045E+04</totfact>
</mgrwt>
</event>
<event>
 7    0  0.4770865E-002  0.4579377E+03  0.7546771E-02  0.1025381E+00
         21   -1    0    0  502  501  0.00000000000E+00  0.00000000000E+00  0.15177135201E+03  0.15177135201E+03  0.00000000000E+00 0.  1.
         21   -1    0    0  501  502 -0.00000000000E+00 -0.00000000000E+00 -0.34543238930E+03  0.34543238930E+03  0.00000000000E+00 0.  1.
      99926    2    1    2    0    0  0.00000000000E+00  0.00000000000E+00 -0.19366103729E+03  0.49720374131E+03  0.45793772830E+03 0.  0.
      99925    2    3    3    0    0 -0.79899875654E+02  0.66933607698E+02 -0.67014578350E+02  0.29092496966E+03  0.26321528506E+03 0.  0.
         25    1    4    4    0    0 -0.26138748252E+02  0.68488126474E+02 -0.51586780745E+02  0.15389139572E+03  0.12509000000E+03 0.  0.
         25    1    3    3    0    0  0.79899875654E+02 -0.66933607698E+02 -0.12664645894E+03  0.20627877165E+03  0.12509000000E+03 0.  0.
         25    1    4    4    0    0 -0.53761127402E+02 -0.15545187762E+01 -0.15427797605E+02  0.13703357394E+03  0.12509000000E+03 0.  0.
<mgrwt>
<rscale>  2 0.45793773E+03</rscale>
<asrwt>0</asrwt>
<pdfrwt beam="1">  1       21 0.22319317E-01 0.45793773E+03</pdfrwt>
<pdfrwt beam="2">  1       21 0.50798880E-01 0.45793773E+03</pdfrwt>
<totfact> 0.63962803E+04</totfact>
</mgrwt>
</event>
<event>
 7    0  0.4770865E-002  0.4570832E+03  0.7546771E-02  0.1025631E+00
         21   -1    0    0  502  501  0.00000000000E+00  0.00000000000E+00  0.77970628531E+02  0.77970628531E+02  0.00000000000E+00 0. -1.
         21   -1    0    0  501  502 -0.00000000000E+00 -0.00000000000E+00 -0.66988388945E+03  0.66988388945E+03  0.00000000000E+00 0. -1.
      99926    2    1    2    0    0  0.71054273576E-14  0.00000000000E+00 -0.59191326092E+03  0.74785451798E+03  0.45708322176E+03 0.  0.
      99925    2    3    3    0    0 -0.36062335873E+02  0.10717607451E+03 -0.33695988949E+03  0.44218160011E+03  0.26305018026E+03 0.  0.
         25    1    4    4    0    0 -0.32831352271E+02  0.95223331312E+02 -0.19180166849E+03  0.25016148515E+03  0.12509000000E+03 0.  0.
         25    1    4    4    0    0 -0.32309836026E+01  0.11952743198E+02 -0.14515822100E+03  0.19202011496E+03  0.12509000000E+03 0.  0.
         25    1    3    3    0    0  0.36062335873E+02 -0.10717607451E+03 -0.25495337143E+03  0.30567291787E+03  0.12509000000E+03 0.  0.
<mgrwt>
<rscale>  2 0.45708322E+03</rscale>
<asrwt>0</asrwt>
<pdfrwt beam="1">  1       21 0.11466269E-01 0.45708322E+03</pdfrwt>
<pdfrwt beam="2">  1       21 0.98512335E-01 0.45708322E+03</pdfrwt>
<totfact> 0.49564018E+04</totfact>
</mgrwt>
</event>
<event>
 7    0  0.4770865E-002  0.4629971E+03  0.7546771E-02  0.1023916E+00
         21   -1    0    0  502  501  0.00000000000E+00  0.00000000000E+00  0.14815626569E+03  0.14815626569E+03  0.00000000000E+00 0.  1.
         21   -1    0    0  501  502 -0.00000000000E+00 -0.00000000000E+00 -0.36172328348E+03  0.36172328348E+03  0.00000000000E+00 0.  1.
      99926    2    1    2    0    0  0.14210854715E-13  0.00000000000E+00 -0.21356701779E+03  0.50987954917E+03  0.46299706648E+03 0.  0.
      99925    2    3    3    0    0  0.10781681609E+03  0.16643905794E+02 -0.77171612704E+02  0.29504775436E+03  0.26305177078E+03 0.  0.
         25    1    3    3    0    0 -0.10781681609E+03 -0.16643905794E+02 -0.13639540509E+03  0.21483179481E+03  0.12509000000E+03 0.  0.
         25    1    4    4    0    0  0.33996534247E+02 -0.27076865234E+02 -0.46043137058E+02  0.14020128224E+03  0.12509000000E+03 0.  0.
         25    1    4    4    0    0  0.73820281843E+02  0.43720771028E+02 -0.31128475645E+02  0.15484647212E+03  0.12509000000E+03 0.  0.
<mgrwt>
<rscale>  2 0.46299707E+03</rscale>
<asrwt>0</asrwt>
<pdfrwt beam="1">  1       21 0.21787686E-01 0.46299707E+03</pdfrwt>
<pdfrwt beam="2">  1       21 0.53194600E-01 0.46299707E+03</pdfrwt>
<totfact> 0.60640514E+04</totfact>
</mgrwt>
</event>
<event>
 7    0  0.4770865E-002  0.4522861E+03  0.7546771E-02  0.1027043E+00
         21   -1    0    0  502  501  0.00000000000E+00  0.00000000000E+00  0.19203390672E+03  0.19203390672E+03  0.00000000000E+00 0.  1.
         21   -1    0    0  501  502 -0.00000000000E+00 -0.00000000000E+00 -0.26631062650E+03  0.26631062650E+03  0.00000000000E+00 0.  1.
      99926    2    1    2    0    0  0.00000000000E+00 -0.44408920985E-15 -0.74276719781E+02  0.45834453323E+03  0.45228605996E+03 0.  0.
      99925    2    3    3    0    0 -0.62858275633E+02 -0.21472227053E+01  0.45141932254E+02  0.27432253472E+03  0.26317158970E+03 0.  0.
         25    1    4    4    0    0 -0.47790058680E+01 -0.24673327189E+01  0.53492737288E+02  0.13615398514E+03  0.12509000000E+03 0.  0.
         25    1    3    3    0    0  0.62858275633E+02  0.21472227053E+01 -0.11941865203E+03  0.18402199851E+03  0.12509000000E+03 0.  0.
         25    1    4    4    0    0 -0.58079269765E+02  0.32011001362E+00 -0.83508050345E+01  0.13816854957E+03  0.12509000000E+03 0.  0.
<mgrwt>
<rscale>  2 0.45228606E+03</rscale>
<asrwt>0</asrwt>
<pdfrwt beam="1">  1       21 0.28240281E-01 0.45228606E+03</pdfrwt>
<pdfrwt beam="2">  1       21 0.39163327E-01 0.45228606E+03</pdfrwt>
<totfact> 0.69799757E+04</totfact>
</mgrwt>
</event>
<event>
 7    0  0.4770865E-002  0.4571185E+03  0.7546771E-02  0.1025620E+00
         21   -1    0    0  502  501  0.00000000000E+00  0.00000000000E+00  0.13587808546E+03  0.13587808546E+03  0.00000000000E+00 0. -1.
         21   -1    0    0  501  502 -0.00000000000E+00 -0.00000000000E+00 -0.38445729980E+03  0.38445729980E+03  0.00000000000E+00 0. -1.
      99926    2    1    2    0    0  0.35527136788E-14  0.00000000000E+00 -0.24857921433E+03  0.52033538526E+03  0.45711846096E+03 0.  0.
      99925    2    3    3    0    0 -0.26990118157E+02 -0.11070910177E+03 -0.13681991163E+03  0.31754825171E+03  0.26293009005E+03 0.  0.
         25    1    4    4    0    0 -0.14122488610E+02 -0.14979090629E+02 -0.43594178653E+02  0.13405886152E+03  0.12509000000E+03 0.  0.
         25    1    3    3    0    0  0.26990118157E+02  0.11070910177E+03 -0.11175930270E+03  0.20278713355E+03  0.12509000000E+03 0.  0.
         25    1    4    4    0    0 -0.12867629547E+02 -0.95730011137E+02 -0.93225732981E+02  0.18348939019E+03  0.12509000000E+03 0.  0.
<mgrwt>
<rscale>  2 0.45711846E+03</rscale>
<asrwt>0</asrwt>
<pdfrwt beam="1">  1       21 0.19982072E-01 0.45711846E+03</pdfrwt>
<pdfrwt beam="2">  1       21 0.56537837E-01 0.45711846E+03</pdfrwt>
<totfact> 0.62802193E+04</totfact>
</mgrwt>
</event>
<event>
 7    0  0.4770865E-002  0.4592831E+03  0.7546771E-02  0.1024989E+00
         21   -1    0    0  502  501  0.00000000000E+00  0.00000000000E+00  0.56192070777E+02  0.56192070777E+02  0.00000000000E+00 0. -1.
         21   -1    0    0  501  502 -0.00000000000E+00 -0.00000000000E+00 -0.93848206640E+03  0.93848206640E+03  0.00000000000E+00 0. -1.
      99926    2    1    2    0    0  0.14210854715E-13  0.35527136788E-14 -0.88228999562E+03  0.99467413718E+03  0.45928314011E+03 0.  0.
      99925    2    3    3    0    0 -0.93026286688E+02 -0.26201683374E+02 -0.69578375805E+03  0.75018998026E+03  0.26330505179E+03 0.  0.
         25    1    4    4    0    0 -0.85339839030E+02 -0.28992753420E+02 -0.35289700360E+03  0.38510683080E+03  0.12509000000E+03 0.  0.
         25    1    4    4    0    0 -0.76864476579E+01  0.27910700460E+01 -0.34288675444E+03  0.36508314946E+03  0.12509000000E+03 0.  0.
         25    1    3    3    0    0  0.93026286688E+02  0.26201683374E+02 -0.18650623758E+03  0.24448415691E+03  0.12509000000E+03 0.  0.
<mgrwt>
<rscale>  2 0.45928314E+03</rscale>
<asrwt>0</asrwt>
<pdfrwt beam="1">  1       21 0.82635403E-02 0.45928314E+03</pdfrwt>
<pdfrwt beam="2">  1       21 0.13801206E+00 0.45928314E+03</pdfrwt>
<totfact> 0.38084490E+04</totfact>
</mgrwt>
</event>
<event>
 7    0  0.4770865E-002  0.4074849E+03  0.7546771E-02  0.1041218E+00
         21   -1    0    0  502  501  0.00000000000E+00  0.00000000000E+00  0.40919070276E+03  0.40919070276E+03  0.00000000000E+00 0. -1.
         21   -1    0    0  501  502 -0.00000000000E+00 -0.00000000000E+00 -0.10144656720E+03  0.10144656720E+03  0.00000000000E+00 0. -1.
      99926    2    1    2    0    0  0.00000000000E+00  0.00000000000E+00  0.30774413556E+03  0.51063726996E+03  0.40748493039E+03 0.  0.
      99925    2    3    3    0    0  0.41130423914E+02  0.35237757373E+02  0.17550745361E+03  0.32072292224E+03  0.26291997882E+03 0.  0.
         25    1    3    3    0    0 -0.41130423914E+02 -0.35237757373E+02  0.13223668195E+03  0.18991434772E+03  0.12509000000E+03 0.  0.
         25    1    4    4    0    0  0.16797221312E+02  0.18794042318E+02  0.39406328731E+02  0.13355047553E+03  0.12509000000E+03 0.  0.
         25    1    4    4    0    0  0.24333202602E+02  0.16443715055E+02  0.13610112488E+03  0.18717244671E+03  0.12509000000E+03 0.  0.
<mgrwt>
<rscale>  2 0.40748493E+03</rscale>
<asrwt>0</asrwt>
<pdfrwt beam="1">  1       21 0.60175103E-01 0.40748493E+03</pdfrwt>
<pdfrwt beam="2">  1       21 0.14918613E-01 0.40748493E+03</pdfrwt>
<totfact> 0.95830903E+04</totfact>
</mgrwt>
</event>
<event>
 7    0  0.4770865E-002  0.4557221E+03  0.7546771E-02  0.1026029E+00
         21   -1    0    0  502  501  0.00000000000E+00  0.00000000000E+00  0.23827413397E+03  0.23827413397E+03  0.00000000000E+00 0. -1.
         21   -1    0    0  501  502 -0.00000000000E+00 -0.00000000000E+00 -0.21790299405E+03  0.21790299405E+03  0.00000000000E+00 0. -1.
      99926    2    1    2    0    0  0.17763568394E-14  0.00000000000E+00  0.20371139927E+02  0.45617712802E+03  0.45572205212E+03 0.  0.
      99925    2    3    3    0    0 -0.10675256696E+02  0.22368595195E+02 -0.98372413365E+02  0.28193059375E+03  0.26304640812E+03 0.  0.
         25    1    4    4    0    0 -0.38469999406E+02  0.18665789769E+02 -0.26036159116E+02  0.13473582391E+03  0.12509000000E+03 0.  0.
         25    1    3    3    0    0  0.10675256696E+02 -0.22368595195E+02  0.11874355329E+03  0.17424653427E+03  0.12509000000E+03 0.  0.
         25    1    4    4    0    0  0.27794742710E+02  0.37028054266E+01 -0.72336254250E+02  0.14719476984E+03  0.12509000000E+03 0.  0.
<mgrwt>
<rscale>  2 0.45572205E+03</rscale>
<asrwt>0</asrwt>
<pdfrwt beam="1">  1       21 0.35040314E-01 0.45572205E+03</pdfrwt>
<pdfrwt beam="2">  1       21 0.32044558E-01 0.45572205E+03</pdfrwt>
<totfact> 0.68066676E+04</totfact>
</mgrwt>
</event>
<event>
 7    0  0.4770865E-002  0.4561573E+03  0.7546771E-02  0.1025902E+00
         21   -1    0    0  502  501  0.00000000000E+00  0.00000000000E+00  0.93891935045E+03  0.93891935045E+03  0.00000000000E+00 0. -1.
         21   -1    0    0  501  502 -0.00000000000E+00 -0.00000000000E+00 -0.55403992991E+02  0.55403992991E+02  0.00000000000E+00 0. -1.
      99926    2    1    2    0    0  0.00000000000E+00  0.14210854715E-13  0.88351535746E+03  0.99432334344E+03  0.45615734615E+03 0.  0.
      99925    2    3    3    0    0 -0.52251084335E+01 -0.11375628631E+03  0.53587656788E+03  0.60771238841E+03  0.26302634200E+03 0.  0.
         25    1    3    3    0    0  0.52251084335E+01  0.11375628631E+03  0.34763878958E+03  0.38661095504E+03  0.12509000000E+03 0.  0.
         25    1    4    4    0    0 -0.33925480854E+01 -0.38013568327E+02  0.33180035138E+03  0.35664481216E+03  0.12509000000E+03 0.  0.
         25    1    4    4    0    0 -0.18325603482E+01 -0.75742717984E+02  0.20407621650E+03  0.25106757625E+03  0.12509000000E+03 0.  0.
<mgrwt>
<rscale>  2 0.45615735E+03</rscale>
<asrwt>0</asrwt>
<pdfrwt beam="1">  1       21 0.13807637E+00 0.45615735E+03</pdfrwt>
<pdfrwt beam="2">  1       21 0.81476466E-02 0.45615735E+03</pdfrwt>
<totfact> 0.39034266E+04</totfact>
</mgrwt>
</event>
<event>
 7    0  0.4770865E-002  0.4500832E+03  0.7546771E-02  0.1027697E+00
         21   -1    0    0  502  501  0.00000000000E+00  0.00000000000E+00  0.18437430087E+03  0.18437430087E+03  0.00000000000E+00 0. -1.
         21   -1    0    0  501  502 -0.00000000000E+00 -0.00000000000E+00 -0.27467891314E+03  0.27467891314E+03  0.00000000000E+00 0. -1.
      99926    2    1    2    0    0  0.00000000000E+00  0.71054273576E-14 -0.90304612271E+02  0.45905321401E+03  0.45008324818E+03 0.  0.
      99925    2    3    3    0    0  0.58031495574E+02 -0.37734917167E+02  0.28296075275E+02  0.27329743445E+03  0.26286734554E+03 0.  0.
         25    1    3    3    0    0 -0.58031495574E+02  0.37734917167E+02 -0.11860068755E+03  0.18575577956E+03  0.12509000000E+03 0.  0.
         25    1    4    4    0    0  0.24585164814E+02 -0.59222591300E+02  0.15540645538E+02  0.14142406236E+03  0.12509000000E+03 0.  0.
         25    1    4    4    0    0  0.33446330760E+02  0.21487674133E+02  0.12755429738E+02  0.13187337210E+03  0.12509000000E+03 0.  0.
<mgrwt>
<rscale>  2 0.45008325E+03</rscale>
<asrwt>0</asrwt>
<pdfrwt beam="1">  1       21 0.27113868E-01 0.45008325E+03</pdfrwt>
<pdfrwt beam="2">  1       21 0.40393957E-01 0.45008325E+03</pdfrwt>
<totfact> 0.70987868E+04</totfact>
</mgrwt>
</event>
<event>
 7    0  0.4770865E-002  0.4326971E+03  0.7546771E-02  0.1033011E+00
         21   -1    0    0  502  501  0.00000000000E+00  0.00000000000E+00  0.36437571562E+03  0.36437571562E+03  0.00000000000E+00 0. -1.
         21   -1    0    0  501  502 -0.00000000000E+00 -0.00000000000E+00 -0.12845723578E+03  0.12845723578E+03  0.00000000000E+00 0. -1.
      99926    2    1    2    0    0 -0.71054273576E-14  0.00000000000E+00  0.23591847984E+03  0.49283295140E+03  0.43269710984E+03 0.  0.
      99925    2    3    3    0    0 -0.34342458215E+02 -0.65245005014E+02  0.92480308853E+02  0.28872922260E+03  0.26339256129E+03 0.  0.
         25    1    3    3    0    0  0.34342458215E+02  0.65245005014E+02  0.14343817099E+03  0.20410372880E+03  0.12509000000E+03 0.  0.
         25    1    4    4    0    0  0.18057025586E+02 -0.27635216907E+02  0.67032017808E+02  0.14570710655E+03  0.12509000000E+03 0.  0.
         25    1    4    4    0    0 -0.52399483801E+02 -0.37609788107E+02  0.25448291046E+02  0.14302211606E+03  0.12509000000E+03 0.  0.
<mgrwt>
<rscale>  2 0.43269711E+03</rscale>
<asrwt>0</asrwt>
<pdfrwt beam="1">  1       21 0.53584664E-01 0.43269711E+03</pdfrwt>
<pdfrwt beam="2">  1       21 0.18890770E-01 0.43269711E+03</pdfrwt>
<totfact> 0.78835033E+04</totfact>
</mgrwt>
</event>
<event>
 7    0  0.4770865E-002  0.4532841E+03  0.7546771E-02  0.1026747E+00
         21   -1    0    0  502  501  0.00000000000E+00  0.00000000000E+00  0.17575387521E+03  0.17575387521E+03  0.00000000000E+00 0. -1.
         21   -1    0    0  501  502 -0.00000000000E+00 -0.00000000000E+00 -0.29226446162E+03  0.29226446162E+03  0.00000000000E+00 0. -1.
      99926    2    1    2    0    0  0.00000000000E+00  0.00000000000E+00 -0.11651058642E+03  0.46801833683E+03  0.45328406862E+03 0.  0.
      99925    2    3    3    0    0  0.90132474221E+02 -0.51062844430E+02 -0.30968279173E+02  0.28445289504E+03  0.26310290419E+03 0.  0.
         25    1    4    4    0    0  0.67286638741E+02 -0.52040258081E+02  0.79127884090E+01  0.15147871314E+03  0.12509000000E+03 0.  0.
         25    1    4    4    0    0  0.22845835480E+02  0.97741365126E+00 -0.38881067582E+02  0.13297418190E+03  0.12509000000E+03 0.  0.
         25    1    3    3    0    0 -0.90132474221E+02  0.51062844430E+02 -0.85542307245E+02  0.18356544179E+03  0.12509000000E+03 0.  0.
<mgrwt>
<rscale>  2 0.45328407E+03</rscale>
<asrwt>0</asrwt>
<pdfrwt beam="1">  1       21 0.25846158E-01 0.45328407E+03</pdfrwt>
<pdfrwt beam="2">  1       21 0.42980067E-01 0.45328407E+03</pdfrwt>
<totfact> 0.68511249E+04</totfact>
</mgrwt>
</event>
<event>
 7    0  0.4770865E-002  0.4452238E+03  0.7546771E-02  0.1029156E+00
         21   -1    0    0  502  501  0.00000000000E+00  0.00000000000E+00  0.13957307629E+03  0.13957307629E+03  0.00000000000E+00 0.  1.
         21   -1    0    0  501  502 -0.00000000000E+00 -0.00000000000E+00 -0.35505453806E+03  0.35505453806E+03  0.00000000000E+00 0.  1.
      99926    2    1    2    0    0  0.00000000000E+00  0.00000000000E+00 -0.21548146177E+03  0.49462761435E+03  0.44522378251E+03 0.  0.
      99925    2    3    3    0    0  0.37507838183E+02  0.94095752492E+02 -0.16171645656E+03  0.32492483756E+03  0.26298876247E+03 0.  0.
         25    1    3    3    0    0 -0.37507838183E+02 -0.94095752492E+02 -0.53765005214E+02  0.16970277678E+03  0.12509000000E+03 0.  0.
         25    1    4    4    0    0 -0.18919436381E+02  0.54759071691E+02 -0.94511780168E+02  0.16714211228E+03  0.12509000000E+03 0.  0.
         25    1    4    4    0    0  0.56427274564E+02  0.39336680801E+02 -0.67204676388E+02  0.15778272529E+03  0.12509000000E+03 0.  0.
<mgrwt>
<rscale>  2 0.44522378E+03</rscale>
<asrwt>0</asrwt>
<pdfrwt beam="1">  1       21 0.20525453E-01 0.44522378E+03</pdfrwt>
<pdfrwt beam="2">  1       21 0.52213902E-01 0.44522378E+03</pdfrwt>
<totfact> 0.71001826E+04</totfact>
</mgrwt>
</event>
<event>
 7    0  0.4770865E-002  0.4493644E+03  0.7546771E-02  0.1027912E+00
         21   -1    0    0  502  501  0.00000000000E+00  0.00000000000E+00  0.18722469051E+04  0.18722469051E+04  0.00000000000E+00 0.  1.
         21   -1    0    0  501  502 -0.00000000000E+00 -0.00000000000E+00 -0.26963374709E+02  0.26963374709E+02  0.00000000000E+00 0.  1.
      99926    2    1    2    0    0  0.00000000000E+00 -0.14210854715E-13  0.18452835304E+04  0.18992102798E+04  0.44936441715E+03 0.  0.
      99925    2    3    3    0    0 -0.64147160871E+02  0.83345955549E+02  0.12659607218E+04  0.12972768689E+04  0.26307664055E+03 0.  0.
         25    1    4    4    0    0 -0.79473959880E+01  0.11003377705E+02  0.48358982976E+03  0.49969077135E+03  0.12509000000E+03 0.  0.
         25    1    4    4    0    0 -0.56199764883E+02  0.72342577844E+02  0.78237089208E+03  0.79758609756E+03  0.12509000000E+03 0.  0.
         25    1    3    3    0    0  0.64147160871E+02 -0.83345955549E+02  0.57932280857E+03  0.60193341092E+03  0.12509000000E+03 0.  0.
<mgrwt>
<rscale>  2 0.44936442E+03</rscale>
<asrwt>0</asrwt>
<pdfrwt beam="1">  1       21 0.27533034E+00 0.44936442E+03</pdfrwt>
<pdfrwt beam="2">  1       21 0.39652034E-02 0.44936442E+03</pdfrwt>
<totfact> 0.16119453E+04</totfact>
</mgrwt>
</event>
<event>
 7    0  0.4770865E-002  0.4510071E+03  0.7546771E-02  0.1027422E+00
         21   -1    0    0  502  501  0.00000000000E+00  0.00000000000E+00  0.17440866828E+03  0.17440866828E+03  0.00000000000E+00 0. -1.
         21   -1    0    0  501  502 -0.00000000000E+00 -0.00000000000E+00 -0.29156727223E+03  0.29156727223E+03  0.00000000000E+00 0. -1.
      99926    2    1    2    0    0  0.00000000000E+00  0.44408920985E-15 -0.11715860395E+03  0.46597594050E+03  0.45100713814E+03 0.  0.
      99925    2    3    3    0    0 -0.74580406826E+02 -0.30493684697E+01 -0.15705275116E+03  0.31494419943E+03  0.26258854959E+03 0.  0.
         25    1    4    4    0    0 -0.29571134548E+02 -0.39957991873E+02 -0.86254632038E+02  0.15987014343E+03  0.12509000000E+03 0.  0.
         25    1    3    3    0    0  0.74580406826E+02  0.30493684697E+01  0.39894147211E+02  0.15103174107E+03  0.12509000000E+03 0.  0.
         25    1    4    4    0    0 -0.45009272278E+02  0.36908623403E+02 -0.70798119120E+02  0.15507405600E+03  0.12509000000E+03 0.  0.
<mgrwt>
<rscale>  2 0.45100714E+03</rscale>
<asrwt>0</asrwt>
<pdfrwt beam="1">  1       21 0.25648334E-01 0.45100714E+03</pdfrwt>
<pdfrwt beam="2">  1       21 0.42877539E-01 0.45100714E+03</pdfrwt>
<totfact> 0.69924914E+04</totfact>
</mgrwt>
</event>
<event>
 7    0  0.4770865E-002  0.4464041E+03  0.7546771E-02  0.1028800E+00
         21   -1    0    0  502  501  0.00000000000E+00  0.00000000000E+00  0.13576192039E+03  0.13576192039E+03  0.00000000000E+00 0. -1.
         21   -1    0    0  501  502 -0.00000000000E+00 -0.00000000000E+00 -0.36695972521E+03  0.36695972521E+03  0.00000000000E+00 0. -1.
      99926    2    1    2    0    0  0.17763568394E-14  0.00000000000E+00 -0.23119780482E+03  0.50272164560E+03  0.44640410840E+03 0.  0.
      99925    2    3    3    0    0 -0.76813218575E+01 -0.50998837991E+02 -0.44151232385E+02  0.27186711880E+03  0.26325370801E+03 0.  0.
         25    1    4    4    0    0  0.21615284995E+02 -0.29886904931E+02 -0.54314961623E+02  0.14127303631E+03  0.12509000000E+03 0.  0.
         25    1    4    4    0    0 -0.29296606852E+02 -0.21111933060E+02  0.10163729239E+02  0.13059408249E+03  0.12509000000E+03 0.  0.
         25    1    3    3    0    0  0.76813218575E+01  0.50998837991E+02 -0.18704657244E+03  0.23085452680E+03  0.12509000000E+03 0.  0.
<mgrwt>
<rscale>  2 0.44640411E+03</rscale>
<asrwt>0</asrwt>
<pdfrwt beam="1">  1       21 0.19964989E-01 0.44640411E+03</pdfrwt>
<pdfrwt beam="2">  1       21 0.53964665E-01 0.44640411E+03</pdfrwt>
<totfact> 0.69716121E+04</totfact>
</mgrwt>
</event>
<event>
 7    0  0.4770865E-002  0.4521295E+03  0.7546771E-02  0.1027089E+00
         21   -1    0    0  502  501  0.00000000000E+00  0.00000000000E+00  0.56372398455E+03  0.56372398455E+03  0.00000000000E+00 0. -1.
         21   -1    0    0  501  502 -0.00000000000E+00 -0.00000000000E+00 -0.90656553879E+02  0.90656553879E+02  0.00000000000E+00 0. -1.
      99926    2    1    2    0    0  0.00000000000E+00  0.00000000000E+00  0.47306743067E+03  0.65438053843E+03  0.45212951144E+03 0.  0.
      99925    2    3    3    0    0  0.33450947062E+02 -0.60554729631E+02  0.17400333211E+03  0.32291005062E+03  0.26307394411E+03 0.  0.
         25    1    4    4    0    0 -0.21804923845E+01 -0.28379328809E+02  0.12806145006E+03  0.18126605844E+03  0.12509000000E+03 0.  0.
         25    1    4    4    0    0  0.35631439447E+02 -0.32175400823E+02  0.45941882052E+02  0.14164399218E+03  0.12509000000E+03 0.  0.
         25    1    3    3    0    0 -0.33450947062E+02  0.60554729631E+02  0.29906409856E+03  0.33147048781E+03  0.12509000000E+03 0.  0.
<mgrwt>
<rscale>  2 0.45212951E+03</rscale>
<asrwt>0</asrwt>
<pdfrwt beam="1">  1       21 0.82900584E-01 0.45212951E+03</pdfrwt>
<pdfrwt beam="2">  1       21 0.13331846E-01 0.45212951E+03</pdfrwt>
<totfact> 0.56723255E+04</totfact>
</mgrwt>
</event>
<event>
 7    0  0.4770865E-002  0.4544934E+03  0.7546771E-02  0.1026390E+00
         21   -1    0    0  502  501  0.00000000000E+00  0.00000000000E+00  0.37421748684E+03  0.37421748684E+03  0.00000000000E+00 0.  1.
         21   -1    0    0  501  502 -0.00000000000E+00 -0.00000000000E+00 -0.13799744218E+03  0.13799744218E+03  0.00000000000E+00 0.  1.
      99926    2    1    2    0    0  0.00000000000E+00  0.00000000000E+00  0.23622004466E+03  0.51221492901E+03  0.45449337069E+03 0.  0.
      99925    2    3    3    0    0 -0.10572394758E+03  0.38628120388E+02  0.13646021924E+03  0.31658973727E+03  0.26256044168E+03 0.  0.
         25    1    4    4    0    0 -0.42356378591E+02  0.16812920935E+02  0.10896423195E+03  0.17203909167E+03  0.12509000000E+03 0.  0.
         25    1    4    4    0    0 -0.63367568987E+02  0.21815199453E+02  0.27495987287E+02  0.14455064560E+03  0.12509000000E+03 0.  0.
         25    1    3    3    0    0  0.10572394758E+03 -0.38628120388E+02  0.99759825427E+02  0.19562519175E+03  0.12509000000E+03 0.  0.
<mgrwt>
<rscale>  2 0.45449337E+03</rscale>
<asrwt>0</asrwt>
<pdfrwt beam="1">  1       21 0.55031983E-01 0.45449337E+03</pdfrwt>
<pdfrwt beam="2">  1       21 0.20293742E-01 0.45449337E+03</pdfrwt>
<totfact> 0.64680420E+04</totfact>
</mgrwt>
</event>
<event>
 7    0  0.4770865E-002  0.4554487E+03  0.7546771E-02  0.1026110E+00
         21   -1    0    0  502  501  0.00000000000E+00  0.00000000000E+00  0.23626962462E+03  0.23626962462E+03  0.00000000000E+00 0. -1.
         21   -1    0    0  501  502 -0.00000000000E+00 -0.00000000000E+00 -0.21948810356E+03  0.21948810356E+03  0.00000000000E+00 0. -1.
      99926    2    1    2    0    0 -0.14210854715E-13 -0.71054273576E-14  0.16781521055E+02  0.45575772818E+03  0.45544866598E+03 0.  0.
      99925    2    3    3    0    0 -0.85992651798E+02  0.63400226018E+02  0.48974489608E+02  0.28813249098E+03  0.26307319685E+03 0.  0.
         25    1    4    4    0    0 -0.71715060949E+01  0.28996233574E+02 -0.61331724233E-01  0.12860685799E+03  0.12509000000E+03 0.  0.
         25    1    3    3    0    0  0.85992651798E+02 -0.63400226018E+02 -0.32192968553E+02  0.16762523720E+03  0.12509000000E+03 0.  0.
         25    1    4    4    0    0 -0.78821145703E+02  0.34403992444E+02  0.49035821332E+02  0.15952563299E+03  0.12509000000E+03 0.  0.
<mgrwt>
<rscale>  2 0.45544867E+03</rscale>
<asrwt>0</asrwt>
<pdfrwt beam="1">  1       21 0.34745534E-01 0.45544867E+03</pdfrwt>
<pdfrwt beam="2">  1       21 0.32277662E-01 0.45544867E+03</pdfrwt>
<totfact> 0.68245696E+04</totfact>
</mgrwt>
</event>
<event>
 7    0  0.4770865E-002  0.4387023E+03  0.7546771E-02  0.1031146E+00
         21   -1    0    0  502  501  0.00000000000E+00  0.00000000000E+00  0.11129161256E+04  0.11129161256E+04  0.00000000000E+00 0. -1.
         21   -1    0    0  501  502 -0.00000000000E+00 -0.00000000000E+00 -0.43233206636E+02  0.43233206636E+02  0.00000000000E+00 0. -1.
      99926    2    1    2    0    0 -0.35527136788E-14  0.00000000000E+00  0.10696829190E+04  0.11561493323E+04  0.43870232654E+03 0.  0.
      99925    2    3    3    0    0 -0.13067769481E+02  0.65778116319E+02  0.49778117410E+03  0.56689841704E+03  0.26285012986E+03 0.  0.
         25    1    3    3    0    0  0.13067769481E+02 -0.65778116319E+02  0.57190174490E+03  0.58925091524E+03  0.12509000000E+03 0.  0.
         25    1    4    4    0    0  0.27921902688E+02  0.53459028640E+02  0.26561032392E+03  0.29972295986E+03  0.12509000000E+03 0.  0.
         25    1    4    4    0    0 -0.40989672169E+02  0.12319087679E+02  0.23217085018E+03  0.26717545718E+03  0.12509000000E+03 0.  0.
<mgrwt>
<rscale>  2 0.43870233E+03</rscale>
<asrwt>0</asrwt>
<pdfrwt beam="1">  1       21 0.16366412E+00 0.43870233E+03</pdfrwt>
<pdfrwt beam="2">  1       21 0.63578252E-02 0.43870233E+03</pdfrwt>
<totfact> 0.38204274E+04</totfact>
</mgrwt>
</event>
<event>
 7    0  0.4770865E-002  0.4504262E+03  0.7546771E-02  0.1027595E+00
         21   -1    0    0  502  501  0.00000000000E+00  0.00000000000E+00  0.67211746849E+03  0.67211746849E+03  0.00000000000E+00 0.  1.
         21   -1    0    0  501  502 -0.00000000000E+00 -0.00000000000E+00 -0.75464385070E+02  0.75464385070E+02  0.00000000000E+00 0.  1.
      99926    2    1    2    0    0 -0.19428902931E-14  0.00000000000E+00  0.59665308342E+03  0.74758185356E+03  0.45042616023E+03 0.  0.
      99925    2    3    3    0    0 -0.42983803015E+00  0.94771032602E+02  0.28794705857E+03  0.40127469039E+03  0.26291849541E+03 0.  0.
         25    1    4    4    0    0  0.37767355859E+02  0.43121283487E+02  0.12340513405E+03  0.18483006646E+03  0.12509000000E+03 0.  0.
         25    1    4    4    0    0 -0.38197193889E+02  0.51649749115E+02  0.16454192452E+03  0.21644462393E+03  0.12509000000E+03 0.  0.
         25    1    3    3    0    0  0.42983803015E+00 -0.94771032602E+02  0.30870602485E+03  0.34630716316E+03  0.12509000000E+03 0.  0.
<mgrwt>
<rscale>  2 0.45042616E+03</rscale>
<asrwt>0</asrwt>
<pdfrwt beam="1">  1       21 0.98840801E-01 0.45042616E+03</pdfrwt>
<pdfrwt beam="2">  1       21 0.11097704E-01 0.45042616E+03</pdfrwt>
<totfact> 0.52247653E+04</totfact>
</mgrwt>
</event>
<event>
 7    0  0.4770865E-002  0.4495823E+03  0.7546771E-02  0.1027847E+00
         21   -1    0    0  502  501  0.00000000000E+00  0.00000000000E+00  0.31758295341E+04  0.31758295341E+04  0.00000000000E+00 0. -1.
         21   -1    0    0  501  502 -0.00000000000E+00 -0.00000000000E+00 -0.15911138720E+02  0.15911138720E+02  0.00000000000E+00 0. -1.
      99926    2    1    2    0    0  0.00000000000E+00 -0.14210854715E-13  0.31599183954E+04  0.31917406728E+04  0.44958231401E+03 0.  0.
      99925    2    3    3    0    0 -0.34796602990E+02  0.10102674921E+03  0.18834992095E+04  0.19047633406E+04  0.26293897318E+03 0.  0.
         25    1    4    4    0    0 -0.16646863211E+02  0.87507957600E+02  0.11690670751E+04  0.11791098740E+04  0.12509000000E+03 0.  0.
         25    1    4    4    0    0 -0.18149739779E+02  0.13518791609E+02  0.71443213441E+03  0.72565346658E+03  0.12509000000E+03 0.  0.
         25    1    3    3    0    0  0.34796602990E+02 -0.10102674921E+03  0.12764191858E+04  0.12869773323E+04  0.12509000000E+03 0.  0.
<mgrwt>
<rscale>  2 0.44958231E+03</rscale>
<asrwt>0</asrwt>
<pdfrwt beam="1">  1       21 0.46703332E+00 0.44958231E+03</pdfrwt>
<pdfrwt beam="2">  1       21 0.23398755E-02 0.44958231E+03</pdfrwt>
<totfact> 0.24143187E+03</totfact>
</mgrwt>
</event>
<event>
 7    0  0.4770865E-002  0.4483005E+03  0.7546771E-02  0.1028230E+00
         21   -1    0    0  502  501  0.00000000000E+00  0.00000000000E+00  0.52169001167E+03  0.52169001167E+03  0.00000000000E+00 0.  1.
         21   -1    0    0  501  502 -0.00000000000E+00 -0.00000000000E+00 -0.96308806787E+02  0.96308806787E+02  0.00000000000E+00 0.  1.
      99926    2    1    2    0    0  0.14210854715E-13  0.00000000000E+00  0.42538120489E+03  0.61799881846E+03  0.44830053552E+03 0.  0.
      99925    2    3    3    0    0 -0.90549640497E+02 -0.53271653247E+02  0.24411151360E+03  0.37398382812E+03  0.26312804143E+03 0.  0.
         25    1    3    3    0    0  0.90549640497E+02  0.53271653247E+02  0.18126969128E+03  0.24401499034E+03  0.12509000000E+03 0.  0.
         25    1    4    4    0    0 -0.54445003096E+01 -0.36691450840E+02  0.12534304680E+03  0.18092620769E+03  0.12509000000E+03 0.  0.
         25    1    4    4    0    0 -0.85105140187E+02 -0.16580202407E+02  0.11876846681E+03  0.19305762043E+03  0.12509000000E+03 0.  0.
<mgrwt>
<rscale>  2 0.44830054E+03</rscale>
<asrwt>0</asrwt>
<pdfrwt beam="1">  1       21 0.76719118E-01 0.44830054E+03</pdfrwt>
<pdfrwt beam="2">  1       21 0.14163060E-01 0.44830054E+03</pdfrwt>
<totfact> 0.60733666E+04</totfact>
</mgrwt>
</event>
<event>
 7    0  0.4770865E-002  0.4513393E+03  0.7546771E-02  0.1027323E+00
         21   -1    0    0  502  501  0.00000000000E+00  0.00000000000E+00  0.15833537148E+03  0.15833537148E+03  0.00000000000E+00 0. -1.
         21   -1    0    0  501  502 -0.00000000000E+00 -0.00000000000E+00 -0.32163870339E+03  0.32163870339E+03  0.00000000000E+00 0. -1.
      99926    2    1    2    0    0  0.00000000000E+00  0.00000000000E+00 -0.16330333191E+03  0.47997407486E+03  0.45133926743E+03 0.  0.
      99925    2    3    3    0    0 -0.35358200576E+02 -0.64587629703E+02 -0.18787455237E+03  0.33275649020E+03  0.26459075964E+03 0.  0.
         25    1    4    4    0    0 -0.53893606606E+02 -0.36461978017E+02 -0.69188959248E+02  0.15706246164E+03  0.12509000000E+03 0.  0.
         25    1    4    4    0    0  0.18535406030E+02 -0.28125651686E+02 -0.11868559312E+03  0.17569402857E+03  0.12509000000E+03 0.  0.
         25    1    3    3    0    0  0.35358200576E+02  0.64587629703E+02  0.24571220455E+02  0.14721758466E+03  0.12509000000E+03 0.  0.
<mgrwt>
<rscale>  2 0.45133927E+03</rscale>
<asrwt>0</asrwt>
<pdfrwt beam="1">  1       21 0.23284614E-01 0.45133927E+03</pdfrwt>
<pdfrwt beam="2">  1       21 0.47299808E-01 0.45133927E+03</pdfrwt>
<totfact> 0.68676019E+04</totfact>
</mgrwt>
</event>
<event>
 7    0  0.4770865E-002  0.4563414E+03  0.7546771E-02  0.1025848E+00
         21   -1    0    0  502  501  0.00000000000E+00  0.00000000000E+00  0.16460178075E+03  0.16460178075E+03  0.00000000000E+00 0. -1.
         21   -1    0    0  501  502 -0.00000000000E+00 -0.00000000000E+00 -0.31628982735E+03  0.31628982735E+03  0.00000000000E+00 0. -1.
      99926    2    1    2    0    0 -0.71054273576E-14 -0.14210854715E-13 -0.15168804660E+03  0.48089160811E+03  0.45634140210E+03 0.  0.
      99925    2    3    3    0    0  0.46449770678E+02  0.10394767463E+03 -0.92148243193E+02  0.30157290706E+03  0.26361376916E+03 0.  0.
         25    1    4    4    0    0  0.46146843608E+02  0.76344439924E+02 -0.21081276086E+02  0.15508040812E+03  0.12509000000E+03 0.  0.
         25    1    3    3    0    0 -0.46449770678E+02 -0.10394767463E+03 -0.59539803405E+02  0.17931870105E+03  0.12509000000E+03 0.  0.
         25    1    4    4    0    0  0.30292706990E+00  0.27603234701E+02 -0.71066967107E+02  0.14649249894E+03  0.12509000000E+03 0.  0.
<mgrwt>
<rscale>  2 0.45634140E+03</rscale>
<asrwt>0</asrwt>
<pdfrwt beam="1">  1       21 0.24206144E-01 0.45634140E+03</pdfrwt>
<pdfrwt beam="2">  1       21 0.46513209E-01 0.45634140E+03</pdfrwt>
<totfact> 0.65930467E+04</totfact>
</mgrwt>
</event>
<event>
 7    0  0.4770865E-002  0.4749212E+03  0.7546771E-02  0.1020540E+00
         21   -1    0    0  502  501  0.00000000000E+00  0.00000000000E+00  0.39207750769E+03  0.39207750769E+03  0.00000000000E+00 0.  1.
         21   -1    0    0  501  502 -0.00000000000E+00 -0.00000000000E+00 -0.14381733191E+03  0.14381733191E+03  0.00000000000E+00 0.  1.
      99926    2    1    2    0    0  0.00000000000E+00  0.00000000000E+00  0.24826017578E+03  0.53589483960E+03  0.47492121897E+03 0.  0.
      99925    2    3    3    0    0 -0.12523493791E+03  0.97324054148E+01  0.11231792782E+03  0.31249763221E+03  0.26317474012E+03 0.  0.
         25    1    4    4    0    0 -0.90806960765E+02 -0.18525627428E+02  0.83358287559E+02  0.17659336114E+03  0.12509000000E+03 0.  0.
         25    1    4    4    0    0 -0.34427977146E+02  0.28258032842E+02  0.28959640263E+02  0.13590427107E+03  0.12509000000E+03 0.  0.
         25    1    3    3    0    0  0.12523493791E+03 -0.97324054148E+01  0.13594224796E+03  0.22339720739E+03  0.12509000000E+03 0.  0.
<mgrwt>
<rscale>  2 0.47492122E+03</rscale>
<asrwt>0</asrwt>
<pdfrwt beam="1">  1       21 0.57658457E-01 0.47492122E+03</pdfrwt>
<pdfrwt beam="2">  1       21 0.21149608E-01 0.47492122E+03</pdfrwt>
<totfact> 0.53797928E+04</totfact>
</mgrwt>
</event>
<event>
 7    0  0.4770865E-002  0.4549410E+03  0.7546771E-02  0.1026259E+00
         21   -1    0    0  502  501  0.00000000000E+00  0.00000000000E+00  0.94948123444E+03  0.94948123444E+03  0.00000000000E+00 0.  1.
         21   -1    0    0  501  502 -0.00000000000E+00 -0.00000000000E+00 -0.54495883198E+02  0.54495883198E+02  0.00000000000E+00 0.  1.
      99926    2    1    2    0    0  0.00000000000E+00  0.35527136788E-14  0.89498535124E+03  0.10039771176E+04  0.45494095639E+03 0.  0.
      99925    2    3    3    0    0  0.99924727764E+02  0.20195637626E+02  0.45467707672E+03  0.53502967952E+03  0.26293097741E+03 0.  0.
         25    1    4    4    0    0  0.89032296122E+02  0.25532480205E+02  0.23300195180E+03  0.28020720001E+03  0.12509000000E+03 0.  0.
         25    1    3    3    0    0 -0.99924727764E+02 -0.20195637626E+02  0.44030827453E+03  0.46894743812E+03  0.12509000000E+03 0.  0.
         25    1    4    4    0    0  0.10892431641E+02 -0.53368425786E+01  0.22167512492E+03  0.25482247951E+03  0.12509000000E+03 0.  0.
<mgrwt>
<rscale>  2 0.45494096E+03</rscale>
<asrwt>0</asrwt>
<pdfrwt beam="1">  1       21 0.13962958E+00 0.45494096E+03</pdfrwt>
<pdfrwt beam="2">  1       21 0.80141011E-02 0.45494096E+03</pdfrwt>
<totfact> 0.39030454E+04</totfact>
</mgrwt>
</event>
<event>
 7    0  0.4770865E-002  0.4706902E+03  0.7546771E-02  0.1021726E+00
         21   -1    0    0  502  501  0.00000000000E+00  0.00000000000E+00  0.30613009750E+02  0.30613009750E+02  0.00000000000E+00 0.  1.
         21   -1    0    0  501  502 -0.00000000000E+00 -0.00000000000E+00 -0.18092739130E+04  0.18092739130E+04  0.00000000000E+00 0.  1.
      99926    2    1    2    0    0  0.00000000000E+00  0.00000000000E+00 -0.17786609032E+04  0.18398869227E+04  0.47069021633E+03 0.  0.
      99925    2    3    3    0    0 -0.81718055149E+02  0.90572448098E+02 -0.95969477569E+03  0.10024896245E+04  0.26285010156E+03 0.  0.
         25    1    3    3    0    0  0.81718055149E+02 -0.90572448098E+02 -0.81896612752E+03  0.83739729819E+03  0.12509000000E+03 0.  0.
         25    1    4    4    0    0 -0.21989880135E+02  0.68278478086E+01 -0.45535776241E+03  0.47278787445E+03  0.12509000000E+03 0.  0.
         25    1    4    4    0    0 -0.59728175014E+02  0.83744600289E+02 -0.50433701328E+03  0.52970175007E+03  0.12509000000E+03 0.  0.
<mgrwt>
<rscale>  2 0.47069022E+03</rscale>
<asrwt>0</asrwt>
<pdfrwt beam="1">  1       21 0.45019119E-02 0.47069022E+03</pdfrwt>
<pdfrwt beam="2">  1       21 0.26606977E+00 0.47069022E+03</pdfrwt>
<totfact> 0.14639224E+04</totfact>
</mgrwt>
</event>
<event>
 7    0  0.4770865E-002  0.4589202E+03  0.7546771E-02  0.1025095E+00
         21   -1    0    0  502  501  0.00000000000E+00  0.00000000000E+00  0.47049111332E+02  0.47049111332E+02  0.00000000000E+00 0.  1.
         21   -1    0    0  501  502 -0.00000000000E+00 -0.00000000000E+00 -0.11190847690E+04  0.11190847690E+04  0.00000000000E+00 0.  1.
      99926    2    1    2    0    0  0.14210854715E-13  0.00000000000E+00 -0.10720356577E+04  0.11661338804E+04  0.45892022788E+03 0.  0.
      99925    2    3    3    0    0  0.10963015327E+03  0.41029720875E+02 -0.67334513214E+03  0.73219396312E+03  0.26270158766E+03 0.  0.
         25    1    3    3    0    0 -0.10963015327E+03 -0.41029720875E+02 -0.39869052556E+03  0.43393991724E+03  0.12509000000E+03 0.  0.
         25    1    4    4    0    0  0.35960904491E+02 -0.97675462565E+01 -0.36465579518E+03  0.38731117808E+03  0.12509000000E+03 0.  0.
         25    1    4    4    0    0  0.73669248782E+02  0.50797267132E+02 -0.30868933696E+03  0.34488278504E+03  0.12509000000E+03 0.  0.
<mgrwt>
<rscale>  2 0.45892023E+03</rscale>
<asrwt>0</asrwt>
<pdfrwt beam="1">  1       21 0.69189868E-02 0.45892023E+03</pdfrwt>
<pdfrwt beam="2">  1       21 0.16457129E+00 0.45892023E+03</pdfrwt>
<totfact> 0.32251681E+04</totfact>
</mgrwt>
</event>
<event>
 7    0  0.4770865E-002  0.4554291E+03  0.7546771E-02  0.1026115E+00
         21   -1    0    0  502  501  0.00000000000E+00  0.00000000000E+00  0.25932414137E+03  0.25932414137E+03  0.00000000000E+00 0. -1.
         21   -1    0    0  501  502 -0.00000000000E+00 -0.00000000000E+00 -0.19995793447E+03  0.19995793447E+03  0.00000000000E+00 0. -1.
      99926    2    1    2    0    0  0.71054273576E-14  0.00000000000E+00  0.59366206906E+02  0.45928207584E+03  0.45542911487E+03 0.  0.
      99925    2    3    3    0    0  0.39215971701E+02  0.30579049243E+02  0.14035958969E+03  0.30218208589E+03  0.26294529454E+03 0.  0.
         25    1    3    3    0    0 -0.39215971701E+02 -0.30579049243E+02 -0.80993382788E+02  0.15709998996E+03  0.12509000000E+03 0.  0.
         25    1    4    4    0    0 -0.11249066330E+02  0.48893956062E+01  0.95070258422E+02  0.15759539911E+03  0.12509000000E+03 0.  0.
         25    1    4    4    0    0  0.50465038031E+02  0.25689653637E+02  0.45289331272E+02  0.14458668678E+03  0.12509000000E+03 0.  0.
<mgrwt>
<rscale>  2 0.45542911E+03</rscale>
<asrwt>0</asrwt>
<pdfrwt beam="1">  1       21 0.38135903E-01 0.45542911E+03</pdfrwt>
<pdfrwt beam="2">  1       21 0.29405579E-01 0.45542911E+03</pdfrwt>
<totfact> 0.67999905E+04</totfact>
</mgrwt>
</event>
<event>
 7    0  0.4770865E-002  0.4544251E+03  0.7546771E-02  0.1026411E+00
         21   -1    0    0  502  501  0.00000000000E+00  0.00000000000E+00  0.14295636313E+03  0.14295636313E+03  0.00000000000E+00 0.  1.
         21   -1    0    0  501  502 -0.00000000000E+00 -0.00000000000E+00 -0.36112790470E+03  0.36112790470E+03  0.00000000000E+00 0.  1.
      99926    2    1    2    0    0  0.00000000000E+00  0.00000000000E+00 -0.21817154158E+03  0.50408426783E+03  0.45442505160E+03 0.  0.
      99925    2    3    3    0    0  0.48858464321E+02  0.31038460974E+02 -0.30283830220E+02  0.27106101626E+03  0.26307114735E+03 0.  0.
         25    1    4    4    0    0  0.88154142605E+01  0.10949781901E+02 -0.52426138336E+02  0.13635841497E+03  0.12509000000E+03 0.  0.
         25    1    3    3    0    0 -0.48858464321E+02 -0.31038460974E+02 -0.18788771136E+03  0.23302325157E+03  0.12509000000E+03 0.  0.
         25    1    4    4    0    0  0.40043050061E+02  0.20088679072E+02  0.22142308116E+02  0.13470260129E+03  0.12509000000E+03 0.  0.
<mgrwt>
<rscale>  2 0.45442505E+03</rscale>
<asrwt>0</asrwt>
<pdfrwt beam="1">  1       21 0.21022995E-01 0.45442505E+03</pdfrwt>
<pdfrwt beam="2">  1       21 0.53107044E-01 0.45442505E+03</pdfrwt>
<totfact> 0.65282085E+04</totfact>
</mgrwt>
</event>
<event>
 7    0  0.4770865E-002  0.4525932E+03  0.7546771E-02  0.1026952E+00
         21   -1    0    0  502  501  0.00000000000E+00  0.00000000000E+00  0.22712377905E+04  0.22712377905E+04  0.00000000000E+00 0. -1.
         21   -1    0    0  501  502 -0.00000000000E+00 -0.00000000000E+00 -0.22547239496E+02  0.22547239496E+02  0.00000000000E+00 0. -1.
      99926    2    1    2    0    0  0.00000000000E+00  0.35527136788E-14  0.22486905510E+04  0.22937850299E+04  0.45259316130E+03 0.  0.
      99925    2    3    3    0    0  0.10233726599E+03  0.20578829379E+02  0.16082514670E+04  0.16329475820E+04  0.26296125243E+03 0.  0.
         25    1    4    4    0    0  0.85675482065E+01  0.47543497675E+01  0.75260616852E+03  0.76299381369E+03  0.12509000000E+03 0.  0.
         25    1    3    3    0    0 -0.10233726599E+03 -0.20578829379E+02  0.64043908395E+03  0.66083744792E+03  0.12509000000E+03 0.  0.
         25    1    4    4    0    0  0.93769717786E+02  0.15824479612E+02  0.85564529848E+03  0.86995376834E+03  0.12509000000E+03 0.  0.
<mgrwt>
<rscale>  2 0.45259316E+03</rscale>
<asrwt>0</asrwt>
<pdfrwt beam="1">  1       21 0.33400540E+00 0.45259316E+03</pdfrwt>
<pdfrwt beam="2">  1       21 0.33157721E-02 0.45259316E+03</pdfrwt>
<totfact> 0.96581972E+03</totfact>
</mgrwt>
</event>
<event>
 7    0  0.4770865E-002  0.4241098E+03  0.7546771E-02  0.1035737E+00
         21   -1    0    0  502  501  0.00000000000E+00  0.00000000000E+00  0.24734800461E+03  0.24734800461E+03  0.00000000000E+00 0.  1.
         21   -1    0    0  501  502 -0.00000000000E+00 -0.00000000000E+00 -0.18179763524E+03  0.18179763524E+03  0.00000000000E+00 0.  1.
      99926    2    1    2    0    0  0.00000000000E+00  0.00000000000E+00  0.65550369374E+02  0.42914563986E+03  0.42410980805E+03 0.  0.
      99925    2    3    3    0    0 -0.77784421022E+02 -0.19710017813E+02  0.59879798449E+02  0.28042252655E+03  0.26193950099E+03 0.  0.
         25    1    4    4    0    0 -0.23279277228E+02  0.25665708231E+02  0.35571979362E+02  0.13458650431E+03  0.12509000000E+03 0.  0.
         25    1    3    3    0    0  0.77784421022E+02  0.19710017813E+02  0.56705709248E+01  0.14872311330E+03  0.12509000000E+03 0.  0.
         25    1    4    4    0    0 -0.54505143794E+02 -0.45375726044E+02  0.24307819087E+02  0.14583602224E+03  0.12509000000E+03 0.  0.
<mgrwt>
<rscale>  2 0.42410981E+03</rscale>
<asrwt>0</asrwt>
<pdfrwt beam="1">  1       21 0.36374707E-01 0.42410981E+03</pdfrwt>
<pdfrwt beam="2">  1       21 0.26734946E-01 0.42410981E+03</pdfrwt>
<totfact> 0.90899790E+04</totfact>
</mgrwt>
</event>
<event>
 7    0  0.4770865E-002  0.4551991E+03  0.7546771E-02  0.1026183E+00
         21   -1    0    0  502  501  0.00000000000E+00  0.00000000000E+00  0.12086964128E+03  0.12086964128E+03  0.00000000000E+00 0. -1.
         21   -1    0    0  501  502 -0.00000000000E+00 -0.00000000000E+00 -0.42857370173E+03  0.42857370173E+03  0.00000000000E+00 0. -1.
      99926    2    1    2    0    0  0.00000000000E+00 -0.19984014443E-14 -0.30770406045E+03  0.54944334301E+03  0.45519907552E+03 0.  0.
      99925    2    3    3    0    0 -0.10658848766E+03 -0.12325233546E+01 -0.24030881347E+03  0.37181380652E+03  0.26293450909E+03 0.  0.
         25    1    4    4    0    0 -0.77261556329E+02 -0.17852067101E+02 -0.89703344200E+02  0.17315381153E+03  0.12509000000E+03 0.  0.
         25    1    3    3    0    0  0.10658848766E+03  0.12325233546E+01 -0.67395246980E+02  0.17762953648E+03  0.12509000000E+03 0.  0.
         25    1    4    4    0    0 -0.29326931333E+02  0.16619543746E+02 -0.15060546927E+03  0.19865999499E+03  0.12509000000E+03 0.  0.
<mgrwt>
<rscale>  2 0.45519908E+03</rscale>
<asrwt>0</asrwt>
<pdfrwt beam="1">  1       21 0.17774947E-01 0.45519908E+03</pdfrwt>
<pdfrwt beam="2">  1       21 0.63025545E-01 0.45519908E+03</pdfrwt>
<totfact> 0.61805904E+04</totfact>
</mgrwt>
</event>
<event>
 7    0  0.4770865E-002  0.4412600E+03  0.7546771E-02  0.1030361E+00
         21   -1    0    0  502  501  0.00000000000E+00  0.00000000000E+00  0.63847725181E+03  0.63847725181E+03  0.00000000000E+00 0. -1.
         21   -1    0    0  501  502 -0.00000000000E+00 -0.00000000000E+00 -0.76240138906E+02  0.76240138906E+02  0.00000000000E+00 0. -1.
      99926    2    1    2    0    0  0.00000000000E+00  0.00000000000E+00  0.56223711291E+03  0.71471739072E+03  0.44125998852E+03 0.  0.
      99925    2    3    3    0    0 -0.71306986966E+02 -0.41443843463E+02  0.44790655272E+03  0.52624653450E+03  0.26365290924E+03 0.  0.
         25    1    3    3    0    0  0.71306986966E+02  0.41443843463E+02  0.11433056019E+03  0.18847085622E+03  0.12509000000E+03 0.  0.
         25    1    4    4    0    0 -0.68414565282E+02  0.35258121724E+01  0.25010575599E+03  0.28791210703E+03  0.12509000000E+03 0.  0.
         25    1    4    4    0    0 -0.28924216840E+01 -0.44969655636E+02  0.19780079673E+03  0.23833442747E+03  0.12509000000E+03 0.  0.
<mgrwt>
<rscale>  2 0.44125999E+03</rscale>
<asrwt>0</asrwt>
<pdfrwt beam="1">  1       21 0.93893711E-01 0.44125999E+03</pdfrwt>
<pdfrwt beam="2">  1       21 0.11211785E-01 0.44125999E+03</pdfrwt>
<totfact> 0.58145682E+04</totfact>
</mgrwt>
</event>
<event>
 7    0  0.4770865E-002  0.4567995E+03  0.7546771E-02  0.1025714E+00
         21   -1    0    0  502  501  0.00000000000E+00  0.00000000000E+00  0.63360009033E+03  0.63360009033E+03  0.00000000000E+00 0.  1.
         21   -1    0    0  501  502 -0.00000000000E+00 -0.00000000000E+00 -0.82333399341E+02  0.82333399341E+02  0.00000000000E+00 0.  1.
      99926    2    1    2    0    0  0.00000000000E+00  0.00000000000E+00  0.55126669099E+03  0.71593348967E+03  0.45679951515E+03 0.  0.
      99925    2    3    3    0    0 -0.61563470170E+02 -0.17442218892E+02  0.49584675433E+03  0.56489319922E+03  0.26295632886E+03 0.  0.
         25    1    4    4    0    0 -0.53205643212E+02 -0.50805774869E+01  0.32751960315E+03  0.35464524709E+03  0.12509000000E+03 0.  0.
         25    1    3    3    0    0  0.61563470170E+02  0.17442218892E+02  0.55419936654E+02  0.15104029045E+03  0.12509000000E+03 0.  0.
         25    1    4    4    0    0 -0.83578269583E+01 -0.12361641405E+02  0.16832715118E+03  0.21024795213E+03  0.12509000000E+03 0.  0.
<mgrwt>
<rscale>  2 0.45679952E+03</rscale>
<asrwt>0</asrwt>
<pdfrwt beam="1">  1       21 0.93176481E-01 0.45679952E+03</pdfrwt>
<pdfrwt beam="2">  1       21 0.12107853E-01 0.45679952E+03</pdfrwt>
<totfact> 0.51316138E+04</totfact>
</mgrwt>
</event>
<event>
 7    0  0.4770865E-002  0.4471318E+03  0.7546771E-02  0.1028581E+00
         21   -1    0    0  502  501  0.00000000000E+00  0.00000000000E+00  0.15084374464E+03  0.15084374464E+03  0.00000000000E+00 0.  1.
         21   -1    0    0  501  502 -0.00000000000E+00 -0.00000000000E+00 -0.33134760658E+03  0.33134760658E+03  0.00000000000E+00 0.  1.
      99926    2    1    2    0    0  0.00000000000E+00  0.00000000000E+00 -0.18050386194E+03  0.48219135122E+03  0.44713180945E+03 0.  0.
      99925    2    3    3    0    0  0.32832669368E+02 -0.71422524039E+02 -0.38355771619E+02  0.27717245259E+03  0.26300996585E+03 0.  0.
         25    1    4    4    0    0  0.31617882738E+02 -0.50114565009E+02 -0.55489599173E+02  0.14912331760E+03  0.12509000000E+03 0.  0.
         25    1    3    3    0    0 -0.32832669368E+02  0.71422524039E+02 -0.14214809032E+03  0.20501889864E+03  0.12509000000E+03 0.  0.
         25    1    4    4    0    0  0.12147866299E+01 -0.21307959030E+02  0.17133827554E+02  0.12804913499E+03  0.12509000000E+03 0.  0.
<mgrwt>
<rscale>  2 0.44713181E+03</rscale>
<asrwt>0</asrwt>
<pdfrwt beam="1">  1       21 0.22182904E-01 0.44713181E+03</pdfrwt>
<pdfrwt beam="2">  1       21 0.48727589E-01 0.44713181E+03</pdfrwt>
<totfact> 0.70864900E+04</totfact>
</mgrwt>
</event>
<event>
 7    0  0.4770865E-002  0.4543812E+03  0.7546771E-02  0.1026424E+00
         21   -1    0    0  502  501  0.00000000000E+00  0.00000000000E+00  0.15607542786E+03  0.15607542786E+03  0.00000000000E+00 0.  1.
         21   -1    0    0  501  502 -0.00000000000E+00 -0.00000000000E+00 -0.33070918349E+03  0.33070918349E+03  0.00000000000E+00 0.  1.
      99926    2    1    2    0    0  0.14210854715E-13 -0.14210854715E-13 -0.17463375563E+03  0.48678461134E+03  0.45438123777E+03 0.  0.
      99925    2    3    3    0    0  0.85645185264E+02 -0.69947157730E+02 -0.13237819738E+03  0.31456166590E+03  0.26305389539E+03 0.  0.
         25    1    4    4    0    0  0.80225730568E+02 -0.47483902007E+02 -0.53706711827E+02  0.16499335681E+03  0.12509000000E+03 0.  0.
         25    1    3    3    0    0 -0.85645185264E+02  0.69947157730E+02 -0.42255558252E+02  0.17222294544E+03  0.12509000000E+03 0.  0.
         25    1    4    4    0    0  0.54194546960E+01 -0.22463255723E+02 -0.78671485553E+02  0.14956830910E+03  0.12509000000E+03 0.  0.
<mgrwt>
<rscale>  2 0.45438124E+03</rscale>
<asrwt>0</asrwt>
<pdfrwt beam="1">  1       21 0.22952269E-01 0.45438124E+03</pdfrwt>
<pdfrwt beam="2">  1       21 0.48633703E-01 0.45438124E+03</pdfrwt>
<totfact> 0.66535680E+04</totfact>
</mgrwt>
</event>
<event>
 7    0  0.4770865E-002  0.4610760E+03  0.7546771E-02  0.1024470E+00
         21   -1    0    0  502  501  0.00000000000E+00  0.00000000000E+00  0.27008971027E+02  0.27008971027E+02  0.00000000000E+00 0. -1.
         21   -1    0    0  501  502 -0.00000000000E+00 -0.00000000000E+00 -0.19677817599E+04  0.19677817599E+04  0.00000000000E+00 0. -1.
      99926    2    1    2    0    0  0.00000000000E+00  0.00000000000E+00 -0.19407727888E+04  0.19947907309E+04  0.46107596138E+03 0.  0.
      99925    2    3    3    0    0  0.87420962839E+02  0.80031235748E+02 -0.12473979363E+04  0.12803233645E+04  0.26301878774E+03 0.  0.
         25    1    4    4    0    0  0.30752549308E+02  0.78755971170E+02 -0.67538406397E+03  0.69205445180E+03  0.12509000000E+03 0.  0.
         25    1    4    4    0    0  0.56668413531E+02  0.12752645780E+01 -0.57201387231E+03  0.58826891267E+03  0.12509000000E+03 0.  0.
         25    1    3    3    0    0 -0.87420962839E+02 -0.80031235748E+02 -0.69337485254E+03  0.71446736642E+03  0.12509000000E+03 0.  0.
<mgrwt>
<rscale>  2 0.46107596E+03</rscale>
<asrwt>0</asrwt>
<pdfrwt beam="1">  1       21 0.39719070E-02 0.46107596E+03</pdfrwt>
<pdfrwt beam="2">  1       21 0.28937970E+00 0.46107596E+03</pdfrwt>
<totfact> 0.13163116E+04</totfact>
</mgrwt>
</event>
<event>
 7    0  0.4770865E-002  0.4532501E+03  0.7546771E-02  0.1026757E+00
         21   -1    0    0  502  501  0.00000000000E+00  0.00000000000E+00  0.10244791022E+03  0.10244791022E+03  0.00000000000E+00 0. -1.
         21   -1    0    0  501  502 -0.00000000000E+00 -0.00000000000E+00 -0.50131737855E+03  0.50131737855E+03  0.00000000000E+00 0. -1.
      99926    2    1    2    0    0  0.00000000000E+00  0.00000000000E+00 -0.39886946833E+03  0.60376528878E+03  0.45325011988E+03 0.  0.
      99925    2    3    3    0    0 -0.81884487941E+02  0.19770190583E+02 -0.15403308124E+03  0.31620956489E+03  0.26299499807E+03 0.  0.
         25    1    4    4    0    0 -0.20472961000E+02  0.21237051246E+02 -0.11247073143E+03  0.17078444896E+03  0.12509000000E+03 0.  0.
         25    1    3    3    0    0  0.81884487941E+02 -0.19770190583E+02 -0.24483638709E+03  0.28755572389E+03  0.12509000000E+03 0.  0.
         25    1    4    4    0    0 -0.61411526940E+02 -0.14668606630E+01 -0.41562349817E+02  0.14542511593E+03  0.12509000000E+03 0.  0.
<mgrwt>
<rscale>  2 0.45325012E+03</rscale>
<asrwt>0</asrwt>
<pdfrwt beam="1">  1       21 0.15065869E-01 0.45325012E+03</pdfrwt>
<pdfrwt beam="2">  1       21 0.73723144E-01 0.45325012E+03</pdfrwt>
<totfact> 0.59262138E+04</totfact>
</mgrwt>
</event>
<event>
 7    0  0.4770865E-002  0.4470506E+03  0.7546771E-02  0.1028605E+00
         21   -1    0    0  502  501  0.00000000000E+00  0.00000000000E+00  0.50061016017E+02  0.50061016017E+02  0.00000000000E+00 0. -1.
         21   -1    0    0  501  502 -0.00000000000E+00 -0.00000000000E+00 -0.99805325563E+03  0.99805325563E+03  0.00000000000E+00 0. -1.
      99926    2    1    2    0    0  0.00000000000E+00 -0.35527136788E-14 -0.94799223961E+03  0.10481142716E+04  0.44705060123E+03 0.  0.
      99925    2    3    3    0    0 -0.41115058721E+02 -0.25141699281E+02 -0.82100751213E+03  0.86346546388E+03  0.26305269289E+03 0.  0.
         25    1    3    3    0    0  0.41115058721E+02  0.25141699281E+02 -0.12698472748E+03  0.18464880776E+03  0.12509000000E+03 0.  0.
         25    1    4    4    0    0 -0.27173056853E+01  0.23166452161E+02 -0.42298696228E+03  0.44171206302E+03  0.12509000000E+03 0.  0.
         25    1    4    4    0    0 -0.38397753036E+02 -0.48308151442E+02 -0.39802054985E+03  0.42175340086E+03  0.12509000000E+03 0.  0.
<mgrwt>
<rscale>  2 0.44705060E+03</rscale>
<asrwt>0</asrwt>
<pdfrwt beam="1">  1       21 0.73619148E-02 0.44705060E+03</pdfrwt>
<pdfrwt beam="2">  1       21 0.14677252E+00 0.44705060E+03</pdfrwt>
<totfact> 0.39756785E+04</totfact>
</mgrwt>
</event>
<event>
 7    0  0.4770865E-002  0.4554693E+03  0.7546771E-02  0.1026103E+00
         21   -1    0    0  502  501  0.00000000000E+00  0.00000000000E+00  0.14244642862E+04  0.14244642862E+04  0.00000000000E+00 0.  1.
         21   -1    0    0  501  502 -0.00000000000E+00 -0.00000000000E+00 -0.36408823669E+02  0.36408823669E+02  0.00000000000E+00 0.  1.
      99926    2    1    2    0    0  0.00000000000E+00  0.00000000000E+00  0.13880554625E+04  0.14608731099E+04  0.45546929214E+03 0.  0.
      99925    2    3    3    0    0  0.48382553439E+02  0.36195334994E+02  0.11815438743E+04  0.12119845446E+04  0.26307724280E+03 0.  0.
         25    1    3    3    0    0 -0.48382553439E+02 -0.36195334994E+02  0.20651158823E+03  0.24888856528E+03  0.12509000000E+03 0.  0.
         25    1    4    4    0    0 -0.16109210947E+02  0.11966395876E+02  0.58972304633E+03  0.60317781854E+03  0.12509000000E+03 0.  0.
         25    1    4    4    0    0  0.64491764387E+02  0.24228939118E+02  0.59182082799E+03  0.60880672607E+03  0.12509000000E+03 0.  0.
<mgrwt>
<rscale>  2 0.45546929E+03</rscale>
<asrwt>0</asrwt>
<pdfrwt beam="1">  1       21 0.20948000E+00 0.45546929E+03</pdfrwt>
<pdfrwt beam="2">  1       21 0.53542397E-02 0.45546929E+03</pdfrwt>
<totfact> 0.24663862E+04</totfact>
</mgrwt>
</event>
<event>
 7    0  0.4770865E-002  0.4545686E+03  0.7546771E-02  0.1026368E+00
         21   -1    0    0  502  501  0.00000000000E+00  0.00000000000E+00  0.27606515376E+04  0.27606515376E+04  0.00000000000E+00 0.  1.
         21   -1    0    0  501  502 -0.00000000000E+00 -0.00000000000E+00 -0.18712303199E+02  0.18712303199E+02  0.00000000000E+00 0.  1.
      99926    2    1    2    0    0  0.00000000000E+00  0.00000000000E+00  0.27419392344E+04  0.27793638408E+04  0.45456858052E+03 0.  0.
      99925    2    3    3    0    0  0.10116710144E+03 -0.44765575089E+02  0.15916560327E+04  0.16170223714E+04  0.26297088099E+03 0.  0.
         25    1    4    4    0    0  0.27338296727E+02  0.11610415715E+02  0.78454862011E+03  0.79501335186E+03  0.12509000000E+03 0.  0.
         25    1    4    4    0    0  0.73828804715E+02 -0.56375990804E+02  0.80710741255E+03  0.82200901956E+03  0.12509000000E+03 0.  0.
         25    1    3    3    0    0 -0.10116710144E+03  0.44765575089E+02  0.11502832017E+04  0.11623414694E+04  0.12509000000E+03 0.  0.
<mgrwt>
<rscale>  2 0.45456858E+03</rscale>
<asrwt>0</asrwt>
<pdfrwt beam="1">  1       21 0.40597789E+00 0.45456858E+03</pdfrwt>
<pdfrwt beam="2">  1       21 0.27518112E-02 0.45456858E+03</pdfrwt>
<totfact> 0.46908845E+03</totfact>
</mgrwt>
</event>
<event>
 7    0  0.4770865E-002  0.4498887E+03  0.7546771E-02  0.1027755E+00
         21   -1    0    0  502  501  0.00000000000E+00  0.00000000000E+00  0.51381717148E+03  0.51381717148E+03  0.00000000000E+00 0.  1.
         21   -1    0    0  501  502 -0.00000000000E+00 -0.00000000000E+00 -0.98478531566E+02  0.98478531566E+02  0.00000000000E+00 0.  1.
      99926    2    1    2    0    0  0.35527136788E-14  0.00000000000E+00  0.41533863991E+03  0.61229570304E+03  0.44988869975E+03 0.  0.
      99925    2    3    3    0    0 -0.20044217900E+02  0.32756448914E+02  0.40040941001E+03  0.48059473258E+03  0.26299970672E+03 0.  0.
         25    1    4    4    0    0 -0.43009002107E+02  0.21206676975E+02  0.16272330509E+03  0.21077447552E+03  0.12509000000E+03 0.  0.
         25    1    3    3    0    0  0.20044217900E+02 -0.32756448914E+02  0.14929229899E+02  0.13170097047E+03  0.12509000000E+03 0.  0.
         25    1    4    4    0    0  0.22964784207E+02  0.11549771939E+02  0.23768610492E+03  0.26982025706E+03  0.12509000000E+03 0.  0.
<mgrwt>
<rscale>  2 0.44988870E+03</rscale>
<asrwt>0</asrwt>
<pdfrwt beam="1">  1       21 0.75561348E-01 0.44988870E+03</pdfrwt>
<pdfrwt beam="2">  1       21 0.14482137E-01 0.44988870E+03</pdfrwt>
<totfact> 0.60326480E+04</totfact>
</mgrwt>
</event>
<event>
 7    0  0.4770865E-002  0.4484511E+03  0.7546771E-02  0.1028185E+00
         21   -1    0    0  502  501  0.00000000000E+00  0.00000000000E+00  0.15166761446E+03  0.15166761446E+03  0.00000000000E+00 0.  1.
         21   -1    0    0  501  502 -0.00000000000E+00 -0.00000000000E+00 -0.33149522284E+03  0.33149522284E+03  0.00000000000E+00 0.  1.
      99926    2    1    2    0    0  0.00000000000E+00 -0.35527136788E-14 -0.17982760838E+03  0.48316283730E+03  0.44845106602E+03 0.  0.
      99925    2    3    3    0    0  0.77630012185E+02  0.98025524242E+01 -0.35558362805E+02  0.27680481796E+03  0.26312354751E+03 0.  0.
         25    1    4    4    0    0  0.33606659683E+02 -0.23978667823E+02 -0.46083644138E+02  0.13955498717E+03  0.12509000000E+03 0.  0.
         25    1    3    3    0    0 -0.77630012185E+02 -0.98025524242E+01 -0.14426924558E+03  0.20635801934E+03  0.12509000000E+03 0.  0.
         25    1    4    4    0    0  0.44023352502E+02  0.33781220248E+02  0.10525281334E+02  0.13724983080E+03  0.12509000000E+03 0.  0.
<mgrwt>
<rscale>  2 0.44845107E+03</rscale>
<asrwt>0</asrwt>
<pdfrwt beam="1">  1       21 0.22304061E-01 0.44845107E+03</pdfrwt>
<pdfrwt beam="2">  1       21 0.48749297E-01 0.44845107E+03</pdfrwt>
<totfact> 0.70041759E+04</totfact>
</mgrwt>
</event>
<event>
 7    0  0.4770865E-002  0.4562698E+03  0.7546771E-02  0.1025869E+00
         21   -1    0    0  502  501  0.00000000000E+00  0.00000000000E+00  0.10882965759E+03  0.10882965759E+03  0.00000000000E+00 0. -1.
         21   -1    0    0  501  502 -0.00000000000E+00 -0.00000000000E+00 -0.47822933707E+03  0.47822933707E+03  0.00000000000E+00 0. -1.
      99926    2    1    2    0    0  0.14210854715E-13  0.71054273576E-14 -0.36939967948E+03  0.58705899466E+03  0.45626981054E+03 0.  0.
      99925    2    3    3    0    0  0.93194840031E+02 -0.60286577081E+02 -0.26769859092E+03  0.39132864673E+03  0.26297495050E+03 0.  0.
         25    1    4    4    0    0  0.50932456917E+02  0.75879787474E+01 -0.10637747458E+03  0.17209116127E+03  0.12509000000E+03 0.  0.
         25    1    3    3    0    0 -0.93194840031E+02  0.60286577081E+02 -0.10170108856E+03  0.19573034793E+03  0.12509000000E+03 0.  0.
         25    1    4    4    0    0  0.42262383114E+02 -0.67874555828E+02 -0.16132111634E+03  0.21923748546E+03  0.12509000000E+03 0.  0.
<mgrwt>
<rscale>  2 0.45626981E+03</rscale>
<asrwt>0</asrwt>
<pdfrwt beam="1">  1       21 0.16004361E-01 0.45626981E+03</pdfrwt>
<pdfrwt beam="2">  1       21 0.70327845E-01 0.45626981E+03</pdfrwt>
<totfact> 0.58888686E+04</totfact>
</mgrwt>
</event>
<event>
 7    0  0.4770865E-002  0.4488836E+03  0.7546771E-02  0.1028055E+00
         21   -1    0    0  502  501  0.00000000000E+00  0.00000000000E+00  0.23389777208E+03  0.23389777208E+03  0.00000000000E+00 0.  1.
         21   -1    0    0  501  502 -0.00000000000E+00 -0.00000000000E+00 -0.21536809209E+03  0.21536809209E+03  0.00000000000E+00 0.  1.
      99926    2    1    2    0    0  0.00000000000E+00  0.00000000000E+00  0.18529679982E+02  0.44926586417E+03  0.44888357919E+03 0.  0.
      99925    2    3    3    0    0  0.86720074395E+02 -0.52164345710E+02  0.47478994784E+02  0.28578173285E+03  0.26301226895E+03 0.  0.
         25    1    3    3    0    0 -0.86720074395E+02  0.52164345710E+02 -0.28949314803E+02  0.16348413132E+03  0.12509000000E+03 0.  0.
         25    1    4    4    0    0  0.58607848778E+02  0.30847329129E+01  0.47696338946E+02  0.14617402083E+03  0.12509000000E+03 0.  0.
         25    1    4    4    0    0  0.28112225616E+02 -0.55249078623E+02 -0.21734416149E+00  0.13960771202E+03  0.12509000000E+03 0.  0.
<mgrwt>
<rscale>  2 0.44888358E+03</rscale>
<asrwt>0</asrwt>
<pdfrwt beam="1">  1       21 0.34396732E-01 0.44888358E+03</pdfrwt>
<pdfrwt beam="2">  1       21 0.31671778E-01 0.44888358E+03</pdfrwt>
<totfact> 0.72439117E+04</totfact>
</mgrwt>
</event>
<event>
 7    0  0.4770865E-002  0.4286091E+03  0.7546771E-02  0.1034300E+00
         21   -1    0    0  502  501  0.00000000000E+00  0.00000000000E+00  0.19285440862E+02  0.19285440862E+02  0.00000000000E+00 0.  1.
         21   -1    0    0  501  502 -0.00000000000E+00 -0.00000000000E+00 -0.23814051411E+04  0.23814051411E+04  0.00000000000E+00 0.  1.
      99926    2    1    2    0    0  0.00000000000E+00 -0.71054273576E-14 -0.23621197003E+04  0.24006905820E+04  0.42860913671E+03 0.  0.
      99925    2    3    3    0    0  0.68194413782E+01  0.41500601169E+02 -0.11025313636E+04  0.11342076210E+04  0.26283590886E+03 0.  0.
         25    1    4    4    0    0  0.13780243121E+02 -0.48801476115E+01 -0.40994177371E+03  0.42885134589E+03  0.12509000000E+03 0.  0.
         25    1    3    3    0    0 -0.68194413782E+01 -0.41500601169E+02 -0.12595883366E+04  0.12664829610E+04  0.12509000000E+03 0.  0.
         25    1    4    4    0    0 -0.69608017426E+01  0.46380748780E+02 -0.69258958993E+03  0.70535627508E+03  0.12509000000E+03 0.  0.
<mgrwt>
<rscale>  2 0.42860914E+03</rscale>
<asrwt>0</asrwt>
<pdfrwt beam="1">  1       21 0.28360948E-02 0.42860914E+03</pdfrwt>
<pdfrwt beam="2">  1       21 0.35020657E+00 0.42860914E+03</pdfrwt>
<totfact> 0.10124757E+04</totfact>
</mgrwt>
</event>
<event>
 7    0  0.4770865E-002  0.4590807E+03  0.7546771E-02  0.1025048E+00
         21   -1    0    0  502  501  0.00000000000E+00  0.00000000000E+00  0.11311190512E+04  0.11311190512E+04  0.00000000000E+00 0. -1.
         21   -1    0    0  501  502 -0.00000000000E+00 -0.00000000000E+00 -0.46581108849E+02  0.46581108849E+02  0.00000000000E+00 0. -1.
      99926    2    1    2    0    0  0.00000000000E+00 -0.35527136788E-14  0.10845379423E+04  0.11777001600E+04  0.45908073209E+03 0.  0.
      99925    2    3    3    0    0 -0.60191415056E+02  0.30171748630E+02  0.92548126805E+03  0.96444004985E+03  0.26286059304E+03 0.  0.
         25    1    4    4    0    0 -0.26645555410E+02  0.33704001321E+02  0.34054832015E+03  0.36533082512E+03  0.12509000000E+03 0.  0.
         25    1    3    3    0    0  0.60191415056E+02 -0.30171748630E+02  0.15905667428E+03  0.21326011018E+03  0.12509000000E+03 0.  0.
         25    1    4    4    0    0 -0.33545859645E+02 -0.35322526907E+01  0.58493294791E+03  0.59910922473E+03  0.12509000000E+03 0.  0.
<mgrwt>
<rscale>  2 0.45908073E+03</rscale>
<asrwt>0</asrwt>
<pdfrwt beam="1">  1       21 0.16634102E+00 0.45908073E+03</pdfrwt>
<pdfrwt beam="2">  1       21 0.68501638E-02 0.45908073E+03</pdfrwt>
<totfact> 0.31846181E+04</totfact>
</mgrwt>
</event>
<event>
 7    0  0.6068989E-002  0.4259998E+03  0.7546771E-02  0.1035131E+00
         21   -1    0    0  502  501  0.00000000000E+00  0.00000000000E+00  0.17915722670E+03  0.17915722670E+03  0.00000000000E+00 0. -1.
         21   -1    0    0  501  502 -0.00000000000E+00 -0.00000000000E+00 -0.25323545607E+03  0.25323545607E+03  0.00000000000E+00 0. -1.
      99926    2    1    2    0    0  0.00000000000E+00  0.33306690739E-15 -0.74078229367E+02  0.43239268276E+03  0.42599982165E+03 0.  0.
      99925    2    3    3    0    0 -0.49950137351E+02 -0.60422332356E+00 -0.11545793684E+03  0.29148430971E+03  0.26293951076E+03 0.  0.
         25    1    4    4    0    0  0.14124205328E+01 -0.98562269852E+01 -0.23430644839E+02  0.12765439029E+03  0.12509000000E+03 0.  0.
         25    1    4    4    0    0 -0.51362557884E+02  0.92520036616E+01 -0.92027292000E+02  0.16382991942E+03  0.12509000000E+03 0.  0.
         25    1    3    3    0    0  0.49950137351E+02  0.60422332356E+00  0.41379707472E+02  0.14090837306E+03  0.12509000000E+03 0.  0.
<mgrwt>
<rscale>  2 0.42599982E+03</rscale>
<asrwt>0</asrwt>
<pdfrwt beam="1">  1       21 0.26346651E-01 0.42599982E+03</pdfrwt>
<pdfrwt beam="2">  1       21 0.37240508E-01 0.42599982E+03</pdfrwt>
<totfact> 0.89134557E+04</totfact>
</mgrwt>
</event>
<event>
 7    0  0.4770865E-002  0.4548205E+03  0.7546771E-02  0.1026294E+00
         21   -1    0    0  502  501  0.00000000000E+00  0.00000000000E+00  0.38172631092E+02  0.38172631092E+02  0.00000000000E+00 0.  1.
         21   -1    0    0  501  502 -0.00000000000E+00 -0.00000000000E+00 -0.13547774903E+04  0.13547774903E+04  0.00000000000E+00 0.  1.
      99926    2    1    2    0    0 -0.71054273576E-14  0.35527136788E-14 -0.13166048592E+04  0.13929501214E+04  0.45482049799E+03 0.  0.
      99925    2    3    3    0    0 -0.31699612100E+02 -0.31017117219E+02 -0.11469552666E+04  0.11775541619E+04  0.26298382804E+03 0.  0.
         25    1    3    3    0    0  0.31699612100E+02  0.31017117219E+02 -0.16964959264E+03  0.21539595946E+03  0.12509000000E+03 0.  0.
         25    1    4    4    0    0 -0.36731548672E+02 -0.35493139320E+02 -0.72137322406E+03  0.73391811948E+03  0.12509000000E+03 0.  0.
         25    1    4    4    0    0  0.50319365716E+01  0.44760221013E+01 -0.42558204249E+03  0.44363604244E+03  0.12509000000E+03 0.  0.
<mgrwt>
<rscale>  2 0.45482050E+03</rscale>
<asrwt>0</asrwt>
<pdfrwt beam="1">  1       21 0.56136221E-02 0.45482050E+03</pdfrwt>
<pdfrwt beam="2">  1       21 0.19923199E+00 0.45482050E+03</pdfrwt>
<totfact> 0.26557499E+04</totfact>
</mgrwt>
</event>
<event>
 7    0  0.4770865E-002  0.4169276E+03  0.7546771E-02  0.1038071E+00
         21   -1    0    0  502  501  0.00000000000E+00  0.00000000000E+00  0.23190744760E+03  0.23190744760E+03  0.00000000000E+00 0. -1.
         21   -1    0    0  501  502 -0.00000000000E+00 -0.00000000000E+00 -0.18739009846E+03  0.18739009846E+03  0.00000000000E+00 0. -1.
      99926    2    1    2    0    0  0.00000000000E+00  0.00000000000E+00  0.44517349137E+02  0.41929754605E+03  0.41692761692E+03 0.  0.
      99925    2    3    3    0    0  0.28595548647E+02  0.52851785702E+02  0.68688837588E+02  0.27843312326E+03  0.26305100469E+03 0.  0.
         25    1    3    3    0    0 -0.28595548647E+02 -0.52851785702E+02 -0.24171488451E+02  0.14086442279E+03  0.12509000000E+03 0.  0.
         25    1    4    4    0    0 -0.15366448389E+02  0.27310675822E+02  0.47778312397E+01  0.12904393252E+03  0.12509000000E+03 0.  0.
         25    1    4    4    0    0  0.43961997036E+02  0.25541109879E+02  0.63911006348E+02  0.14938919074E+03  0.12509000000E+03 0.  0.
<mgrwt>
<rscale>  2 0.41692762E+03</rscale>
<asrwt>0</asrwt>
<pdfrwt beam="1">  1       21 0.34104037E-01 0.41692762E+03</pdfrwt>
<pdfrwt beam="2">  1       21 0.27557367E-01 0.41692762E+03</pdfrwt>
<totfact> 0.97722979E+04</totfact>
</mgrwt>
</event>
<event>
 7    0  0.4770865E-002  0.4550689E+03  0.7546771E-02  0.1026221E+00
         21   -1    0    0  502  501  0.00000000000E+00  0.00000000000E+00  0.22800723573E+03  0.22800723573E+03  0.00000000000E+00 0.  1.
         21   -1    0    0  501  502 -0.00000000000E+00 -0.00000000000E+00 -0.22706260225E+03  0.22706260225E+03  0.00000000000E+00 0.  1.
      99926    2    1    2    0    0  0.00000000000E+00  0.71054273576E-14  0.94463347801E+00  0.45506983797E+03  0.45506885754E+03 0.  0.
      99925    2    3    3    0    0 -0.59706005008E+02  0.45216974560E+02  0.85479885341E+02  0.28653764897E+03  0.26303541902E+03 0.  0.
         25    1    4    4    0    0 -0.53672365805E+02  0.38720827940E+02  0.76353162359E+02  0.16080217309E+03  0.12509000000E+03 0.  0.
         25    1    3    3    0    0  0.59706005008E+02 -0.45216974560E+02 -0.84535251863E+02  0.16853218900E+03  0.12509000000E+03 0.  0.
         25    1    4    4    0    0 -0.60336392030E+01  0.64961466203E+01  0.91267229825E+01  0.12573547588E+03  0.12509000000E+03 0.  0.
<mgrwt>
<rscale>  2 0.45506886E+03</rscale>
<asrwt>0</asrwt>
<pdfrwt beam="1">  1       21 0.33530476E-01 0.45506886E+03</pdfrwt>
<pdfrwt beam="2">  1       21 0.33391559E-01 0.45506886E+03</pdfrwt>
<totfact> 0.68503029E+04</totfact>
</mgrwt>
</event>
<event>
 7    0  0.4770865E-002  0.4541069E+03  0.7546771E-02  0.1026504E+00
         21   -1    0    0  502  501  0.00000000000E+00  0.00000000000E+00  0.44168848472E+03  0.44168848472E+03  0.00000000000E+00 0. -1.
         21   -1    0    0  501  502 -0.00000000000E+00 -0.00000000000E+00 -0.11671860215E+03  0.11671860215E+03  0.00000000000E+00 0. -1.
      99926    2    1    2    0    0  0.00000000000E+00  0.14210854715E-13  0.32496988257E+03  0.55840708687E+03  0.45410687078E+03 0.  0.
      99925    2    3    3    0    0 -0.53939754734E+02  0.72612017523E+02  0.12272319754E+03  0.30397982430E+03  0.26298431159E+03 0.  0.
         25    1    3    3    0    0  0.53939754734E+02 -0.72612017523E+02  0.20224668504E+03  0.25442726257E+03  0.12509000000E+03 0.  0.
         25    1    4    4    0    0 -0.53682846452E+02  0.59163159862E+01  0.56183665710E+02  0.14738033516E+03  0.12509000000E+03 0.  0.
         25    1    4    4    0    0 -0.25690828199E+00  0.66695701537E+02  0.66539531827E+02  0.15659948915E+03  0.12509000000E+03 0.  0.
<mgrwt>
<rscale>  2 0.45410687E+03</rscale>
<asrwt>0</asrwt>
<pdfrwt beam="1">  1       21 0.64954188E-01 0.45410687E+03</pdfrwt>
<pdfrwt beam="2">  1       21 0.17164501E-01 0.45410687E+03</pdfrwt>
<totfact> 0.61749454E+04</totfact>
</mgrwt>
</event>
<event>
 7    0  0.4770865E-002  0.4513148E+03  0.7546771E-02  0.1027331E+00
         21   -1    0    0  502  501  0.00000000000E+00  0.00000000000E+00  0.11734243756E+04  0.11734243756E+04  0.00000000000E+00 0. -1.
         21   -1    0    0  501  502 -0.00000000000E+00 -0.00000000000E+00 -0.43395434308E+02  0.43395434308E+02  0.00000000000E+00 0. -1.
      99926    2    1    2    0    0  0.00000000000E+00  0.00000000000E+00  0.11300289413E+04  0.12168198099E+04  0.45131479217E+03 0.  0.
      99925    2    3    3    0    0 -0.50211337692E+02  0.83288511938E+02  0.85020082907E+03  0.89524643548E+03  0.26299539128E+03 0.  0.
         25    1    4    4    0    0 -0.47245471074E+02  0.68185880119E+02  0.38348152518E+03  0.41180946691E+03  0.12509000000E+03 0.  0.
         25    1    4    4    0    0 -0.29658666179E+01  0.15102631819E+02  0.46671930390E+03  0.48343696857E+03  0.12509000000E+03 0.  0.
         25    1    3    3    0    0  0.50211337692E+02 -0.83288511938E+02  0.27982811223E+03  0.32157337444E+03  0.12509000000E+03 0.  0.
<mgrwt>
<rscale>  2 0.45131479E+03</rscale>
<asrwt>0</asrwt>
<pdfrwt beam="1">  1       21 0.17256239E+00 0.45131479E+03</pdfrwt>
<pdfrwt beam="2">  1       21 0.63816823E-02 0.45131479E+03</pdfrwt>
<totfact> 0.32551684E+04</totfact>
</mgrwt>
</event>
<event>
 7    0  0.4770865E-002  0.4570820E+03  0.7546771E-02  0.1025631E+00
         21   -1    0    0  502  501  0.00000000000E+00  0.00000000000E+00  0.13732162082E+04  0.13732162082E+04  0.00000000000E+00 0.  1.
         21   -1    0    0  501  502 -0.00000000000E+00 -0.00000000000E+00 -0.38035517059E+02  0.38035517059E+02  0.00000000000E+00 0.  1.
      99926    2    1    2    0    0  0.00000000000E+00  0.71054273576E-14  0.13351806911E+04  0.14112517252E+04  0.45708199926E+03 0.  0.
      99925    2    3    3    0    0 -0.10390634716E+03 -0.47138388599E+02  0.88539813625E+03  0.93065791397E+03  0.26301280673E+03 0.  0.
         25    1    3    3    0    0  0.10390634716E+03  0.47138388599E+02  0.44978255486E+03  0.48059381125E+03  0.12509000000E+03 0.  0.
         25    1    4    4    0    0 -0.54030929065E+02 -0.59185471633E+02  0.52941949375E+03  0.54986795671E+03  0.12509000000E+03 0.  0.
         25    1    4    4    0    0 -0.49875418099E+02  0.12047083034E+02  0.35597864249E+03  0.38078995726E+03  0.12509000000E+03 0.  0.
<mgrwt>
<rscale>  2 0.45708200E+03</rscale>
<asrwt>0</asrwt>
<pdfrwt beam="1">  1       21 0.20194353E+00 0.45708200E+03</pdfrwt>
<pdfrwt beam="2">  1       21 0.55934593E-02 0.45708200E+03</pdfrwt>
<totfact> 0.25616750E+04</totfact>
</mgrwt>
</event>
<event>
 7    0  0.4770865E-002  0.4533572E+03  0.7546771E-02  0.1026726E+00
         21   -1    0    0  502  501  0.00000000000E+00  0.00000000000E+00  0.92080164266E+02  0.92080164266E+02  0.00000000000E+00 0. -1.
         21   -1    0    0  501  502 -0.00000000000E+00 -0.00000000000E+00 -0.55802671572E+03  0.55802671572E+03  0.00000000000E+00 0. -1.
      99926    2    1    2    0    0  0.00000000000E+00  0.71054273576E-14 -0.46594655146E+03  0.65010687999E+03  0.45335721743E+03 0.  0.
      99925    2    3    3    0    0  0.52863111400E+02  0.59975798429E+02 -0.18200951070E+03  0.32970189227E+03  0.26302903040E+03 0.  0.
         25    1    4    4    0    0  0.44228201690E+02  0.45843273583E+02 -0.13583651376E+03  0.19533767206E+03  0.12509000000E+03 0.  0.
         25    1    3    3    0    0 -0.52863111400E+02 -0.59975798429E+02 -0.28393704075E+03  0.32040498772E+03  0.12509000000E+03 0.  0.
         25    1    4    4    0    0  0.86349097091E+01  0.14132524846E+02 -0.46172996944E+02  0.13436422020E+03  0.12509000000E+03 0.  0.
<mgrwt>
<rscale>  2 0.45335722E+03</rscale>
<asrwt>0</asrwt>
<pdfrwt beam="1">  1       21 0.13541200E-01 0.45335722E+03</pdfrwt>
<pdfrwt beam="2">  1       21 0.82062756E-01 0.45335722E+03</pdfrwt>
<totfact> 0.56423005E+04</totfact>
</mgrwt>
</event>
<event>
 7    0  0.4770865E-002  0.4580840E+03  0.7546771E-02  0.1025338E+00
         21   -1    0    0  502  501  0.00000000000E+00  0.00000000000E+00  0.49122236400E+03  0.49122236400E+03  0.00000000000E+00 0.  1.
         21   -1    0    0  501  502 -0.00000000000E+00 -0.00000000000E+00 -0.10679530451E+03  0.10679530451E+03  0.00000000000E+00 0.  1.
      99926    2    1    2    0    0  0.00000000000E+00 -0.14210854715E-13  0.38442705950E+03  0.59801766851E+03  0.45808401825E+03 0.  0.
      99925    2    3    3    0    0 -0.67784566706E+02  0.81653468909E+02  0.30153216493E+03  0.41422129174E+03  0.26343043783E+03 0.  0.
         25    1    3    3    0    0  0.67784566706E+02 -0.81653468909E+02  0.82894894564E+02  0.18379637677E+03  0.12509000000E+03 0.  0.
         25    1    4    4    0    0 -0.56602656931E+02  0.76771200055E+02  0.18486354587E+03  0.24273383905E+03  0.12509000000E+03 0.  0.
         25    1    4    4    0    0 -0.11181909775E+02  0.48822688534E+01  0.11666861906E+03  0.17148745269E+03  0.12509000000E+03 0.  0.
<mgrwt>
<rscale>  2 0.45808402E+03</rscale>
<asrwt>0</asrwt>
<pdfrwt beam="1">  1       21 0.72238582E-01 0.45808402E+03</pdfrwt>
<pdfrwt beam="2">  1       21 0.15705192E-01 0.45808402E+03</pdfrwt>
<totfact> 0.57389076E+04</totfact>
</mgrwt>
</event>
<event>
 7    0  0.4770865E-002  0.4568347E+03  0.7546771E-02  0.1025703E+00
         21   -1    0    0  502  501  0.00000000000E+00  0.00000000000E+00  0.17253363908E+03  0.17253363908E+03  0.00000000000E+00 0. -1.
         21   -1    0    0  501  502 -0.00000000000E+00 -0.00000000000E+00 -0.30240187573E+03  0.30240187573E+03  0.00000000000E+00 0. -1.
      99926    2    1    2    0    0  0.00000000000E+00  0.57731597281E-14 -0.12986823665E+03  0.47493551482E+03  0.45683474511E+03 0.  0.
      99925    2    3    3    0    0 -0.10733336696E+03  0.25109670540E+01 -0.12411028255E+03  0.30998879993E+03  0.26298847356E+03 0.  0.
         25    1    4    4    0    0 -0.74665479733E+02  0.36833924750E+02 -0.67973569152E+02  0.16492297014E+03  0.12509000000E+03 0.  0.
         25    1    3    3    0    0  0.10733336696E+03 -0.25109670540E+01 -0.57579540998E+01  0.16494671489E+03  0.12509000000E+03 0.  0.
         25    1    4    4    0    0 -0.32667887223E+02 -0.34322957696E+02 -0.56136713398E+02  0.14506582979E+03  0.12509000000E+03 0.  0.
<mgrwt>
<rscale>  2 0.45683475E+03</rscale>
<asrwt>0</asrwt>
<pdfrwt beam="1">  1       21 0.25372594E-01 0.45683475E+03</pdfrwt>
<pdfrwt beam="2">  1       21 0.44470863E-01 0.45683475E+03</pdfrwt>
<totfact> 0.66102998E+04</totfact>
</mgrwt>
</event>
<event>
 6    0  0.4770865E-002  0.4550460E+03  0.7546771E-02  0.1026228E+00
         21   -1    0    0  502  501  0.00000000000E+00  0.00000000000E+00  0.21894171515E+03  0.21894171515E+03  0.00000000000E+00 0.  1.
         21   -1    0    0  501  502 -0.00000000000E+00 -0.00000000000E+00 -0.23644057477E+03  0.23644057477E+03  0.00000000000E+00 0.  1.
      99926    2    1    2    0    0  0.00000000000E+00  0.14210854715E-13 -0.17498859624E+02  0.45538228992E+03  0.45504595360E+03 0.  0.
         25    1    3    3    0    0 -0.76810083670E+02 -0.29783598238E+02 -0.51939402719E+02  0.15853094755E+03  0.12509000000E+03 0.  0.
         25    1    3    3    0    0  0.59434241948E+02  0.71441134315E+02  0.48302043185E+02  0.16314674457E+03  0.12509000000E+03 0.  0.
         25    1    3    3    0    0  0.17375841722E+02 -0.41657536077E+02 -0.13861500090E+02  0.13370459780E+03  0.12509000000E+03 0.  0.
<mgrwt>
<rscale>  2 0.45504595E+03</rscale>
<asrwt>0</asrwt>
<pdfrwt beam="1">  1       21 0.32197311E-01 0.45504595E+03</pdfrwt>
<pdfrwt beam="2">  1       21 0.34770673E-01 0.45504595E+03</pdfrwt>
<totfact> 0.68492696E+04</totfact>
</mgrwt>
</event>
<event>
 7    0  0.4770865E-002  0.4503569E+03  0.7546771E-02  0.1027616E+00
         21   -1    0    0  502  501  0.00000000000E+00  0.00000000000E+00  0.26816411342E+03  0.26816411342E+03  0.00000000000E+00 0. -1.
         21   -1    0    0  501  502 -0.00000000000E+00 -0.00000000000E+00 -0.18908319882E+03  0.18908319882E+03  0.00000000000E+00 0. -1.
      99926    2    1    2    0    0  0.71054273576E-14  0.00000000000E+00  0.79080914595E+02  0.45724731224E+03  0.45035687349E+03 0.  0.
      99925    2    3    3    0    0  0.52051651303E+02  0.91963855624E+02  0.76037404230E+02  0.29346850958E+03  0.26301207982E+03 0.  0.
         25    1    3    3    0    0 -0.52051651303E+02 -0.91963855624E+02  0.30435103648E+01  0.16377880266E+03  0.12509000000E+03 0.  0.
         25    1    4    4    0    0 -0.12248980244E+02  0.42981751192E+02  0.19953046528E+02  0.13432460913E+03  0.12509000000E+03 0.  0.
         25    1    4    4    0    0  0.64300631547E+02  0.48982104432E+02  0.56084357702E+02  0.15914390045E+03  0.12509000000E+03 0.  0.
<mgrwt>
<rscale>  2 0.45035687E+03</rscale>
<asrwt>0</asrwt>
<pdfrwt beam="1">  1       21 0.39435899E-01 0.45035687E+03</pdfrwt>
<pdfrwt beam="2">  1       21 0.27806353E-01 0.45035687E+03</pdfrwt>
<totfact> 0.70973138E+04</totfact>
</mgrwt>
</event>
<event>
 7    0  0.4770865E-002  0.4585681E+03  0.7546771E-02  0.1025197E+00
         21   -1    0    0  502  501  0.00000000000E+00  0.00000000000E+00  0.11394047321E+03  0.11394047321E+03  0.00000000000E+00 0. -1.
         21   -1    0    0  501  502 -0.00000000000E+00 -0.00000000000E+00 -0.46139164416E+03  0.46139164416E+03  0.00000000000E+00 0. -1.
      99926    2    1    2    0    0  0.17763568394E-14  0.00000000000E+00 -0.34745117095E+03  0.57533211737E+03  0.45856812916E+03 0.  0.
      99925    2    3    3    0    0 -0.13136526858E+02  0.86673202281E+02 -0.31419853949E+03  0.41900535085E+03  0.26298279315E+03 0.  0.
         25    1    4    4    0    0  0.31527441935E+02  0.53696101129E+02 -0.17273606521E+03  0.22217674765E+03  0.12509000000E+03 0.  0.
         25    1    3    3    0    0  0.13136526858E+02 -0.86673202281E+02 -0.33252631467E+02  0.15632676652E+03  0.12509000000E+03 0.  0.
         25    1    4    4    0    0 -0.44663968793E+02  0.32977101152E+02 -0.14146247428E+03  0.19682860320E+03  0.12509000000E+03 0.  0.
<mgrwt>
<rscale>  2 0.45856813E+03</rscale>
<asrwt>0</asrwt>
<pdfrwt beam="1">  1       21 0.16755952E-01 0.45856813E+03</pdfrwt>
<pdfrwt beam="2">  1       21 0.67851712E-01 0.45856813E+03</pdfrwt>
<totfact> 0.58553423E+04</totfact>
</mgrwt>
</event>
<event>
 7    0  0.4770865E-002  0.4548340E+03  0.7546771E-02  0.1026290E+00
         21   -1    0    0  502  501  0.00000000000E+00  0.00000000000E+00  0.68420029983E+03  0.68420029983E+03  0.00000000000E+00 0. -1.
         21   -1    0    0  501  502 -0.00000000000E+00 -0.00000000000E+00 -0.75589680303E+02  0.75589680303E+02  0.00000000000E+00 0. -1.
      99926    2    1    2    0    0  0.00000000000E+00  0.00000000000E+00  0.60861061953E+03  0.75978998014E+03  0.45483395620E+03 0.  0.
      99925    2    3    3    0    0 -0.49499029270E+02 -0.72733762529E+02  0.26430886552E+03  0.38305192787E+03  0.26292441679E+03 0.  0.
         25    1    4    4    0    0 -0.22400234401E+02 -0.76189729903E+02  0.12513597089E+03  0.19394113735E+03  0.12509000000E+03 0.  0.
         25    1    4    4    0    0 -0.27098794869E+02  0.34559673740E+01  0.13917289463E+03  0.18911079053E+03  0.12509000000E+03 0.  0.
         25    1    3    3    0    0  0.49499029270E+02  0.72733762529E+02  0.34430175401E+03  0.37673805227E+03  0.12509000000E+03 0.  0.
<mgrwt>
<rscale>  2 0.45483396E+03</rscale>
<asrwt>0</asrwt>
<pdfrwt beam="1">  1       21 0.10061769E+00 0.45483396E+03</pdfrwt>
<pdfrwt beam="2">  1       21 0.11116130E-01 0.45483396E+03</pdfrwt>
<totfact> 0.49835683E+04</totfact>
</mgrwt>
</event>
<event>
 7    0  0.4770865E-002  0.4528004E+03  0.7546771E-02  0.1026890E+00
         21   -1    0    0  502  501  0.00000000000E+00  0.00000000000E+00  0.45919501910E+02  0.45919501910E+02  0.00000000000E+00 0. -1.
         21   -1    0    0  501  502 -0.00000000000E+00 -0.00000000000E+00 -0.11162372896E+04  0.11162372896E+04  0.00000000000E+00 0. -1.
      99926    2    1    2    0    0  0.00000000000E+00  0.17763568394E-14 -0.10703177877E+04  0.11621567915E+04  0.45280044325E+03 0.  0.
      99925    2    3    3    0    0  0.71501898605E+02  0.11605813712E+02 -0.89114025657E+03  0.93194099672E+03  0.26293696594E+03 0.  0.
         25    1    4    4    0    0  0.58672614036E+02  0.19229378628E+02 -0.36042482796E+03  0.38647873079E+03  0.12509000000E+03 0.  0.
         25    1    4    4    0    0  0.12829284568E+02 -0.76235649162E+01 -0.53071542862E+03  0.54546226593E+03  0.12509000000E+03 0.  0.
         25    1    3    3    0    0 -0.71501898605E+02 -0.11605813712E+02 -0.17917753112E+03  0.23021579480E+03  0.12509000000E+03 0.  0.
<mgrwt>
<rscale>  2 0.45280044E+03</rscale>
<asrwt>0</asrwt>
<pdfrwt beam="1">  1       21 0.67528687E-02 0.45280044E+03</pdfrwt>
<pdfrwt beam="2">  1       21 0.16415252E+00 0.45280044E+03</pdfrwt>
<totfact> 0.33957389E+04</totfact>
</mgrwt>
</event>
<event>
 7    0  0.4770865E-002  0.4384671E+03  0.7546771E-02  0.1031218E+00
         21   -1    0    0  502  501  0.00000000000E+00  0.00000000000E+00  0.95983555848E+02  0.95983555848E+02  0.00000000000E+00 0. -1.
         21   -1    0    0  501  502 -0.00000000000E+00 -0.00000000000E+00 -0.50074574608E+03  0.50074574608E+03  0.00000000000E+00 0. -1.
      99926    2    1    2    0    0  0.00000000000E+00 -0.17763568394E-14 -0.40476219023E+03  0.59672930193E+03  0.43846713576E+03 0.  0.
      99925    2    3    3    0    0 -0.91876364229E+02  0.95887627373E+01 -0.29858690541E+03  0.40843721531E+03  0.26293270641E+03 0.  0.
         25    1    4    4    0    0 -0.64755659131E+02 -0.29411426316E+02 -0.13752331195E+03  0.19904395700E+03  0.12509000000E+03 0.  0.
         25    1    4    4    0    0 -0.27120705098E+02  0.39000189053E+02 -0.16106359345E+03  0.20939325831E+03  0.12509000000E+03 0.  0.
         25    1    3    3    0    0  0.91876364229E+02 -0.95887627373E+01 -0.10617528483E+03  0.18829208662E+03  0.12509000000E+03 0.  0.
<mgrwt>
<rscale>  2 0.43846714E+03</rscale>
<asrwt>0</asrwt>
<pdfrwt beam="1">  1       21 0.14115229E-01 0.43846714E+03</pdfrwt>
<pdfrwt beam="2">  1       21 0.73639080E-01 0.43846714E+03</pdfrwt>
<totfact> 0.67243022E+04</totfact>
</mgrwt>
</event>
<event>
 7    0  0.4770865E-002  0.4566664E+03  0.7546771E-02  0.1025752E+00
         21   -1    0    0  502  501  0.00000000000E+00  0.00000000000E+00  0.48046435028E+02  0.48046435028E+02  0.00000000000E+00 0. -1.
         21   -1    0    0  501  502 -0.00000000000E+00 -0.00000000000E+00 -0.10851181105E+04  0.10851181105E+04  0.00000000000E+00 0. -1.
      99926    2    1    2    0    0  0.14210854715E-13  0.00000000000E+00 -0.10370716755E+04  0.11331645455E+04  0.45666642878E+03 0.  0.
      99925    2    3    3    0    0  0.91401267519E+02 -0.69332957268E+02 -0.65556708983E+03  0.71560675595E+03  0.26298967515E+03 0.  0.
         25    1    3    3    0    0 -0.91401267519E+02  0.69332957268E+02 -0.38150458566E+03  0.41755778959E+03  0.12509000000E+03 0.  0.
         25    1    4    4    0    0  0.84762445912E+02 -0.48353202572E+02 -0.39707577915E+03  0.42759722511E+03  0.12509000000E+03 0.  0.
         25    1    4    4    0    0  0.66388216071E+01 -0.20979754695E+02 -0.25849131068E+03  0.28800953084E+03  0.12509000000E+03 0.  0.
<mgrwt>
<rscale>  2 0.45666643E+03</rscale>
<asrwt>0</asrwt>
<pdfrwt beam="1">  1       21 0.70656521E-02 0.45666643E+03</pdfrwt>
<pdfrwt beam="2">  1       21 0.15957620E+00 0.45666643E+03</pdfrwt>
<totfact> 0.33906874E+04</totfact>
</mgrwt>
</event>
<event>
 7    0  0.4770865E-002  0.4533486E+03  0.7546771E-02  0.1026728E+00
         21   -1    0    0  502  501  0.00000000000E+00  0.00000000000E+00  0.28172926890E+03  0.28172926890E+03  0.00000000000E+00 0.  1.
         21   -1    0    0  501  502 -0.00000000000E+00 -0.00000000000E+00 -0.18237809771E+03  0.18237809771E+03  0.00000000000E+00 0.  1.
      99926    2    1    2    0    0  0.00000000000E+00  0.00000000000E+00  0.99351171199E+02  0.46410736661E+03  0.45334864346E+03 0.  0.
      99925    2    3    3    0    0  0.90683112639E+02  0.65130178899E+02  0.61831494001E+02  0.29229176371E+03  0.26295622138E+03 0.  0.
         25    1    4    4    0    0  0.39460510389E+02  0.18706983641E+02  0.68621695414E+02  0.14920967897E+03  0.12509000000E+03 0.  0.
         25    1    4    4    0    0  0.51222602250E+02  0.46423195258E+02 -0.67902014134E+01  0.14308208474E+03  0.12509000000E+03 0.  0.
         25    1    3    3    0    0 -0.90683112639E+02 -0.65130178899E+02  0.37519677197E+02  0.17181560290E+03  0.12509000000E+03 0.  0.
<mgrwt>
<rscale>  2 0.45334864E+03</rscale>
<asrwt>0</asrwt>
<pdfrwt beam="1">  1       21 0.41430775E-01 0.45334864E+03</pdfrwt>
<pdfrwt beam="2">  1       21 0.26820308E-01 0.45334864E+03</pdfrwt>
<totfact> 0.68773436E+04</totfact>
</mgrwt>
</event>
<event>
 7    0  0.4770865E-002  0.4490895E+03  0.7546771E-02  0.1027994E+00
         21   -1    0    0  502  501  0.00000000000E+00  0.00000000000E+00  0.56288738549E+02  0.56288738549E+02  0.00000000000E+00 0.  1.
         21   -1    0    0  501  502 -0.00000000000E+00 -0.00000000000E+00 -0.89574471535E+03  0.89574471535E+03  0.00000000000E+00 0.  1.
      99926    2    1    2    0    0 -0.14210854715E-13  0.71054273576E-14 -0.83945597680E+03  0.95203345390E+03  0.44908947923E+03 0.  0.
      99925    2    3    3    0    0 -0.83084346350E+02  0.39191586598E+02 -0.65052089674E+03  0.70752790867E+03  0.26263913529E+03 0.  0.
         25    1    3    3    0    0  0.83084346350E+02 -0.39191586598E+02 -0.18893508006E+03  0.24450554523E+03  0.12509000000E+03 0.  0.
         25    1    4    4    0    0 -0.29530741643E+02 -0.10409187181E+02 -0.24399509131E+03  0.27597378238E+03  0.12509000000E+03 0.  0.
         25    1    4    4    0    0 -0.53553604707E+02  0.49600773779E+02 -0.40652580543E+03  0.43155412629E+03  0.12509000000E+03 0.  0.
<mgrwt>
<rscale>  2 0.44908948E+03</rscale>
<asrwt>0</asrwt>
<pdfrwt beam="1">  1       21 0.82777556E-02 0.44908948E+03</pdfrwt>
<pdfrwt beam="2">  1       21 0.13172717E+00 0.44908948E+03</pdfrwt>
<totfact> 0.43012359E+04</totfact>
</mgrwt>
</event>
<event>
 7    0  0.4770865E-002  0.4230753E+03  0.7546771E-02  0.1036070E+00
         21   -1    0    0  502  501  0.00000000000E+00  0.00000000000E+00  0.11893250848E+03  0.11893250848E+03  0.00000000000E+00 0.  1.
         21   -1    0    0  501  502 -0.00000000000E+00 -0.00000000000E+00 -0.37624849734E+03  0.37624849734E+03  0.00000000000E+00 0.  1.
      99926    2    1    2    0    0  0.00000000000E+00  0.00000000000E+00 -0.25731598887E+03  0.49518100582E+03  0.42307530110E+03 0.  0.
      99925    2    3    3    0    0 -0.53695552148E+02 -0.14679465116E+02 -0.10043588953E+03  0.28695619297E+03  0.26297868690E+03 0.  0.
         25    1    4    4    0    0  0.13027641233E+02 -0.10638512708E+02 -0.58070340768E+02  0.13893368910E+03  0.12509000000E+03 0.  0.
         25    1    3    3    0    0  0.53695552148E+02  0.14679465116E+02 -0.15688009934E+03  0.20822481285E+03  0.12509000000E+03 0.  0.
         25    1    4    4    0    0 -0.66723193382E+02 -0.40409524082E+01 -0.42365548757E+02  0.14802250387E+03  0.12509000000E+03 0.  0.
<mgrwt>
<rscale>  2 0.42307530E+03</rscale>
<asrwt>0</asrwt>
<pdfrwt beam="1">  1       21 0.17490075E-01 0.42307530E+03</pdfrwt>
<pdfrwt beam="2">  1       21 0.55330661E-01 0.42307530E+03</pdfrwt>
<totfact> 0.85235078E+04</totfact>
</mgrwt>
</event>
<event>
 7    0  0.4770865E-002  0.4617778E+03  0.7546771E-02  0.1024267E+00
         21   -1    0    0  502  501  0.00000000000E+00  0.00000000000E+00  0.12719250900E+03  0.12719250900E+03  0.00000000000E+00 0. -1.
         21   -1    0    0  501  502 -0.00000000000E+00 -0.00000000000E+00 -0.41912591246E+03  0.41912591246E+03  0.00000000000E+00 0. -1.
      99926    2    1    2    0    0  0.14210854715E-13  0.71054273576E-14 -0.29193340346E+03  0.54631842146E+03  0.46177776643E+03 0.  0.
      99925    2    3    3    0    0  0.11172971359E+03  0.39235117154E+02 -0.16419130320E+03  0.33186918365E+03  0.26297423389E+03 0.  0.
         25    1    4    4    0    0  0.33295656216E+02 -0.52093214853E+00 -0.10926978112E+03  0.16939972036E+03  0.12509000000E+03 0.  0.
         25    1    3    3    0    0 -0.11172971359E+03 -0.39235117154E+02 -0.12774210025E+03  0.21444923780E+03  0.12509000000E+03 0.  0.
         25    1    4    4    0    0  0.78434057378E+02  0.39756049302E+02 -0.54921522080E+02  0.16246946329E+03  0.12509000000E+03 0.  0.
<mgrwt>
<rscale>  2 0.46177777E+03</rscale>
<asrwt>0</asrwt>
<pdfrwt beam="1">  1       21 0.18704780E-01 0.46177777E+03</pdfrwt>
<pdfrwt beam="2">  1       21 0.61636165E-01 0.46177777E+03</pdfrwt>
<totfact> 0.58888096E+04</totfact>
</mgrwt>
</event>
<event>
 7    0  0.4770865E-002  0.4192326E+03  0.7546771E-02  0.1037316E+00
         21   -1    0    0  502  501  0.00000000000E+00  0.00000000000E+00  0.81171228379E+02  0.81171228379E+02  0.00000000000E+00 0. -1.
         21   -1    0    0  501  502 -0.00000000000E+00 -0.00000000000E+00 -0.54131240261E+03  0.54131240261E+03  0.00000000000E+00 0. -1.
      99926    2    1    2    0    0 -0.35527136788E-14  0.00000000000E+00 -0.46014117423E+03  0.62248363099E+03  0.41923259729E+03 0.  0.
      99925    2    3    3    0    0 -0.27469671990E+02  0.33975624239E+02 -0.39050019229E+03  0.47279628888E+03  0.26293916536E+03 0.  0.
         25    1    3    3    0    0  0.27469671990E+02 -0.33975624239E+02 -0.69640981942E+02  0.14968734211E+03  0.12509000000E+03 0.  0.
         25    1    4    4    0    0 -0.51964674390E+02  0.38305561819E+01 -0.19379589297E+03  0.23647274003E+03  0.12509000000E+03 0.  0.
         25    1    4    4    0    0  0.24495002400E+02  0.30145068057E+02 -0.19670429932E+03  0.23632354885E+03  0.12509000000E+03 0.  0.
<mgrwt>
<rscale>  2 0.41923260E+03</rscale>
<asrwt>0</asrwt>
<pdfrwt beam="1">  1       21 0.11936946E-01 0.41923260E+03</pdfrwt>
<pdfrwt beam="2">  1       21 0.79604762E-01 0.41923260E+03</pdfrwt>
<totfact> 0.76805694E+04</totfact>
</mgrwt>
</event>
<event>
 7    0  0.4770865E-002  0.4514419E+03  0.7546771E-02  0.1027293E+00
         21   -1    0    0  502  501  0.00000000000E+00  0.00000000000E+00  0.11253049387E+03  0.11253049387E+03  0.00000000000E+00 0.  1.
         21   -1    0    0  501  502 -0.00000000000E+00 -0.00000000000E+00 -0.45276573052E+03  0.45276573052E+03  0.00000000000E+00 0.  1.
      99926    2    1    2    0    0  0.00000000000E+00 -0.14210854715E-13 -0.34023523665E+03  0.56529622439E+03  0.45144191769E+03 0.  0.
      99925    2    3    3    0    0 -0.73395600298E+02 -0.71793307326E+02 -0.26355840626E+03  0.38622071646E+03  0.26298710081E+03 0.  0.
         25    1    3    3    0    0  0.73395600298E+02  0.71793307326E+02 -0.76676830398E+02  0.17907550793E+03  0.12509000000E+03 0.  0.
         25    1    4    4    0    0 -0.72328374404E+01 -0.28567264551E+02 -0.83908689559E+02  0.15348152600E+03  0.12509000000E+03 0.  0.
         25    1    4    4    0    0 -0.66162762858E+02 -0.43226042775E+02 -0.17964971670E+03  0.23273919045E+03  0.12509000000E+03 0.  0.
<mgrwt>
<rscale>  2 0.45144192E+03</rscale>
<asrwt>0</asrwt>
<pdfrwt beam="1">  1       21 0.16548603E-01 0.45144192E+03</pdfrwt>
<pdfrwt beam="2">  1       21 0.66583194E-01 0.45144192E+03</pdfrwt>
<totfact> 0.62610234E+04</totfact>
</mgrwt>
</event>
<event>
 7    0  0.4770865E-002  0.4523574E+03  0.7546771E-02  0.1027021E+00
         21   -1    0    0  502  501  0.00000000000E+00  0.00000000000E+00  0.11828119600E+03  0.11828119600E+03  0.00000000000E+00 0. -1.
         21   -1    0    0  501  502 -0.00000000000E+00 -0.00000000000E+00 -0.43250153397E+03  0.43250153397E+03  0.00000000000E+00 0. -1.
      99926    2    1    2    0    0  0.17763568394E-14  0.00000000000E+00 -0.31422033797E+03  0.55078272997E+03  0.45235737513E+03 0.  0.
      99925    2    3    3    0    0 -0.10312604590E+02  0.81518518514E+02 -0.10795404650E+03  0.29593981802E+03  0.26301080027E+03 0.  0.
         25    1    3    3    0    0  0.10312604590E+02 -0.81518518514E+02 -0.20626629147E+03  0.25484291195E+03  0.12509000000E+03 0.  0.
         25    1    4    4    0    0 -0.38194169538E+02  0.65702701857E+02 -0.54568772918E+02  0.15620787015E+03  0.12509000000E+03 0.  0.
         25    1    4    4    0    0  0.27881564948E+02  0.15815816657E+02 -0.53385273586E+02  0.13973194787E+03  0.12509000000E+03 0.  0.
<mgrwt>
<rscale>  2 0.45235738E+03</rscale>
<asrwt>0</asrwt>
<pdfrwt beam="1">  1       21 0.17394294E-01 0.45235738E+03</pdfrwt>
<pdfrwt beam="2">  1       21 0.63603165E-01 0.45235738E+03</pdfrwt>
<totfact> 0.63124284E+04</totfact>
</mgrwt>
</event>
<event>
 7    0  0.4770865E-002  0.4565865E+03  0.7546771E-02  0.1025776E+00
         21   -1    0    0  502  501  0.00000000000E+00  0.00000000000E+00  0.31802663470E+03  0.31802663470E+03  0.00000000000E+00 0.  1.
         21   -1    0    0  501  502 -0.00000000000E+00 -0.00000000000E+00 -0.16387871617E+03  0.16387871617E+03  0.00000000000E+00 0.  1.
      99926    2    1    2    0    0  0.00000000000E+00  0.00000000000E+00  0.15414791853E+03  0.48190535087E+03  0.45658645010E+03 0.  0.
      99925    2    3    3    0    0 -0.20215187758E+02 -0.29136997910E+02 -0.19227850437E+02  0.26519290585E+03  0.26210675042E+03 0.  0.
         25    1    3    3    0    0  0.20215187758E+02  0.29136997910E+02  0.17337576897E+03  0.21671244502E+03  0.12509000000E+03 0.  0.
         25    1    4    4    0    0 -0.29492029197E+02 -0.48315908065E+02 -0.36612229588E+01  0.13735035279E+03  0.12509000000E+03 0.  0.
         25    1    4    4    0    0  0.92768414388E+01  0.19178910156E+02 -0.15566627478E+02  0.12784255306E+03  0.12509000000E+03 0.  0.
<mgrwt>
<rscale>  2 0.45658645E+03</rscale>
<asrwt>0</asrwt>
<pdfrwt beam="1">  1       21 0.46768623E-01 0.45658645E+03</pdfrwt>
<pdfrwt beam="2">  1       21 0.24099811E-01 0.45658645E+03</pdfrwt>
<totfact> 0.65730035E+04</totfact>
</mgrwt>
</event>
<event>
 7    0  0.4770865E-002  0.4524521E+03  0.7546771E-02  0.1026993E+00
         21   -1    0    0  502  501  0.00000000000E+00  0.00000000000E+00  0.72355528183E+03  0.72355528183E+03  0.00000000000E+00 0.  1.
         21   -1    0    0  501  502 -0.00000000000E+00 -0.00000000000E+00 -0.70731607551E+02  0.70731607551E+02  0.00000000000E+00 0.  1.
      99926    2    1    2    0    0  0.00000000000E+00  0.00000000000E+00  0.65282367428E+03  0.79428688938E+03  0.45245211122E+03 0.  0.
      99925    2    3    3    0    0  0.72873621266E+02  0.82318832074E+02  0.40366671522E+03  0.49459762842E+03  0.26380493223E+03 0.  0.
         25    1    3    3    0    0 -0.72873621266E+02 -0.82318832074E+02  0.24915695906E+03  0.29968926097E+03  0.12509000000E+03 0.  0.
         25    1    4    4    0    0  0.28218299458E+02  0.40230940562E+02  0.12739547498E+03  0.18518076614E+03  0.12509000000E+03 0.  0.
         25    1    4    4    0    0  0.44655321808E+02  0.42087891512E+02  0.27627124023E+03  0.30941686227E+03  0.12509000000E+03 0.  0.
<mgrwt>
<rscale>  2 0.45245211E+03</rscale>
<asrwt>0</asrwt>
<pdfrwt beam="1">  1       21 0.10640518E+00 0.45245211E+03</pdfrwt>
<pdfrwt beam="2">  1       21 0.10401707E-01 0.45245211E+03</pdfrwt>
<totfact> 0.49015193E+04</totfact>
</mgrwt>
</event>
<event>
 7    0  0.4770865E-002  0.4616665E+03  0.7546771E-02  0.1024299E+00
         21   -1    0    0  502  501  0.00000000000E+00  0.00000000000E+00  0.25297755515E+02  0.25297755515E+02  0.00000000000E+00 0. -1.
         21   -1    0    0  501  502 -0.00000000000E+00 -0.00000000000E+00 -0.21062733767E+04  0.21062733767E+04  0.00000000000E+00 0. -1.
      99926    2    1    2    0    0  0.00000000000E+00  0.00000000000E+00 -0.20809756211E+04  0.21315711322E+04  0.46166649838E+03 0.  0.
      99925    2    3    3    0    0 -0.52455342831E+02  0.10715913226E+03 -0.12882780257E+04  0.13202440535E+04  0.26296282392E+03 0.  0.
         25    1    4    4    0    0  0.12964638911E+02  0.45691384354E+02 -0.65390083910E+03  0.66745007300E+03  0.12509000000E+03 0.  0.
         25    1    4    4    0    0 -0.65419981742E+02  0.61467747905E+02 -0.63437718659E+03  0.65279398053E+03  0.12509000000E+03 0.  0.
         25    1    3    3    0    0  0.52455342831E+02 -0.10715913226E+03 -0.79269759545E+03  0.81132707865E+03  0.12509000000E+03 0.  0.
<mgrwt>
<rscale>  2 0.46166650E+03</rscale>
<asrwt>0</asrwt>
<pdfrwt beam="1">  1       21 0.37202577E-02 0.46166650E+03</pdfrwt>
<pdfrwt beam="2">  1       21 0.30974612E+00 0.46166650E+03</pdfrwt>
<totfact> 0.11092769E+04</totfact>
</mgrwt>
</event>
<event>
 7    0  0.4770865E-002  0.4208615E+03  0.7546771E-02  0.1036786E+00
         21   -1    0    0  502  501  0.00000000000E+00  0.00000000000E+00  0.58015329927E+02  0.58015329927E+02  0.00000000000E+00 0. -1.
         21   -1    0    0  501  502 -0.00000000000E+00 -0.00000000000E+00 -0.76326544085E+03  0.76326544085E+03  0.00000000000E+00 0. -1.
      99926    2    1    2    0    0  0.00000000000E+00  0.00000000000E+00 -0.70525011092E+03  0.82128077078E+03  0.42086148017E+03 0.  0.
      99925    2    3    3    0    0  0.33314169068E+02  0.26943248384E+02 -0.33474525747E+03  0.42788894699E+03  0.26305663090E+03 0.  0.
         25    1    4    4    0    0  0.35952314444E+02  0.22568662675E+02 -0.22736147606E+03  0.26294992364E+03  0.12509000000E+03 0.  0.
         25    1    3    3    0    0 -0.33314169068E+02 -0.26943248384E+02 -0.37050485345E+03  0.39339182379E+03  0.12509000000E+03 0.  0.
         25    1    4    4    0    0 -0.26381453757E+01  0.43745857091E+01 -0.10738378142E+03  0.16493902335E+03  0.12509000000E+03 0.  0.
<mgrwt>
<rscale>  2 0.42086148E+03</rscale>
<asrwt>0</asrwt>
<pdfrwt beam="1">  1       21 0.85316666E-02 0.42086148E+03</pdfrwt>
<pdfrwt beam="2">  1       21 0.11224491E+00 0.42086148E+03</pdfrwt>
<totfact> 0.61688417E+04</totfact>
</mgrwt>
</event>
<event>
 7    0  0.4770865E-002  0.4551974E+03  0.7546771E-02  0.1026183E+00
         21   -1    0    0  502  501  0.00000000000E+00  0.00000000000E+00  0.16527993654E+04  0.16527993654E+04  0.00000000000E+00 0.  1.
         21   -1    0    0  501  502 -0.00000000000E+00 -0.00000000000E+00 -0.31341473604E+02  0.31341473604E+02  0.00000000000E+00 0.  1.
      99926    2    1    2    0    0  0.00000000000E+00 -0.14210854715E-13  0.16214578918E+04  0.16841408390E+04  0.45519739755E+03 0.  0.
      99925    2    3    3    0    0 -0.73860820420E+01  0.11218651654E+03  0.97143610778E+03  0.10127123644E+04  0.26316886752E+03 0.  0.
         25    1    4    4    0    0  0.29700077810E+02  0.81233229639E+02  0.51324780471E+03  0.53530528613E+03  0.12509000000E+03 0.  0.
         25    1    4    4    0    0 -0.37086159852E+02  0.30953286898E+02  0.45818830307E+03  0.47740707828E+03  0.12509000000E+03 0.  0.
         25    1    3    3    0    0  0.73860820420E+01 -0.11218651654E+03  0.65002178406E+03  0.67142847464E+03  0.12509000000E+03 0.  0.
<mgrwt>
<rscale>  2 0.45519740E+03</rscale>
<asrwt>0</asrwt>
<pdfrwt beam="1">  1       21 0.24305867E+00 0.45519740E+03</pdfrwt>
<pdfrwt beam="2">  1       21 0.46090414E-02 0.45519740E+03</pdfrwt>
<totfact> 0.19563582E+04</totfact>
</mgrwt>
</event>
<event>
 7    0  0.4770865E-002  0.4606071E+03  0.7546771E-02  0.1024605E+00
         21   -1    0    0  502  501  0.00000000000E+00  0.00000000000E+00  0.13092530251E+03  0.13092530251E+03  0.00000000000E+00 0. -1.
         21   -1    0    0  501  502 -0.00000000000E+00 -0.00000000000E+00 -0.40511437415E+03  0.40511437415E+03  0.00000000000E+00 0. -1.
      99926    2    1    2    0    0  0.00000000000E+00  0.14210854715E-13 -0.27418907163E+03  0.53603967666E+03  0.46060708630E+03 0.  0.
      99925    2    3    3    0    0 -0.66149401058E+02 -0.77821128714E+02 -0.10220288108E+03  0.30011886542E+03  0.26304758723E+03 0.  0.
         25    1    4    4    0    0 -0.11956554979E+02 -0.30049060928E+02 -0.84976279398E+02  0.15464275421E+03  0.12509000000E+03 0.  0.
         25    1    4    4    0    0 -0.54192846079E+02 -0.47772067786E+02 -0.17226601678E+02  0.14547611121E+03  0.12509000000E+03 0.  0.
         25    1    3    3    0    0  0.66149401058E+02  0.77821128714E+02 -0.17198619056E+03  0.23592081124E+03  0.12509000000E+03 0.  0.
<mgrwt>
<rscale>  2 0.46060709E+03</rscale>
<asrwt>0</asrwt>
<pdfrwt beam="1">  1       21 0.19253721E-01 0.46060709E+03</pdfrwt>
<pdfrwt beam="2">  1       21 0.59575644E-01 0.46060709E+03</pdfrwt>
<totfact> 0.60084690E+04</totfact>
</mgrwt>
</event>
<event>
 7    0  0.4770865E-002  0.4557081E+03  0.7546771E-02  0.1026033E+00
         21   -1    0    0  502  501  0.00000000000E+00  0.00000000000E+00  0.13121152035E+03  0.13121152035E+03  0.00000000000E+00 0.  1.
         21   -1    0    0  501  502 -0.00000000000E+00 -0.00000000000E+00 -0.39567767626E+03  0.39567767626E+03  0.00000000000E+00 0.  1.
      99926    2    1    2    0    0  0.00000000000E+00  0.00000000000E+00 -0.26446615591E+03  0.52688919662E+03  0.45570810602E+03 0.  0.
      99925    2    3    3    0    0  0.98052481182E+02 -0.54647687098E+02 -0.18800252050E+03  0.34224127648E+03  0.26302753628E+03 0.  0.
         25    1    4    4    0    0  0.81289734987E+02 -0.51753039009E+02 -0.12356782159E+03  0.20050664002E+03  0.12509000000E+03 0.  0.
         25    1    3    3    0    0 -0.98052481182E+02  0.54647687098E+02 -0.76463635406E+02  0.18464792014E+03  0.12509000000E+03 0.  0.
         25    1    4    4    0    0  0.16762746195E+02 -0.28946480896E+01 -0.64434698916E+02  0.14173463646E+03  0.12509000000E+03 0.  0.
<mgrwt>
<rscale>  2 0.45570811E+03</rscale>
<asrwt>0</asrwt>
<pdfrwt beam="1">  1       21 0.19295812E-01 0.45570811E+03</pdfrwt>
<pdfrwt beam="2">  1       21 0.58187894E-01 0.45570811E+03</pdfrwt>
<totfact> 0.63062887E+04</totfact>
</mgrwt>
</event>
<event>
 7    0  0.4770865E-002  0.4479098E+03  0.7546771E-02  0.1028347E+00
         21   -1    0    0  502  501  0.00000000000E+00  0.00000000000E+00  0.52001103398E+03  0.52001103398E+03  0.00000000000E+00 0. -1.
         21   -1    0    0  501  502 -0.00000000000E+00 -0.00000000000E+00 -0.96451401755E+02  0.96451401755E+02  0.00000000000E+00 0. -1.
      99926    2    1    2    0    0  0.00000000000E+00 -0.13322676296E-14  0.42355963222E+03  0.61646243573E+03  0.44790978179E+03 0.  0.
      99925    2    3    3    0    0 -0.94559894683E+02 -0.20264340137E+01  0.20086071045E+03  0.34408769759E+03  0.26287951330E+03 0.  0.
         25    1    4    4    0    0 -0.46763193625E+02  0.35962478928E+02  0.12003326790E+03  0.18312724994E+03  0.12509000000E+03 0.  0.
         25    1    3    3    0    0  0.94559894683E+02  0.20264340137E+01  0.22269892177E+03  0.27237473814E+03  0.12509000000E+03 0.  0.
         25    1    4    4    0    0 -0.47796701057E+02 -0.37988912942E+02  0.80827442547E+02  0.16096044765E+03  0.12509000000E+03 0.  0.
<mgrwt>
<rscale>  2 0.44790978E+03</rscale>
<asrwt>0</asrwt>
<pdfrwt beam="1">  1       21 0.76472210E-01 0.44790978E+03</pdfrwt>
<pdfrwt beam="2">  1       21 0.14184030E-01 0.44790978E+03</pdfrwt>
<totfact> 0.61021851E+04</totfact>
</mgrwt>
</event>
<event>
 6    0  0.4770865E-002  0.4569212E+03  0.7546771E-02  0.1025678E+00
         21   -1    0    0  502  501  0.00000000000E+00  0.00000000000E+00  0.50752107099E+03  0.50752107099E+03  0.00000000000E+00 0. -1.
         21   -1    0    0  501  502 -0.00000000000E+00 -0.00000000000E+00 -0.10284154690E+03  0.10284154690E+03  0.00000000000E+00 0. -1.
      99926    2    1    2    0    0  0.00000000000E+00  0.71054273576E-14  0.40467952409E+03  0.61036261789E+03  0.45692122746E+03 0.  0.
         25    1    3    3    0    0  0.53330460786E+02 -0.68251078480E+02  0.11882985011E+03  0.19305540432E+03  0.12509000000E+03 0.  0.
         25    1    3    3    0    0 -0.90056069517E+02  0.50364983314E+02  0.21034810422E+03  0.26559472933E+03  0.12509000000E+03 0.  0.
         25    1    3    3    0    0  0.36725608731E+02  0.17886095167E+02  0.75501569763E+02  0.15171248424E+03  0.12509000000E+03 0.  0.
<mgrwt>
<rscale>  2 0.45692123E+03</rscale>
<asrwt>0</asrwt>
<pdfrwt beam="1">  1       21 0.74635450E-01 0.45692123E+03</pdfrwt>
<pdfrwt beam="2">  1       21 0.15123757E-01 0.45692123E+03</pdfrwt>
<totfact> 0.57172336E+04</totfact>
</mgrwt>
</event>
<event>
 6    0  0.4770865E-002  0.4511934E+03  0.7546771E-02  0.1027367E+00
         21   -1    0    0  502  501  0.00000000000E+00  0.00000000000E+00  0.11614128563E+03  0.11614128563E+03  0.00000000000E+00 0.  1.
         21   -1    0    0  501  502 -0.00000000000E+00 -0.00000000000E+00 -0.43820662992E+03  0.43820662992E+03  0.00000000000E+00 0.  1.
      99926    2    1    2    0    0  0.17763568394E-14  0.00000000000E+00 -0.32206534429E+03  0.55434791555E+03  0.45119344574E+03 0.  0.
         25    1    3    3    0    0  0.16667700609E+02  0.21862643639E+02 -0.12300023108E+03  0.17757351259E+03  0.12509000000E+03 0.  0.
         25    1    3    3    0    0 -0.27612585265E+02  0.29167061763E+02 -0.20227361533E+03  0.24119555534E+03  0.12509000000E+03 0.  0.
         25    1    3    3    0    0  0.10944884656E+02 -0.51029705402E+02  0.32085021228E+01  0.13557884761E+03  0.12509000000E+03 0.  0.
<mgrwt>
<rscale>  2 0.45119345E+03</rscale>
<asrwt>0</asrwt>
<pdfrwt beam="1">  1       21 0.17079601E-01 0.45119345E+03</pdfrwt>
<pdfrwt beam="2">  1       21 0.64442151E-01 0.45119345E+03</pdfrwt>
<totfact> 0.63469928E+04</totfact>
</mgrwt>
</event>
<event>
 7    0  0.4770865E-002  0.4557403E+03  0.7546771E-02  0.1026024E+00
         21   -1    0    0  502  501  0.00000000000E+00  0.00000000000E+00  0.26644263205E+03  0.26644263205E+03  0.00000000000E+00 0.  1.
         21   -1    0    0  501  502 -0.00000000000E+00 -0.00000000000E+00 -0.19488177807E+03  0.19488177807E+03  0.00000000000E+00 0.  1.
      99926    2    1    2    0    0 -0.28421709430E-13  0.88817841970E-15  0.71560853977E+02  0.46132441011E+03  0.45574033785E+03 0.  0.
      99925    2    3    3    0    0 -0.10831080310E+03  0.74457127861E+01  0.11666638478E+02  0.28519521362E+03  0.26346447714E+03 0.  0.
         25    1    3    3    0    0  0.10831080310E+03 -0.74457127861E+01  0.59894215499E+02  0.17612919649E+03  0.12509000000E+03 0.  0.
         25    1    4    4    0    0 -0.92421371933E+02 -0.63080105608E+01  0.25006886572E+02  0.15765263545E+03  0.12509000000E+03 0.  0.
         25    1    4    4    0    0 -0.15889431166E+02  0.13753723347E+02 -0.13340248095E+02  0.12754257818E+03  0.12509000000E+03 0.  0.
<mgrwt>
<rscale>  2 0.45574034E+03</rscale>
<asrwt>0</asrwt>
<pdfrwt beam="1">  1       21 0.39182740E-01 0.45574034E+03</pdfrwt>
<pdfrwt beam="2">  1       21 0.28659085E-01 0.45574034E+03</pdfrwt>
<totfact> 0.67683654E+04</totfact>
</mgrwt>
</event>
<event>
 7    0  0.4770865E-002  0.4576765E+03  0.7546771E-02  0.1025457E+00
         21   -1    0    0  502  501  0.00000000000E+00  0.00000000000E+00  0.53109480525E+02  0.53109480525E+02  0.00000000000E+00 0.  1.
         21   -1    0    0  501  502 -0.00000000000E+00 -0.00000000000E+00 -0.98601883457E+03  0.98601883457E+03  0.00000000000E+00 0.  1.
      99926    2    1    2    0    0  0.19706458687E-14  0.14210854715E-13 -0.93290935404E+03  0.10391283151E+04  0.45767651498E+03 0.  0.
      99925    2    3    3    0    0 -0.17530438630E+00 -0.84911623149E+02 -0.40752723549E+03  0.49242556855E+03  0.26304843360E+03 0.  0.
         25    1    4    4    0    0  0.28135767555E+02 -0.71339853503E+02 -0.23451512316E+03  0.27663305515E+03  0.12509000000E+03 0.  0.
         25    1    4    4    0    0 -0.28311071941E+02 -0.13571769646E+02 -0.17301211233E+03  0.21579251340E+03  0.12509000000E+03 0.  0.
         25    1    3    3    0    0  0.17530438630E+00  0.84911623149E+02 -0.52538211856E+03  0.54670274654E+03  0.12509000000E+03 0.  0.
<mgrwt>
<rscale>  2 0.45767651E+03</rscale>
<asrwt>0</asrwt>
<pdfrwt beam="1">  1       21 0.78102181E-02 0.45767651E+03</pdfrwt>
<pdfrwt beam="2">  1       21 0.14500276E+00 0.45767651E+03</pdfrwt>
<totfact> 0.36901804E+04</totfact>
</mgrwt>
</event>
<event>
 7    0  0.4770865E-002  0.4528599E+03  0.7546771E-02  0.1026873E+00
         21   -1    0    0  502  501  0.00000000000E+00  0.00000000000E+00  0.93057361375E+02  0.93057361375E+02  0.00000000000E+00 0.  1.
         21   -1    0    0  501  502 -0.00000000000E+00 -0.00000000000E+00 -0.55095621930E+03  0.55095621930E+03  0.00000000000E+00 0.  1.
      99926    2    1    2    0    0  0.00000000000E+00 -0.35527136788E-14 -0.45789885793E+03  0.64401358068E+03  0.45285994303E+03 0.  0.
      99925    2    3    3    0    0 -0.21916391686E+02 -0.45975621588E+01 -0.13391345679E+03  0.29599703790E+03  0.26302084847E+03 0.  0.
         25    1    3    3    0    0  0.21916391686E+02  0.45975621588E+01 -0.32398540113E+03  0.34801654278E+03  0.12509000000E+03 0.  0.
         25    1    4    4    0    0 -0.26076962522E+01 -0.29167540634E+02 -0.99646926667E+02  0.16258709543E+03  0.12509000000E+03 0.  0.
         25    1    4    4    0    0 -0.19308695433E+02  0.24569978475E+02 -0.34266530128E+02  0.13340994247E+03  0.12509000000E+03 0.  0.
<mgrwt>
<rscale>  2 0.45285994E+03</rscale>
<asrwt>0</asrwt>
<pdfrwt beam="1">  1       21 0.13684906E-01 0.45285994E+03</pdfrwt>
<pdfrwt beam="2">  1       21 0.81022975E-01 0.45285994E+03</pdfrwt>
<totfact> 0.57004171E+04</totfact>
</mgrwt>
</event>
<event>
 7    0  0.4770865E-002  0.4633320E+03  0.7546771E-02  0.1023819E+00
         21   -1    0    0  502  501  0.00000000000E+00  0.00000000000E+00  0.62655501533E+03  0.62655501533E+03  0.00000000000E+00 0. -1.
         21   -1    0    0  501  502 -0.00000000000E+00 -0.00000000000E+00 -0.85657487085E+02  0.85657487085E+02  0.00000000000E+00 0. -1.
      99926    2    1    2    0    0  0.00000000000E+00  0.00000000000E+00  0.54089752825E+03  0.71221250242E+03  0.46333196796E+03 0.  0.
      99925    2    3    3    0    0 -0.87921453800E+01 -0.99777452748E+02  0.44045612941E+03  0.52308602464E+03  0.26378882717E+03 0.  0.
         25    1    4    4    0    0 -0.16195395772E+02 -0.13280080858E+02  0.23892030732E+03  0.27049782391E+03  0.12509000000E+03 0.  0.
         25    1    3    3    0    0  0.87921453800E+01  0.99777452748E+02  0.10044139884E+03  0.18912647778E+03  0.12509000000E+03 0.  0.
         25    1    4    4    0    0  0.74032503923E+01 -0.86497371890E+02  0.20153582209E+03  0.25258820072E+03  0.12509000000E+03 0.  0.
<mgrwt>
<rscale>  2 0.46333197E+03</rscale>
<asrwt>0</asrwt>
<pdfrwt beam="1">  1       21 0.92140441E-01 0.46333197E+03</pdfrwt>
<pdfrwt beam="2">  1       21 0.12596690E-01 0.46333197E+03</pdfrwt>
<totfact> 0.48956016E+04</totfact>
</mgrwt>
</event>
<event>
 7    0  0.4770865E-002  0.4559999E+03  0.7546771E-02  0.1025948E+00
         21   -1    0    0  502  501  0.00000000000E+00  0.00000000000E+00  0.11256657305E+03  0.11256657305E+03  0.00000000000E+00 0. -1.
         21   -1    0    0  501  502 -0.00000000000E+00 -0.00000000000E+00 -0.46180650000E+03  0.46180650000E+03  0.00000000000E+00 0. -1.
      99926    2    1    2    0    0  0.00000000000E+00  0.14210854715E-13 -0.34923992695E+03  0.57437307305E+03  0.45599989087E+03 0.  0.
      99925    2    3    3    0    0 -0.19897264010E+02 -0.11236646362E+03 -0.22067793708E+03  0.36177529179E+03  0.26298381428E+03 0.  0.
         25    1    4    4    0    0 -0.89652246019E+01 -0.17446260502E+02 -0.74202522912E+02  0.14675922378E+03  0.12509000000E+03 0.  0.
         25    1    3    3    0    0  0.19897264010E+02  0.11236646362E+03 -0.12856198987E+03  0.21259778127E+03  0.12509000000E+03 0.  0.
         25    1    4    4    0    0 -0.10932039408E+02 -0.94920203117E+02 -0.14647541417E+03  0.21501606801E+03  0.12509000000E+03 0.  0.
<mgrwt>
<rscale>  2 0.45599989E+03</rscale>
<asrwt>0</asrwt>
<pdfrwt beam="1">  1       21 0.16553908E-01 0.45599989E+03</pdfrwt>
<pdfrwt beam="2">  1       21 0.67912720E-01 0.45599989E+03</pdfrwt>
<totfact> 0.59809803E+04</totfact>
</mgrwt>
</event>
<event>
 7    0  0.4770865E-002  0.4670095E+03  0.7546771E-02  0.1022768E+00
         21   -1    0    0  502  501  0.00000000000E+00  0.00000000000E+00  0.10126044598E+03  0.10126044598E+03  0.00000000000E+00 0. -1.
         21   -1    0    0  501  502 -0.00000000000E+00 -0.00000000000E+00 -0.53845766583E+03  0.53845766583E+03  0.00000000000E+00 0. -1.
      99926    2    1    2    0    0  0.14210854715E-13  0.14210854715E-13 -0.43719721985E+03  0.63971811181E+03  0.46700947907E+03 0.  0.
      99925    2    3    3    0    0 -0.71666989811E+02 -0.82120366847E+02 -0.35364380679E+03  0.45395322543E+03  0.26292523028E+03 0.  0.
         25    1    4    4    0    0 -0.42410687972E+02 -0.12133619007E+02 -0.12340768638E+03  0.18117079323E+03  0.12509000000E+03 0.  0.
         25    1    3    3    0    0  0.71666989811E+02  0.82120366847E+02 -0.83553413058E+02  0.18576488638E+03  0.12509000000E+03 0.  0.
         25    1    4    4    0    0 -0.29256301839E+02 -0.69986747840E+02 -0.23023612041E+03  0.27278243219E+03  0.12509000000E+03 0.  0.
<mgrwt>
<rscale>  2 0.46700948E+03</rscale>
<asrwt>0</asrwt>
<pdfrwt beam="1">  1       21 0.14891242E-01 0.46700948E+03</pdfrwt>
<pdfrwt beam="2">  1       21 0.79184953E-01 0.46700948E+03</pdfrwt>
<totfact> 0.51263305E+04</totfact>
</mgrwt>
</event>
<event>
 7    0  0.4770865E-002  0.4524964E+03  0.7546771E-02  0.1026980E+00
         21   -1    0    0  502  501  0.00000000000E+00  0.00000000000E+00  0.54817682505E+03  0.54817682505E+03  0.00000000000E+00 0. -1.
         21   -1    0    0  501  502 -0.00000000000E+00 -0.00000000000E+00 -0.93379086058E+02  0.93379086058E+02  0.00000000000E+00 0. -1.
      99926    2    1    2    0    0 -0.35527136788E-14  0.00000000000E+00  0.45479773900E+03  0.64155591111E+03  0.45249641290E+03 0.  0.
      99925    2    3    3    0    0 -0.17162441424E+02  0.76802560690E+02  0.39743581134E+03  0.48302805372E+03  0.26299751676E+03 0.  0.
         25    1    4    4    0    0  0.31036026402E+02  0.29321204468E+02  0.19883874776E+03  0.23876206499E+03  0.12509000000E+03 0.  0.
         25    1    3    3    0    0  0.17162441424E+02 -0.76802560690E+02  0.57361927652E+02  0.15852785739E+03  0.12509000000E+03 0.  0.
         25    1    4    4    0    0 -0.48198467827E+02  0.47481356222E+02  0.19859706358E+03  0.24426598874E+03  0.12509000000E+03 0.  0.
<mgrwt>
<rscale>  2 0.45249641E+03</rscale>
<asrwt>0</asrwt>
<pdfrwt beam="1">  1       21 0.80614237E-01 0.45249641E+03</pdfrwt>
<pdfrwt beam="2">  1       21 0.13732219E-01 0.45249641E+03</pdfrwt>
<totfact> 0.57314518E+04</totfact>
</mgrwt>
</event>
<event>
 7    0  0.4770865E-002  0.4552112E+03  0.7546771E-02  0.1026179E+00
         21   -1    0    0  502  501  0.00000000000E+00  0.00000000000E+00  0.38194498784E+03  0.38194498784E+03  0.00000000000E+00 0.  1.
         21   -1    0    0  501  502 -0.00000000000E+00 -0.00000000000E+00 -0.13563292679E+03  0.13563292679E+03  0.00000000000E+00 0.  1.
      99926    2    1    2    0    0  0.00000000000E+00  0.00000000000E+00  0.24631206106E+03  0.51757791463E+03  0.45521123261E+03 0.  0.
      99925    2    3    3    0    0 -0.44264146364E+02 -0.10375545763E+03  0.14143193351E+03  0.31915448130E+03  0.26292980332E+03 0.  0.
         25    1    4    4    0    0 -0.51504923775E+01 -0.90273660184E+02  0.77097655532E+02  0.17253236764E+03  0.12509000000E+03 0.  0.
         25    1    4    4    0    0 -0.39113653986E+02 -0.13481797447E+02  0.64334277982E+02  0.14662211366E+03  0.12509000000E+03 0.  0.
         25    1    3    3    0    0  0.44264146364E+02  0.10375545763E+03  0.10488012754E+03  0.19842343333E+03  0.12509000000E+03 0.  0.
<mgrwt>
<rscale>  2 0.45521123E+03</rscale>
<asrwt>0</asrwt>
<pdfrwt beam="1">  1       21 0.56168380E-01 0.45521123E+03</pdfrwt>
<pdfrwt beam="2">  1       21 0.19946019E-01 0.45521123E+03</pdfrwt>
<totfact> 0.63945353E+04</totfact>
</mgrwt>
</event>
<event>
 7    0  0.4770865E-002  0.4223182E+03  0.7546771E-02  0.1036314E+00
         21   -1    0    0  502  501  0.00000000000E+00  0.00000000000E+00  0.11819646652E+03  0.11819646652E+03  0.00000000000E+00 0. -1.
         21   -1    0    0  501  502 -0.00000000000E+00 -0.00000000000E+00 -0.37723775228E+03  0.37723775228E+03  0.00000000000E+00 0. -1.
      99926    2    1    2    0    0  0.00000000000E+00  0.00000000000E+00 -0.25904128576E+03  0.49543421879E+03  0.42231821820E+03 0.  0.
      99925    2    3    3    0    0  0.56263495151E+02 -0.27531879972E+02 -0.22486876831E+03  0.35142430820E+03  0.26269658568E+03 0.  0.
         25    1    4    4    0    0  0.56469973195E+02 -0.35965974992E+02 -0.14445642091E+03  0.20247857880E+03  0.12509000000E+03 0.  0.
         25    1    4    4    0    0 -0.20647804417E+00  0.84340950200E+01 -0.80412347401E+02  0.14894572940E+03  0.12509000000E+03 0.  0.
         25    1    3    3    0    0 -0.56263495151E+02  0.27531879972E+02 -0.34172517450E+02  0.14400991060E+03  0.12509000000E+03 0.  0.
<mgrwt>
<rscale>  2 0.42231822E+03</rscale>
<asrwt>0</asrwt>
<pdfrwt beam="1">  1       21 0.17381833E-01 0.42231822E+03</pdfrwt>
<pdfrwt beam="2">  1       21 0.55476140E-01 0.42231822E+03</pdfrwt>
<totfact> 0.85759633E+04</totfact>
</mgrwt>
</event>
<event>
 7    0  0.4770865E-002  0.4587805E+03  0.7546771E-02  0.1025135E+00
         21   -1    0    0  502  501  0.00000000000E+00  0.00000000000E+00  0.92348525871E+03  0.92348525871E+03  0.00000000000E+00 0.  1.
         21   -1    0    0  501  502 -0.00000000000E+00 -0.00000000000E+00 -0.56979672641E+02  0.56979672641E+02  0.00000000000E+00 0.  1.
      99926    2    1    2    0    0  0.00000000000E+00  0.00000000000E+00  0.86650558607E+03  0.98046493136E+03  0.45878050408E+03 0.  0.
      99925    2    3    3    0    0  0.11157653959E+03 -0.33412828163E+02  0.55715887428E+03  0.62704077051E+03  0.26303683282E+03 0.  0.
         25    1    4    4    0    0  0.31576645070E+02 -0.78880380455E+01  0.18630882550E+03  0.22675491663E+03  0.12509000000E+03 0.  0.
         25    1    4    4    0    0  0.79999894517E+02 -0.25524790117E+02  0.37085004877E+03  0.40028585387E+03  0.12509000000E+03 0.  0.
         25    1    3    3    0    0 -0.11157653959E+03  0.33412828163E+02  0.30934671180E+03  0.35342416085E+03  0.12509000000E+03 0.  0.
<mgrwt>
<rscale>  2 0.45878050E+03</rscale>
<asrwt>0</asrwt>
<pdfrwt beam="1">  1       21 0.13580665E+00 0.45878050E+03</pdfrwt>
<pdfrwt beam="2">  1       21 0.83793642E-02 0.45878050E+03</pdfrwt>
<totfact> 0.38772503E+04</totfact>
</mgrwt>
</event>
<event>
 7    0  0.4770865E-002  0.4546798E+03  0.7546771E-02  0.1026336E+00
         21   -1    0    0  502  501  0.00000000000E+00  0.00000000000E+00  0.22117109954E+03  0.22117109954E+03  0.00000000000E+00 0.  1.
         21   -1    0    0  501  502 -0.00000000000E+00 -0.00000000000E+00 -0.23368074522E+03  0.23368074522E+03  0.00000000000E+00 0.  1.
      99926    2    1    2    0    0  0.14210854715E-13  0.17763568394E-14 -0.12509645676E+02  0.45485184477E+03  0.45467978782E+03 0.  0.
      99925    2    3    3    0    0 -0.87292170872E+02 -0.15279916009E+02  0.62032888869E+02  0.28438924920E+03  0.26301286439E+03 0.  0.
         25    1    4    4    0    0 -0.54857645237E+02 -0.43241872028E+02  0.14994717636E+02  0.14405405372E+03  0.12509000000E+03 0.  0.
         25    1    4    4    0    0 -0.32434525636E+02  0.27961956019E+02  0.47038171234E+02  0.14033519548E+03  0.12509000000E+03 0.  0.
         25    1    3    3    0    0  0.87292170872E+02  0.15279916009E+02 -0.74542534546E+02  0.17046259556E+03  0.12509000000E+03 0.  0.
<mgrwt>
<rscale>  2 0.45467979E+03</rscale>
<asrwt>0</asrwt>
<pdfrwt beam="1">  1       21 0.32525162E-01 0.45467979E+03</pdfrwt>
<pdfrwt beam="2">  1       21 0.34364815E-01 0.45467979E+03</pdfrwt>
<totfact> 0.68732095E+04</totfact>
</mgrwt>
</event>
<event>
 7    0  0.4770865E-002  0.4545475E+03  0.7546771E-02  0.1026375E+00
         21   -1    0    0  502  501  0.00000000000E+00  0.00000000000E+00  0.25208240917E+03  0.25208240917E+03  0.00000000000E+00 0.  1.
         21   -1    0    0  501  502 -0.00000000000E+00 -0.00000000000E+00 -0.20490660861E+03  0.20490660861E+03  0.00000000000E+00 0.  1.
      99926    2    1    2    0    0 -0.35527136788E-14  0.00000000000E+00  0.47175800561E+02  0.45698901778E+03  0.45454747410E+03 0.  0.
      99925    2    3    3    0    0  0.24488569927E+02 -0.44175956967E+02 -0.71631703962E+02  0.27722824213E+03  0.26300796944E+03 0.  0.
         25    1    3    3    0    0 -0.24488569927E+02  0.44175956967E+02  0.11880750452E+03  0.17976077565E+03  0.12509000000E+03 0.  0.
         25    1    4    4    0    0  0.19239775756E+01 -0.43578643092E+02 -0.24269712270E+01  0.13249980420E+03  0.12509000000E+03 0.  0.
         25    1    4    4    0    0  0.22564592351E+02 -0.59731387505E+00 -0.69204732735E+02  0.14472843793E+03  0.12509000000E+03 0.  0.
<mgrwt>
<rscale>  2 0.45454747E+03</rscale>
<asrwt>0</asrwt>
<pdfrwt beam="1">  1       21 0.37070943E-01 0.45454747E+03</pdfrwt>
<pdfrwt beam="2">  1       21 0.30133325E-01 0.45454747E+03</pdfrwt>
<totfact> 0.68647818E+04</totfact>
</mgrwt>
</event>
<event>
 7    0  0.4770865E-002  0.4438086E+03  0.7546771E-02  0.1029585E+00
         21   -1    0    0  502  501  0.00000000000E+00  0.00000000000E+00  0.11286905305E+03  0.11286905305E+03  0.00000000000E+00 0. -1.
         21   -1    0    0  501  502 -0.00000000000E+00 -0.00000000000E+00 -0.43627125794E+03  0.43627125794E+03  0.00000000000E+00 0. -1.
      99926    2    1    2    0    0  0.00000000000E+00 -0.71054273576E-14 -0.32340220490E+03  0.54914031099E+03  0.44380862432E+03 0.  0.
      99925    2    3    3    0    0 -0.64443107564E+02  0.54908386645E+02 -0.27677505774E+03  0.39105981255E+03  0.26297433214E+03 0.  0.
         25    1    3    3    0    0  0.64443107564E+02 -0.54908386645E+02 -0.46627147153E+02  0.15808049844E+03  0.12509000000E+03 0.  0.
         25    1    4    4    0    0 -0.89200329295E+01  0.74049835581E+01 -0.16861410767E+03  0.21026798657E+03  0.12509000000E+03 0.  0.
         25    1    4    4    0    0 -0.55523074634E+02  0.47503403087E+02 -0.10816095007E+03  0.18079182598E+03  0.12509000000E+03 0.  0.
<mgrwt>
<rscale>  2 0.44380862E+03</rscale>
<asrwt>0</asrwt>
<pdfrwt beam="1">  1       21 0.16598390E-01 0.44380862E+03</pdfrwt>
<pdfrwt beam="2">  1       21 0.64157538E-01 0.44380862E+03</pdfrwt>
<totfact> 0.67723727E+04</totfact>
</mgrwt>
</event>
<event>
 7    0  0.4770865E-002  0.4571053E+03  0.7546771E-02  0.1025624E+00
         21   -1    0    0  502  501  0.00000000000E+00  0.00000000000E+00  0.11737463429E+04  0.11737463429E+04  0.00000000000E+00 0. -1.
         21   -1    0    0  501  502 -0.00000000000E+00 -0.00000000000E+00 -0.44503925540E+02  0.44503925540E+02  0.00000000000E+00 0. -1.
      99926    2    1    2    0    0 -0.71054273576E-14 -0.14210854715E-13  0.11292424174E+04  0.12182502684E+04  0.45710532636E+03 0.  0.
      99925    2    3    3    0    0  0.48704400707E+02  0.79937697411E+02  0.88798987567E+03  0.93082645056E+03  0.26296331997E+03 0.  0.
         25    1    4    4    0    0  0.31168731097E+02  0.69125137051E+02  0.57066870556E+03  0.58911803060E+03  0.12509000000E+03 0.  0.
         25    1    3    3    0    0 -0.48704400707E+02 -0.79937697411E+02  0.24125254169E+03  0.28742381789E+03  0.12509000000E+03 0.  0.
         25    1    4    4    0    0  0.17535669610E+02  0.10812560360E+02  0.31732117011E+03  0.34170841996E+03  0.12509000000E+03 0.  0.
<mgrwt>
<rscale>  2 0.45710533E+03</rscale>
<asrwt>0</asrwt>
<pdfrwt beam="1">  1       21 0.17260974E+00 0.45710533E+03</pdfrwt>
<pdfrwt beam="2">  1       21 0.65446957E-02 0.45710533E+03</pdfrwt>
<totfact> 0.31070194E+04</totfact>
</mgrwt>
</event>
<event>
 7    0  0.4770865E-002  0.4536221E+03  0.7546771E-02  0.1026647E+00
         21   -1    0    0  502  501  0.00000000000E+00  0.00000000000E+00  0.29890755414E+03  0.29890755414E+03  0.00000000000E+00 0.  1.
         21   -1    0    0  501  502 -0.00000000000E+00 -0.00000000000E+00 -0.17210423939E+03  0.17210423939E+03  0.00000000000E+00 0.  1.
      99926    2    1    2    0    0 -0.35527136788E-14 -0.14210854715E-13  0.12680331475E+03  0.47101179353E+03  0.45362212139E+03 0.  0.
      99925    2    3    3    0    0  0.29750183701E+02  0.90043241565E+02  0.14148222565E+03  0.31335445210E+03  0.26302268665E+03 0.  0.
         25    1    4    4    0    0 -0.42923134521E+01  0.22900827846E+02  0.32952687494E+02  0.13143918588E+03  0.12509000000E+03 0.  0.
         25    1    4    4    0    0  0.34042497153E+02  0.67142413720E+02  0.10852953815E+03  0.18191526622E+03  0.12509000000E+03 0.  0.
         25    1    3    3    0    0 -0.29750183701E+02 -0.90043241565E+02 -0.14678910900E+02  0.15765734143E+03  0.12509000000E+03 0.  0.
<mgrwt>
<rscale>  2 0.45362212E+03</rscale>
<asrwt>0</asrwt>
<pdfrwt beam="1">  1       21 0.43956993E-01 0.45362212E+03</pdfrwt>
<pdfrwt beam="2">  1       21 0.25309447E-01 0.45362212E+03</pdfrwt>
<totfact> 0.68101994E+04</totfact>
</mgrwt>
</event>
<event>
 7    0  0.4770865E-002  0.4137404E+03  0.7546771E-02  0.1039123E+00
         21   -1    0    0  502  501  0.00000000000E+00  0.00000000000E+00  0.54705642733E+03  0.54705642733E+03  0.00000000000E+00 0. -1.
         21   -1    0    0  501  502 -0.00000000000E+00 -0.00000000000E+00 -0.78228280051E+02  0.78228280051E+02  0.00000000000E+00 0. -1.
      99926    2    1    2    0    0  0.17763568394E-14  0.71054273576E-14  0.46882814728E+03  0.62528470738E+03  0.41374041814E+03 0.  0.
      99925    2    3    3    0    0  0.11095397329E+02  0.51474591296E+02  0.37162104221E+03  0.45834318838E+03  0.26306565326E+03 0.  0.
         25    1    3    3    0    0 -0.11095397329E+02 -0.51474591296E+02  0.97207105065E+02  0.16694151900E+03  0.12509000000E+03 0.  0.
         25    1    4    4    0    0  0.11498037842E+02 -0.78061914923E+01  0.13786423050E+03  0.18667403582E+03  0.12509000000E+03 0.  0.
         25    1    4    4    0    0 -0.40264051271E+00  0.59280782788E+02  0.23375681171E+03  0.27166915255E+03  0.12509000000E+03 0.  0.
<mgrwt>
<rscale>  2 0.41374042E+03</rscale>
<asrwt>0</asrwt>
<pdfrwt beam="1">  1       21 0.80449472E-01 0.41374042E+03</pdfrwt>
<pdfrwt beam="2">  1       21 0.11504159E-01 0.41374042E+03</pdfrwt>
<totfact> 0.80254565E+04</totfact>
</mgrwt>
</event>
<event>
 7    0  0.4770865E-002  0.4576328E+03  0.7546771E-02  0.1025470E+00
         21   -1    0    0  502  501  0.00000000000E+00  0.00000000000E+00  0.38256446613E+03  0.38256446613E+03  0.00000000000E+00 0.  1.
         21   -1    0    0  501  502 -0.00000000000E+00 -0.00000000000E+00 -0.13685783853E+03  0.13685783853E+03  0.00000000000E+00 0.  1.
      99926    2    1    2    0    0  0.00000000000E+00 -0.17763568394E-14  0.24570662760E+03  0.51942230466E+03  0.45763280447E+03 0.  0.
      99925    2    3    3    0    0 -0.87229736109E+02 -0.12320838510E+02  0.69271146111E+02  0.28588897267E+03  0.26300795251E+03 0.  0.
         25    1    4    4    0    0 -0.83710808010E+02 -0.88547550449E+01  0.23499902680E+02  0.15259639442E+03  0.12509000000E+03 0.  0.
         25    1    4    4    0    0 -0.35189280989E+01 -0.34660834653E+01  0.45771243431E+02  0.13329257824E+03  0.12509000000E+03 0.  0.
         25    1    3    3    0    0  0.87229736109E+02  0.12320838510E+02  0.17643548149E+03  0.23353333200E+03  0.12509000000E+03 0.  0.
<mgrwt>
<rscale>  2 0.45763280E+03</rscale>
<asrwt>0</asrwt>
<pdfrwt beam="1">  1       21 0.56259480E-01 0.45763280E+03</pdfrwt>
<pdfrwt beam="2">  1       21 0.20126153E-01 0.45763280E+03</pdfrwt>
<totfact> 0.62608525E+04</totfact>
</mgrwt>
</event>
<event>
 7    0  0.4770865E-002  0.4759520E+03  0.7546771E-02  0.1020254E+00
         21   -1    0    0  502  501  0.00000000000E+00  0.00000000000E+00  0.29321921627E+03  0.29321921627E+03  0.00000000000E+00 0. -1.
         21   -1    0    0  501  502 -0.00000000000E+00 -0.00000000000E+00 -0.19314073681E+03  0.19314073681E+03  0.00000000000E+00 0. -1.
      99926    2    1    2    0    0  0.00000000000E+00  0.71054273576E-14  0.10007847946E+03  0.48635995308E+03  0.47595199538E+03 0.  0.
      99925    2    3    3    0    0  0.11152778377E+03  0.40817572846E+02  0.12035698061E+03  0.31268425957E+03  0.26302304575E+03 0.  0.
         25    1    4    4    0    0  0.83826732028E+02  0.46073582884E+02  0.44247247455E+02  0.16356962753E+03  0.12509000000E+03 0.  0.
         25    1    3    3    0    0 -0.11152778377E+03 -0.40817572846E+02 -0.20278501153E+02  0.17367569351E+03  0.12509000000E+03 0.  0.
         25    1    4    4    0    0  0.27701051741E+02 -0.52560100377E+01  0.76109733158E+02  0.14911463205E+03  0.12509000000E+03 0.  0.
<mgrwt>
<rscale>  2 0.47595200E+03</rscale>
<asrwt>0</asrwt>
<pdfrwt beam="1">  1       21 0.43120473E-01 0.47595200E+03</pdfrwt>
<pdfrwt beam="2">  1       21 0.28403049E-01 0.47595200E+03</pdfrwt>
<totfact> 0.56279701E+04</totfact>
</mgrwt>
</event>
<event>
 7    0  0.4770865E-002  0.4554610E+03  0.7546771E-02  0.1026106E+00
         21   -1    0    0  502  501  0.00000000000E+00  0.00000000000E+00  0.54559510934E+02  0.54559510934E+02  0.00000000000E+00 0.  1.
         21   -1    0    0  501  502 -0.00000000000E+00 -0.00000000000E+00 -0.95054331255E+03  0.95054331255E+03  0.00000000000E+00 0.  1.
      99926    2    1    2    0    0  0.35527136788E-14  0.00000000000E+00 -0.89598380162E+03  0.10051028235E+04  0.45546098957E+03 0.  0.
      99925    2    3    3    0    0  0.31585379548E+02  0.86406444786E+02 -0.71111097754E+03  0.76367130300E+03  0.26277619137E+03 0.  0.
         25    1    4    4    0    0  0.16942105018E+02  0.51784055995E+02 -0.25476502293E+03  0.28900060274E+03  0.12509000000E+03 0.  0.
         25    1    4    4    0    0  0.14643274530E+02  0.34622388791E+02 -0.45634595461E+03  0.47467070025E+03  0.12509000000E+03 0.  0.
         25    1    3    3    0    0 -0.31585379548E+02 -0.86406444786E+02 -0.18487282408E+03  0.24143152049E+03  0.12509000000E+03 0.  0.
<mgrwt>
<rscale>  2 0.45546099E+03</rscale>
<asrwt>0</asrwt>
<pdfrwt beam="1">  1       21 0.80234580E-02 0.45546099E+03</pdfrwt>
<pdfrwt beam="2">  1       21 0.13978577E+00 0.45546099E+03</pdfrwt>
<totfact> 0.38828931E+04</totfact>
</mgrwt>
</event>
<event>
 7    0  0.4770865E-002  0.4549300E+03  0.7546771E-02  0.1026262E+00
         21   -1    0    0  502  501  0.00000000000E+00  0.00000000000E+00  0.44396847979E+03  0.44396847979E+03  0.00000000000E+00 0. -1.
         21   -1    0    0  501  502 -0.00000000000E+00 -0.00000000000E+00 -0.11654053038E+03  0.11654053038E+03  0.00000000000E+00 0. -1.
      99926    2    1    2    0    0  0.00000000000E+00  0.00000000000E+00  0.32742794941E+03  0.56050901017E+03  0.45492998190E+03 0.  0.
      99925    2    3    3    0    0 -0.31113808252E+02  0.84665094511E+02  0.29016171734E+03  0.40185048552E+03  0.26297099310E+03 0.  0.
         25    1    3    3    0    0  0.31113808252E+02 -0.84665094511E+02  0.37266232070E+02  0.15865852465E+03  0.12509000000E+03 0.  0.
         25    1    4    4    0    0 -0.16872962138E+02  0.28153223285E+02  0.85581604484E+02  0.15507746438E+03  0.12509000000E+03 0.  0.
         25    1    4    4    0    0 -0.14240846114E+02  0.56511871226E+02  0.20458011285E+03  0.24677302114E+03  0.12509000000E+03 0.  0.
<mgrwt>
<rscale>  2 0.45492998E+03</rscale>
<asrwt>0</asrwt>
<pdfrwt beam="1">  1       21 0.65289481E-01 0.45492998E+03</pdfrwt>
<pdfrwt beam="2">  1       21 0.17138314E-01 0.45492998E+03</pdfrwt>
<totfact> 0.61211258E+04</totfact>
</mgrwt>
</event>
<event>
 7    0  0.4770865E-002  0.4558355E+03  0.7546771E-02  0.1025996E+00
         21   -1    0    0  502  501  0.00000000000E+00  0.00000000000E+00  0.27528145089E+03  0.27528145089E+03  0.00000000000E+00 0. -1.
         21   -1    0    0  501  502 -0.00000000000E+00 -0.00000000000E+00 -0.18870323853E+03  0.18870323853E+03  0.00000000000E+00 0. -1.
      99926    2    1    2    0    0  0.00000000000E+00  0.00000000000E+00  0.86578212366E+02  0.46398468942E+03  0.45583550230E+03 0.  0.
      99925    2    3    3    0    0 -0.75654646709E+02  0.83420382459E+02  0.36897589604E+02  0.28849036428E+03  0.26302599184E+03 0.  0.
         25    1    3    3    0    0  0.75654646709E+02 -0.83420382459E+02  0.49680622762E+02  0.17549432514E+03  0.12509000000E+03 0.  0.
         25    1    4    4    0    0 -0.61935051501E+02  0.60867314309E+02 -0.92841179736E+01  0.15255977026E+03  0.12509000000E+03 0.  0.
         25    1    4    4    0    0 -0.13719595208E+02  0.22553068151E+02  0.46181707577E+02  0.13593059402E+03  0.12509000000E+03 0.  0.
<mgrwt>
<rscale>  2 0.45583550E+03</rscale>
<asrwt>0</asrwt>
<pdfrwt beam="1">  1       21 0.40482566E-01 0.45583550E+03</pdfrwt>
<pdfrwt beam="2">  1       21 0.27750476E-01 0.45583550E+03</pdfrwt>
<totfact> 0.67436604E+04</totfact>
</mgrwt>
</event>
<event>
 7    0  0.4770865E-002  0.4625792E+03  0.7546771E-02  0.1024036E+00
         21   -1    0    0  502  501  0.00000000000E+00  0.00000000000E+00  0.21187164727E+03  0.21187164727E+03  0.00000000000E+00 0.  1.
         21   -1    0    0  501  502 -0.00000000000E+00 -0.00000000000E+00 -0.25248716690E+03  0.25248716690E+03  0.00000000000E+00 0.  1.
      99926    2    1    2    0    0  0.00000000000E+00  0.00000000000E+00 -0.40615519628E+02  0.46435881417E+03  0.46257916930E+03 0.  0.
      99925    2    3    3    0    0  0.42662883871E+01  0.11191847462E+03  0.17930895026E+02  0.28654110711E+03  0.26313559791E+03 0.  0.
         25    1    4    4    0    0  0.46847133430E+01  0.95160467689E+02  0.28831045226E+02  0.15986306146E+03  0.12509000000E+03 0.  0.
         25    1    3    3    0    0 -0.42662883871E+01 -0.11191847462E+03 -0.58546414654E+02  0.17781770706E+03  0.12509000000E+03 0.  0.
         25    1    4    4    0    0 -0.41842495586E+00  0.16758006927E+02 -0.10900150201E+02  0.12667804565E+03  0.12509000000E+03 0.  0.
<mgrwt>
<rscale>  2 0.46257917E+03</rscale>
<asrwt>0</asrwt>
<pdfrwt beam="1">  1       21 0.31157596E-01 0.46257917E+03</pdfrwt>
<pdfrwt beam="2">  1       21 0.37130465E-01 0.46257917E+03</pdfrwt>
<totfact> 0.63912353E+04</totfact>
</mgrwt>
</event>
<event>
 7    0  0.4770865E-002  0.4554876E+03  0.7546771E-02  0.1026098E+00
         21   -1    0    0  502  501  0.00000000000E+00  0.00000000000E+00  0.80969487110E+02  0.80969487110E+02  0.00000000000E+00 0.  1.
         21   -1    0    0  501  502 -0.00000000000E+00 -0.00000000000E+00 -0.64057758539E+03  0.64057758539E+03  0.00000000000E+00 0.  1.
      99926    2    1    2    0    0  0.14210854715E-13  0.00000000000E+00 -0.55960809828E+03  0.72154707250E+03  0.45548760046E+03 0.  0.
      99925    2    3    3    0    0 -0.94477845188E+02 -0.28600088460E+02 -0.44111478555E+03  0.52297164211E+03  0.26300771117E+03 0.  0.
         25    1    4    4    0    0 -0.18756313419E+02  0.14109461191E+02 -0.22615329082E+03  0.25950663814E+03  0.12509000000E+03 0.  0.
         25    1    4    4    0    0 -0.75721531769E+02 -0.42709549651E+02 -0.21496149473E+03  0.26346500397E+03  0.12509000000E+03 0.  0.
         25    1    3    3    0    0  0.94477845188E+02  0.28600088460E+02 -0.11849331273E+03  0.19857543039E+03  0.12509000000E+03 0.  0.
<mgrwt>
<rscale>  2 0.45548760E+03</rscale>
<asrwt>0</asrwt>
<pdfrwt beam="1">  1       21 0.11907277E-01 0.45548760E+03</pdfrwt>
<pdfrwt beam="2">  1       21 0.94202586E-01 0.45548760E+03</pdfrwt>
<totfact> 0.51550711E+04</totfact>
</mgrwt>
</event>
<event>
 7    0  0.4770865E-002  0.4490589E+03  0.7546771E-02  0.1028003E+00
         21   -1    0    0  502  501  0.00000000000E+00  0.00000000000E+00  0.23205051674E+03  0.23205051674E+03  0.00000000000E+00 0.  1.
         21   -1    0    0  501  502 -0.00000000000E+00 -0.00000000000E+00 -0.21725217836E+03  0.21725217836E+03  0.00000000000E+00 0.  1.
      99926    2    1    2    0    0  0.00000000000E+00  0.00000000000E+00  0.14798338372E+02  0.44930269510E+03  0.44905892821E+03 0.  0.
      99925    2    3    3    0    0  0.98830975757E+02  0.34860576051E+02 -0.14531192553E+02  0.28349994779E+03  0.26301757224E+03 0.  0.
         25    1    3    3    0    0 -0.98830975757E+02 -0.34860576051E+02  0.29329530925E+02  0.16580274731E+03  0.12509000000E+03 0.  0.
         25    1    4    4    0    0  0.68801334444E+02 -0.10636353920E+02  0.14830398585E+02  0.14392430117E+03  0.12509000000E+03 0.  0.
         25    1    4    4    0    0  0.30029641313E+02  0.45496929972E+02 -0.29361591139E+02  0.13957564662E+03  0.12509000000E+03 0.  0.
<mgrwt>
<rscale>  2 0.44905893E+03</rscale>
<asrwt>0</asrwt>
<pdfrwt beam="1">  1       21 0.34125076E-01 0.44905893E+03</pdfrwt>
<pdfrwt beam="2">  1       21 0.31948850E-01 0.44905893E+03</pdfrwt>
<totfact> 0.72333744E+04</totfact>
</mgrwt>
</event>
<event>
 7    0  0.4770865E-002  0.4534143E+03  0.7546771E-02  0.1026709E+00
         21   -1    0    0  502  501  0.00000000000E+00  0.00000000000E+00  0.16941272137E+04  0.16941272137E+04  0.00000000000E+00 0.  1.
         21   -1    0    0  501  502 -0.00000000000E+00 -0.00000000000E+00 -0.30337820382E+02  0.30337820382E+02  0.00000000000E+00 0.  1.
      99926    2    1    2    0    0  0.35527136788E-14  0.35527136788E-14  0.16637893933E+04  0.17244650341E+04  0.45341427905E+03 0.  0.
      99925    2    3    3    0    0 -0.18805562011E+02  0.28363771251E+02  0.64392140874E+03  0.69639092841E+03  0.26299694268E+03 0.  0.
         25    1    4    4    0    0  0.23800465185E+02  0.27304543654E+01  0.25922457277E+03  0.28882313750E+03  0.12509000000E+03 0.  0.
         25    1    3    3    0    0  0.18805562011E+02 -0.28363771251E+02  0.10198679846E+04  0.10280741057E+04  0.12509000000E+03 0.  0.
         25    1    4    4    0    0 -0.42606027196E+02  0.25633316886E+02  0.38469683596E+03  0.40756779091E+03  0.12509000000E+03 0.  0.
<mgrwt>
<rscale>  2 0.45341428E+03</rscale>
<asrwt>0</asrwt>
<pdfrwt beam="1">  1       21 0.24913629E+00 0.45341428E+03</pdfrwt>
<pdfrwt beam="2">  1       21 0.44614453E-02 0.45341428E+03</pdfrwt>
<totfact> 0.18989739E+04</totfact>
</mgrwt>
</event>
<event>
 7    0  0.4770865E-002  0.4524338E+03  0.7546771E-02  0.1026999E+00
         21   -1    0    0  502  501  0.00000000000E+00  0.00000000000E+00  0.10375026031E+04  0.10375026031E+04  0.00000000000E+00 0. -1.
         21   -1    0    0  501  502 -0.00000000000E+00 -0.00000000000E+00 -0.49324285998E+02  0.49324285998E+02  0.00000000000E+00 0. -1.
      99926    2    1    2    0    0  0.00000000000E+00 -0.14210854715E-13  0.98817831706E+03  0.10868268891E+04  0.45243375257E+03 0.  0.
      99925    2    3    3    0    0 -0.54504232469E+02 -0.95561482597E+02  0.59691353582E+03  0.66157596848E+03  0.26320008456E+03 0.  0.
         25    1    4    4    0    0 -0.38242082280E+02 -0.60335767169E+02  0.22387758665E+03  0.26621709855E+03  0.12509000000E+03 0.  0.
         25    1    4    4    0    0 -0.16262150189E+02 -0.35225715428E+02  0.37303594918E+03  0.39535886993E+03  0.12509000000E+03 0.  0.
         25    1    3    3    0    0  0.54504232469E+02  0.95561482597E+02  0.39126478124E+03  0.42525092058E+03  0.12509000000E+03 0.  0.
<mgrwt>
<rscale>  2 0.45243375E+03</rscale>
<asrwt>0</asrwt>
<pdfrwt beam="1">  1       21 0.15257390E+00 0.45243375E+03</pdfrwt>
<pdfrwt beam="2">  1       21 0.72535721E-02 0.45243375E+03</pdfrwt>
<totfact> 0.36683388E+04</totfact>
</mgrwt>
</event>
<event>
 7    0  0.4770865E-002  0.4465566E+03  0.7546771E-02  0.1028754E+00
         21   -1    0    0  502  501  0.00000000000E+00  0.00000000000E+00  0.10263109805E+03  0.10263109805E+03  0.00000000000E+00 0. -1.
         21   -1    0    0  501  502 -0.00000000000E+00 -0.00000000000E+00 -0.48575145243E+03  0.48575145243E+03  0.00000000000E+00 0. -1.
      99926    2    1    2    0    0  0.35527136788E-14  0.35527136788E-14 -0.38312035438E+03  0.58838255048E+03  0.44655662549E+03 0.  0.
      99925    2    3    3    0    0 -0.23086278333E+02  0.58827678629E+01 -0.10832858724E+03  0.28552019463E+03  0.26309525940E+03 0.  0.
         25    1    4    4    0    0 -0.23553022777E+02  0.41666031368E+02 -0.59416463975E+02  0.14652176406E+03  0.12509000000E+03 0.  0.
         25    1    3    3    0    0  0.23086278333E+02 -0.58827678629E+01 -0.27479176714E+03  0.30286235585E+03  0.12509000000E+03 0.  0.
         25    1    4    4    0    0  0.46674444446E+00 -0.35783263505E+02 -0.48912123267E+02  0.13899843057E+03  0.12509000000E+03 0.  0.
<mgrwt>
<rscale>  2 0.44655663E+03</rscale>
<asrwt>0</asrwt>
<pdfrwt beam="1">  1       21 0.15092809E-01 0.44655663E+03</pdfrwt>
<pdfrwt beam="2">  1       21 0.71434037E-01 0.44655663E+03</pdfrwt>
<totfact> 0.63533965E+04</totfact>
</mgrwt>
</event>
<event>
 7    0  0.4770865E-002  0.4181062E+03  0.7546771E-02  0.1037684E+00
         21   -1    0    0  502  501  0.00000000000E+00  0.00000000000E+00  0.25684597088E+03  0.25684597088E+03  0.00000000000E+00 0.  1.
         21   -1    0    0  501  502 -0.00000000000E+00 -0.00000000000E+00 -0.17015336677E+03  0.17015336677E+03  0.00000000000E+00 0.  1.
      99926    2    1    2    0    0  0.00000000000E+00  0.00000000000E+00  0.86692604112E+02  0.42699933765E+03  0.41810623859E+03 0.  0.
      99925    2    3    3    0    0  0.17571196757E+02  0.46724640943E+02  0.14322431147E+01  0.26759803188E+03  0.26289677883E+03 0.  0.
         25    1    4    4    0    0  0.22434195389E+02  0.33259442773E+02  0.37525001219E+02  0.13662034063E+03  0.12509000000E+03 0.  0.
         25    1    3    3    0    0 -0.17571196757E+02 -0.46724640943E+02  0.85260360998E+02  0.15940130578E+03  0.12509000000E+03 0.  0.
         25    1    4    4    0    0 -0.48629986320E+01  0.13465198169E+02 -0.36092758104E+02  0.13097769125E+03  0.12509000000E+03 0.  0.
<mgrwt>
<rscale>  2 0.41810624E+03</rscale>
<asrwt>0</asrwt>
<pdfrwt beam="1">  1       21 0.37771466E-01 0.41810624E+03</pdfrwt>
<pdfrwt beam="2">  1       21 0.25022554E-01 0.41810624E+03</pdfrwt>
<totfact> 0.95903269E+04</totfact>
</mgrwt>
</event>
<event>
 7    0  0.4770865E-002  0.4510347E+03  0.7546771E-02  0.1027414E+00
         21   -1    0    0  502  501  0.00000000000E+00  0.00000000000E+00  0.21156699235E+03  0.21156699235E+03  0.00000000000E+00 0.  1.
         21   -1    0    0  501  502 -0.00000000000E+00 -0.00000000000E+00 -0.24038755365E+03  0.24038755365E+03  0.00000000000E+00 0.  1.
      99926    2    1    2    0    0  0.00000000000E+00 -0.17763568394E-14 -0.28820561300E+02  0.45195454600E+03  0.45103468481E+03 0.  0.
      99925    2    3    3    0    0  0.81535005267E+02  0.10105482672E+02  0.54164489624E+02  0.28082855546E+03  0.26302244726E+03 0.  0.
         25    1    3    3    0    0 -0.81535005267E+02 -0.10105482672E+02 -0.82985050924E+02  0.17112599055E+03  0.12509000000E+03 0.  0.
         25    1    4    4    0    0  0.40465628141E+02  0.11887221180E+02 -0.13663176087E+02  0.13271384091E+03  0.12509000000E+03 0.  0.
         25    1    4    4    0    0  0.41069377126E+02 -0.17817385080E+01  0.67827665712E+02  0.14811471455E+03  0.12509000000E+03 0.  0.
<mgrwt>
<rscale>  2 0.45103468E+03</rscale>
<asrwt>0</asrwt>
<pdfrwt beam="1">  1       21 0.31112793E-01 0.45103468E+03</pdfrwt>
<pdfrwt beam="2">  1       21 0.35351111E-01 0.45103468E+03</pdfrwt>
<totfact> 0.70989050E+04</totfact>
</mgrwt>
</event>
<event>
 7    0  0.4770865E-002  0.4532657E+03  0.7546771E-02  0.1026753E+00
         21   -1    0    0  502  501  0.00000000000E+00  0.00000000000E+00  0.12842694032E+03  0.12842694032E+03  0.00000000000E+00 0.  1.
         21   -1    0    0  501  502 -0.00000000000E+00 -0.00000000000E+00 -0.39993517319E+03  0.39993517319E+03  0.00000000000E+00 0.  1.
      99926    2    1    2    0    0  0.00000000000E+00 -0.17763568394E-14 -0.27150823287E+03  0.52836211352E+03  0.45326570848E+03 0.  0.
      99925    2    3    3    0    0  0.11046729834E+03  0.11011717841E+02 -0.15816632358E+03  0.32632702143E+03  0.26296094210E+03 0.  0.
         25    1    4    4    0    0  0.91673722640E+02 -0.15980761796E+02 -0.92295983484E+02  0.18117812461E+03  0.12509000000E+03 0.  0.
         25    1    3    3    0    0 -0.11046729834E+03 -0.11011717841E+02 -0.11334190929E+03  0.20203509208E+03  0.12509000000E+03 0.  0.
         25    1    4    4    0    0  0.18793575697E+02  0.26992479637E+02 -0.65870340097E+02  0.14514889682E+03  0.12509000000E+03 0.  0.
<mgrwt>
<rscale>  2 0.45326571E+03</rscale>
<asrwt>0</asrwt>
<pdfrwt beam="1">  1       21 0.18886315E-01 0.45326571E+03</pdfrwt>
<pdfrwt beam="2">  1       21 0.58813996E-01 0.45326571E+03</pdfrwt>
<totfact> 0.64195464E+04</totfact>
</mgrwt>
</event>
<event>
 7    0  0.4770865E-002  0.4557488E+03  0.7546771E-02  0.1026021E+00
         21   -1    0    0  502  501  0.00000000000E+00  0.00000000000E+00  0.13928069131E+03  0.13928069131E+03  0.00000000000E+00 0. -1.
         21   -1    0    0  501  502 -0.00000000000E+00 -0.00000000000E+00 -0.37282084277E+03  0.37282084277E+03  0.00000000000E+00 0. -1.
      99926    2    1    2    0    0  0.14210854715E-13  0.71054273576E-14 -0.23354015146E+03  0.51210153408E+03  0.45574881114E+03 0.  0.
      99925    2    3    3    0    0  0.93444567657E+02  0.43225567552E+02 -0.20149944633E+03  0.34695174812E+03  0.26300789292E+03 0.  0.
         25    1    3    3    0    0 -0.93444567657E+02 -0.43225567552E+02 -0.32040705132E+02  0.16514978595E+03  0.12509000000E+03 0.  0.
         25    1    4    4    0    0  0.14609812991E+02  0.10270985605E+02 -0.60887016799E+02  0.14026288424E+03  0.12509000000E+03 0.  0.
         25    1    4    4    0    0  0.78834754666E+02  0.32954581946E+02 -0.14061242953E+03  0.20668886388E+03  0.12509000000E+03 0.  0.
<mgrwt>
<rscale>  2 0.45574881E+03</rscale>
<asrwt>0</asrwt>
<pdfrwt beam="1">  1       21 0.20482455E-01 0.45574881E+03</pdfrwt>
<pdfrwt beam="2">  1       21 0.54826593E-01 0.45574881E+03</pdfrwt>
<totfact> 0.64047135E+04</totfact>
</mgrwt>
</event>
<event>
 7    0  0.4770865E-002  0.4575974E+03  0.7546771E-02  0.1025480E+00
         21   -1    0    0  502  501  0.00000000000E+00  0.00000000000E+00  0.44292685174E+03  0.44292685174E+03  0.00000000000E+00 0. -1.
         21   -1    0    0  501  502 -0.00000000000E+00 -0.00000000000E+00 -0.11818848509E+03  0.11818848509E+03  0.00000000000E+00 0. -1.
      99926    2    1    2    0    0 -0.14210854715E-13  0.00000000000E+00  0.32473836665E+03  0.56111533683E+03  0.45759743711E+03 0.  0.
      99925    2    3    3    0    0  0.91189846491E+02 -0.65022108864E+02  0.23918655637E+03  0.37267414418E+03  0.26293030683E+03 0.  0.
         25    1    4    4    0    0  0.41025909467E+02  0.85808294159E+01  0.11909466322E+03  0.17772957769E+03  0.12509000000E+03 0.  0.
         25    1    3    3    0    0 -0.91189846491E+02  0.65022108864E+02  0.85551810278E+02  0.18844119265E+03  0.12509000000E+03 0.  0.
         25    1    4    4    0    0  0.50163937024E+02 -0.73602938280E+02  0.12009189316E+03  0.19494456649E+03  0.12509000000E+03 0.  0.
<mgrwt>
<rscale>  2 0.45759744E+03</rscale>
<asrwt>0</asrwt>
<pdfrwt beam="1">  1       21 0.65136301E-01 0.45759744E+03</pdfrwt>
<pdfrwt beam="2">  1       21 0.17380660E-01 0.45759744E+03</pdfrwt>
<totfact> 0.59897807E+04</totfact>
</mgrwt>
</event>
<event>
 7    0  0.4770865E-002  0.4572322E+03  0.7546771E-02  0.1025587E+00
         21   -1    0    0  502  501  0.00000000000E+00  0.00000000000E+00  0.49813036059E+03  0.49813036059E+03  0.00000000000E+00 0. -1.
         21   -1    0    0  501  502 -0.00000000000E+00 -0.00000000000E+00 -0.10492298325E+03  0.10492298325E+03  0.00000000000E+00 0. -1.
      99926    2    1    2    0    0  0.00000000000E+00 -0.35527136788E-14  0.39320737734E+03  0.60305334384E+03  0.45723221006E+03 0.  0.
      99925    2    3    3    0    0  0.52571419447E+02  0.24775282694E+02  0.37817551001E+03  0.46430524868E+03  0.26303056629E+03 0.  0.
         25    1    4    4    0    0  0.74940021322E+01 -0.20767222427E+02  0.20644410995E+03  0.24239248385E+03  0.12509000000E+03 0.  0.
         25    1    4    4    0    0  0.45077417315E+02  0.45542505121E+02  0.17173140006E+03  0.22191276483E+03  0.12509000000E+03 0.  0.
         25    1    3    3    0    0 -0.52571419447E+02 -0.24775282694E+02  0.15031867331E+02  0.13874809516E+03  0.12509000000E+03 0.  0.
<mgrwt>
<rscale>  2 0.45723221E+03</rscale>
<asrwt>0</asrwt>
<pdfrwt beam="1">  1       21 0.73254464E-01 0.45723221E+03</pdfrwt>
<pdfrwt beam="2">  1       21 0.15429851E-01 0.45723221E+03</pdfrwt>
<totfact> 0.57470451E+04</totfact>
</mgrwt>
</event>
<event>
 7    0  0.4770865E-002  0.4550842E+03  0.7546771E-02  0.1026217E+00
         21   -1    0    0  502  501  0.00000000000E+00  0.00000000000E+00  0.35641746537E+04  0.35641746537E+04  0.00000000000E+00 0.  1.
         21   -1    0    0  501  502 -0.00000000000E+00 -0.00000000000E+00 -0.14526620938E+02  0.14526620938E+02  0.00000000000E+00 0.  1.
      99926    2    1    2    0    0  0.00000000000E+00 -0.35527136788E-14  0.35496480328E+04  0.35787012746E+04  0.45508423023E+03 0.  0.
      99925    2    3    3    0    0 -0.57852384962E+02  0.24313526144E+02  0.29750967004E+04  0.29873513041E+04  0.26292468801E+03 0.  0.
         25    1    4    4    0    0 -0.10486853139E+02 -0.23341339508E+02  0.13066698070E+04  0.13128930972E+04  0.12509000000E+03 0.  0.
         25    1    4    4    0    0 -0.47365531823E+02  0.47654865653E+02  0.16684268934E+04  0.16744582069E+04  0.12509000000E+03 0.  0.
         25    1    3    3    0    0  0.57852384962E+02 -0.24313526144E+02  0.57455133239E+03  0.59134997053E+03  0.12509000000E+03 0.  0.
<mgrwt>
<rscale>  2 0.45508423E+03</rscale>
<asrwt>0</asrwt>
<pdfrwt beam="1">  1       21 0.52414273E+00 0.45508423E+03</pdfrwt>
<pdfrwt beam="2">  1       21 0.21362702E-02 0.45508423E+03</pdfrwt>
<totfact> 0.11000681E+03</totfact>
</mgrwt>
</event>
<event>
 7    0  0.4770865E-002  0.4523030E+03  0.7546771E-02  0.1027037E+00
         21   -1    0    0  502  501  0.00000000000E+00  0.00000000000E+00  0.49583058376E+03  0.49583058376E+03  0.00000000000E+00 0.  1.
         21   -1    0    0  501  502 -0.00000000000E+00 -0.00000000000E+00 -0.10314913866E+03  0.10314913866E+03  0.00000000000E+00 0.  1.
      99926    2    1    2    0    0  0.00000000000E+00  0.00000000000E+00  0.39268144510E+03  0.59897972241E+03  0.45230298533E+03 0.  0.
      99925    2    3    3    0    0 -0.32935292985E+02 -0.77872879029E+02  0.34216541762E+03  0.43976824059E+03  0.26300192700E+03 0.  0.
         25    1    3    3    0    0  0.32935292985E+02  0.77872879029E+02  0.50516027480E+02  0.15921148182E+03  0.12509000000E+03 0.  0.
         25    1    4    4    0    0 -0.85773461943E+01 -0.54407816947E+02  0.23391805623E+03  0.27092239949E+03  0.12509000000E+03 0.  0.
         25    1    4    4    0    0 -0.24357946791E+02 -0.23465062083E+02  0.10824736139E+03  0.16884584110E+03  0.12509000000E+03 0.  0.
<mgrwt>
<rscale>  2 0.45230299E+03</rscale>
<asrwt>0</asrwt>
<pdfrwt beam="1">  1       21 0.72916261E-01 0.45230299E+03</pdfrwt>
<pdfrwt beam="2">  1       21 0.15168991E-01 0.45230299E+03</pdfrwt>
<totfact> 0.60009742E+04</totfact>
</mgrwt>
</event>
<event>
 7    0  0.4770865E-002  0.4219020E+03  0.7546771E-02  0.1036449E+00
         21   -1    0    0  502  501  0.00000000000E+00  0.00000000000E+00  0.12917843697E+03  0.12917843697E+03  0.00000000000E+00 0. -1.
         21   -1    0    0  501  502 -0.00000000000E+00 -0.00000000000E+00 -0.34448732409E+03  0.34448732409E+03  0.00000000000E+00 0. -1.
      99926    2    1    2    0    0  0.00000000000E+00  0.00000000000E+00 -0.21530888712E+03  0.47366576106E+03  0.42190204589E+03 0.  0.
      99925    2    3    3    0    0 -0.70845471156E+02 -0.32666569292E+02 -0.15170769263E+03  0.31310796594E+03  0.26255511574E+03 0.  0.
         25    1    4    4    0    0 -0.57715488800E+02 -0.92280730901E+01 -0.41306900778E+02  0.14411801807E+03  0.12509000000E+03 0.  0.
         25    1    3    3    0    0  0.70845471156E+02  0.32666569292E+02 -0.63601194493E+02  0.16055779512E+03  0.12509000000E+03 0.  0.
         25    1    4    4    0    0 -0.13129982356E+02 -0.23438496202E+02 -0.11040079185E+03  0.16898994787E+03  0.12509000000E+03 0.  0.
<mgrwt>
<rscale>  2 0.42190205E+03</rscale>
<asrwt>0</asrwt>
<pdfrwt beam="1">  1       21 0.18996829E-01 0.42190205E+03</pdfrwt>
<pdfrwt beam="2">  1       21 0.50659899E-01 0.42190205E+03</pdfrwt>
<totfact> 0.88144009E+04</totfact>
</mgrwt>
</event>
<event>
 7    0  0.4770865E-002  0.4623169E+03  0.7546771E-02  0.1024111E+00
         21   -1    0    0  502  501  0.00000000000E+00  0.00000000000E+00  0.17049274798E+03  0.17049274798E+03  0.00000000000E+00 0.  1.
         21   -1    0    0  501  502 -0.00000000000E+00 -0.00000000000E+00 -0.31341063526E+03  0.31341063526E+03  0.00000000000E+00 0.  1.
      99926    2    1    2    0    0  0.00000000000E+00  0.88817841970E-15 -0.14291788728E+03  0.48390338324E+03  0.46231694951E+03 0.  0.
      99925    2    3    3    0    0  0.50866663894E+02 -0.53422312517E+01 -0.20286151847E+03  0.33606325354E+03  0.26300144063E+03 0.  0.
         25    1    3    3    0    0 -0.50866663894E+02  0.53422312517E+01  0.59943631190E+02  0.14784012970E+03  0.12509000000E+03 0.  0.
         25    1    4    4    0    0 -0.14259240372E+02  0.35765144693E+01 -0.10746903882E+03  0.16556938062E+03  0.12509000000E+03 0.  0.
         25    1    4    4    0    0  0.65125904266E+02 -0.89187457210E+01 -0.95392479644E+02  0.17049387292E+03  0.12509000000E+03 0.  0.
<mgrwt>
<rscale>  2 0.46231695E+03</rscale>
<asrwt>0</asrwt>
<pdfrwt beam="1">  1       21 0.25072463E-01 0.46231695E+03</pdfrwt>
<pdfrwt beam="2">  1       21 0.46089799E-01 0.46231695E+03</pdfrwt>
<totfact> 0.62695964E+04</totfact>
</mgrwt>
</event>
<event>
 7    0  0.4770865E-002  0.4595636E+03  0.7546771E-02  0.1024908E+00
         21   -1    0    0  502  501  0.00000000000E+00  0.00000000000E+00  0.10428745110E+03  0.10428745110E+03  0.00000000000E+00 0. -1.
         21   -1    0    0  501  502 -0.00000000000E+00 -0.00000000000E+00 -0.50628986074E+03  0.50628986074E+03  0.00000000000E+00 0. -1.
      99926    2    1    2    0    0  0.00000000000E+00  0.00000000000E+00 -0.40200240964E+03  0.61057731183E+03  0.45956361515E+03 0.  0.
      99925    2    3    3    0    0 -0.70446775167E+02  0.56295452183E+02 -0.35176630684E+03  0.44839500641E+03  0.26303349801E+03 0.  0.
         25    1    4    4    0    0 -0.54110507094E+02  0.66183921137E+02 -0.18966132237E+03  0.24274921977E+03  0.12509000000E+03 0.  0.
         25    1    3    3    0    0  0.70446775167E+02 -0.56295452183E+02 -0.50236102793E+02  0.16218230542E+03  0.12509000000E+03 0.  0.
         25    1    4    4    0    0 -0.16336268073E+02 -0.98884689537E+01 -0.16210498448E+03  0.20564578665E+03  0.12509000000E+03 0.  0.
<mgrwt>
<rscale>  2 0.45956362E+03</rscale>
<asrwt>0</asrwt>
<pdfrwt beam="1">  1       21 0.15336390E-01 0.45956362E+03</pdfrwt>
<pdfrwt beam="2">  1       21 0.74454391E-01 0.45956362E+03</pdfrwt>
<totfact> 0.55986237E+04</totfact>
</mgrwt>
</event>
<event>
 7    0  0.4770865E-002  0.4622822E+03  0.7546771E-02  0.1024121E+00
         21   -1    0    0  502  501  0.00000000000E+00  0.00000000000E+00  0.79212428617E+02  0.79212428617E+02  0.00000000000E+00 0. -1.
         21   -1    0    0  501  502 -0.00000000000E+00 -0.00000000000E+00 -0.67446749990E+03  0.67446749990E+03  0.00000000000E+00 0. -1.
      99926    2    1    2    0    0  0.00000000000E+00  0.14210854715E-13 -0.59525507128E+03  0.75367992852E+03  0.46228220252E+03 0.  0.
      99925    2    3    3    0    0 -0.76783092747E+02  0.90417596255E+02 -0.40095246469E+03  0.49392620656E+03  0.26292438749E+03 0.  0.
         25    1    4    4    0    0 -0.58890412560E+02  0.53382681995E+02 -0.15200644666E+03  0.21229992783E+03  0.12509000000E+03 0.  0.
         25    1    4    4    0    0 -0.17892680187E+02  0.37034914260E+02 -0.24894601803E+03  0.28162627873E+03  0.12509000000E+03 0.  0.
         25    1    3    3    0    0  0.76783092747E+02 -0.90417596255E+02 -0.19430260659E+03  0.25975372196E+03  0.12509000000E+03 0.  0.
<mgrwt>
<rscale>  2 0.46228220E+03</rscale>
<asrwt>0</asrwt>
<pdfrwt beam="1">  1       21 0.11648886E-01 0.46228220E+03</pdfrwt>
<pdfrwt beam="2">  1       21 0.99186404E-01 0.46228220E+03</pdfrwt>
<totfact> 0.47316887E+04</totfact>
</mgrwt>
</event>
<event>
 7    0  0.4770865E-002  0.4872409E+03  0.7546771E-02  0.1017164E+00
         21   -1    0    0  502  501  0.00000000000E+00  0.00000000000E+00  0.65536169884E+02  0.65536169884E+02  0.00000000000E+00 0. -1.
         21   -1    0    0  501  502 -0.00000000000E+00 -0.00000000000E+00 -0.90562082035E+03  0.90562082035E+03  0.00000000000E+00 0. -1.
      99926    2    1    2    0    0 -0.14210854715E-13  0.00000000000E+00 -0.84008465047E+03  0.97115699024E+03  0.48724088471E+03 0.  0.
      99925    2    3    3    0    0  0.77727777478E+02  0.60971663095E+02 -0.71590446091E+03  0.76909913053E+03  0.26312568163E+03 0.  0.
         25    1    3    3    0    0 -0.77727777478E+02 -0.60971663095E+02 -0.12418018956E+03  0.20205785971E+03  0.12509000000E+03 0.  0.
         25    1    4    4    0    0  0.75266003198E+02  0.15330253240E+02 -0.40900465255E+03  0.43454838834E+03  0.12509000000E+03 0.  0.
         25    1    4    4    0    0  0.24617742809E+01  0.45641409855E+02 -0.30689980836E+03  0.33455074218E+03  0.12509000000E+03 0.  0.
<mgrwt>
<rscale>  2 0.48724088E+03</rscale>
<asrwt>0</asrwt>
<pdfrwt beam="1">  1       21 0.96376725E-02 0.48724088E+03</pdfrwt>
<pdfrwt beam="2">  1       21 0.13317953E+00 0.48724088E+03</pdfrwt>
<totfact> 0.31554451E+04</totfact>
</mgrwt>
</event>
<event>
 7    0  0.4770865E-002  0.4506650E+03  0.7546771E-02  0.1027524E+00
         21   -1    0    0  502  501  0.00000000000E+00  0.00000000000E+00  0.97215957195E+03  0.97215957195E+03  0.00000000000E+00 0.  1.
         21   -1    0    0  501  502 -0.00000000000E+00 -0.00000000000E+00 -0.52228809070E+02  0.52228809070E+02  0.00000000000E+00 0.  1.
      99926    2    1    2    0    0  0.00000000000E+00  0.00000000000E+00  0.91993076288E+03  0.10243883810E+04  0.45066500494E+03 0.  0.
      99925    2    3    3    0    0  0.47127927492E+02  0.97020604256E+02  0.61820828421E+03  0.68041454272E+03  0.26296088697E+03 0.  0.
         25    1    4    4    0    0  0.35512151909E+02  0.87417072379E+02  0.30711393538E+03  0.34477432457E+03  0.12509000000E+03 0.  0.
         25    1    3    3    0    0 -0.47127927492E+02 -0.97020604256E+02  0.30172247867E+03  0.34397383830E+03  0.12509000000E+03 0.  0.
         25    1    4    4    0    0  0.11615775584E+02  0.96035318772E+01  0.31109434882E+03  0.33564021815E+03  0.12509000000E+03 0.  0.
<mgrwt>
<rscale>  2 0.45066500E+03</rscale>
<asrwt>0</asrwt>
<pdfrwt beam="1">  1       21 0.14296463E+00 0.45066500E+03</pdfrwt>
<pdfrwt beam="2">  1       21 0.76807079E-02 0.45066500E+03</pdfrwt>
<totfact> 0.39553235E+04</totfact>
</mgrwt>
</event>
<event>
 7    0  0.4770865E-002  0.4547895E+03  0.7546771E-02  0.1026303E+00
         21   -1    0    0  502  501  0.00000000000E+00  0.00000000000E+00  0.70022157125E+02  0.70022157125E+02  0.00000000000E+00 0.  1.
         21   -1    0    0  501  502 -0.00000000000E+00 -0.00000000000E+00 -0.73845718142E+03  0.73845718142E+03  0.00000000000E+00 0.  1.
      99926    2    1    2    0    0  0.00000000000E+00  0.00000000000E+00 -0.66843502429E+03  0.80847933854E+03  0.45478946684E+03 0.  0.
      99925    2    3    3    0    0 -0.39002202460E+02 -0.39424472334E+01 -0.23211611802E+03  0.35289354996E+03  0.26290540252E+03 0.  0.
         25    1    3    3    0    0  0.39002202460E+02  0.39424472334E+01 -0.43631890627E+03  0.45558578858E+03  0.12509000000E+03 0.  0.
         25    1    4    4    0    0 -0.26774375536E+02  0.40483936591E+01 -0.16908076377E+03  0.21205911783E+03  0.12509000000E+03 0.  0.
         25    1    4    4    0    0 -0.12227826923E+02 -0.79908408925E+01 -0.63035354255E+02  0.14083443214E+03  0.12509000000E+03 0.  0.
<mgrwt>
<rscale>  2 0.45478947E+03</rscale>
<asrwt>0</asrwt>
<pdfrwt beam="1">  1       21 0.10297377E-01 0.45478947E+03</pdfrwt>
<pdfrwt beam="2">  1       21 0.10859663E+00 0.45478947E+03</pdfrwt>
<totfact> 0.47435730E+04</totfact>
</mgrwt>
</event>
<event>
 7    0  0.4770865E-002  0.4841687E+03  0.7546771E-02  0.1017996E+00
         21   -1    0    0  502  501  0.00000000000E+00  0.00000000000E+00  0.10733014017E+04  0.10733014017E+04  0.00000000000E+00 0. -1.
         21   -1    0    0  501  502 -0.00000000000E+00 -0.00000000000E+00 -0.54602391738E+02  0.54602391738E+02  0.00000000000E+00 0. -1.
      99926    2    1    2    0    0  0.00000000000E+00  0.00000000000E+00  0.10186990099E+04  0.11279037934E+04  0.48416866312E+03 0.  0.
      99925    2    3    3    0    0 -0.12309742603E+03 -0.63286107363E+02  0.60258326240E+03  0.67187974676E+03  0.26297851299E+03 0.  0.
         25    1    4    4    0    0 -0.61272895487E+02  0.92944732416E+01  0.26839200625E+03  0.30252691132E+03  0.12509000000E+03 0.  0.
         25    1    3    3    0    0  0.12309742603E+03  0.63286107363E+02  0.41611574755E+03  0.45602404667E+03  0.12509000000E+03 0.  0.
         25    1    4    4    0    0 -0.61824530545E+02 -0.72580580605E+02  0.33419125615E+03  0.36935283544E+03  0.12509000000E+03 0.  0.
<mgrwt>
<rscale>  2 0.48416866E+03</rscale>
<asrwt>0</asrwt>
<pdfrwt beam="1">  1       21 0.15783843E+00 0.48416866E+03</pdfrwt>
<pdfrwt beam="2">  1       21 0.80297641E-02 0.48416866E+03</pdfrwt>
<totfact> 0.27678566E+04</totfact>
</mgrwt>
</event>
<event>
 7    0  0.4770865E-002  0.4533318E+03  0.7546771E-02  0.1026733E+00
         21   -1    0    0  502  501  0.00000000000E+00  0.00000000000E+00  0.65645631816E+02  0.65645631816E+02  0.00000000000E+00 0. -1.
         21   -1    0    0  501  502 -0.00000000000E+00 -0.00000000000E+00 -0.78264824315E+03  0.78264824315E+03  0.00000000000E+00 0. -1.
      99926    2    1    2    0    0 -0.71054273576E-14  0.00000000000E+00 -0.71700261133E+03  0.84829387496E+03  0.45333183613E+03 0.  0.
      99925    2    3    3    0    0 -0.39649728830E+02  0.85940603125E+02 -0.56235263703E+03  0.62801675198E+03  0.26307159505E+03 0.  0.
         25    1    3    3    0    0  0.39649728830E+02 -0.85940603125E+02 -0.15464997429E+03  0.22027712299E+03  0.12509000000E+03 0.  0.
         25    1    4    4    0    0 -0.55288554033E+02  0.34898095577E+02 -0.24501522656E+03  0.28276256935E+03  0.12509000000E+03 0.  0.
         25    1    4    4    0    0  0.15638825203E+02  0.51042507548E+02 -0.31733741047E+03  0.34525418262E+03  0.12509000000E+03 0.  0.
<mgrwt>
<rscale>  2 0.45333184E+03</rscale>
<asrwt>0</asrwt>
<pdfrwt beam="1">  1       21 0.96537701E-02 0.45333184E+03</pdfrwt>
<pdfrwt beam="2">  1       21 0.11509532E+00 0.45333184E+03</pdfrwt>
<totfact> 0.46116328E+04</totfact>
</mgrwt>
</event>
<event>
 7    0  0.4770865E-002  0.4568045E+03  0.7546771E-02  0.1025712E+00
         21   -1    0    0  502  501  0.00000000000E+00  0.00000000000E+00  0.42563690728E+03  0.42563690728E+03  0.00000000000E+00 0.  1.
         21   -1    0    0  501  502 -0.00000000000E+00 -0.00000000000E+00 -0.12256357924E+03  0.12256357924E+03  0.00000000000E+00 0.  1.
      99926    2    1    2    0    0  0.00000000000E+00  0.00000000000E+00  0.30307332805E+03  0.54820048652E+03  0.45680447814E+03 0.  0.
      99925    2    3    3    0    0 -0.62916712664E+02  0.16134940514E+02  0.30397373120E+03  0.40724954518E+03  0.26312224108E+03 0.  0.
         25    1    4    4    0    0 -0.62134224233E+01  0.14026606647E+02  0.19376286084E+03  0.23114261107E+03  0.12509000000E+03 0.  0.
         25    1    4    4    0    0 -0.56703290241E+02  0.21083338668E+01  0.11021087036E+03  0.17610693411E+03  0.12509000000E+03 0.  0.
         25    1    3    3    0    0  0.62916712664E+02 -0.16134940514E+02 -0.90040315590E+00  0.14095094134E+03  0.12509000000E+03 0.  0.
<mgrwt>
<rscale>  2 0.45680448E+03</rscale>
<asrwt>0</asrwt>
<pdfrwt beam="1">  1       21 0.62593663E-01 0.45680448E+03</pdfrwt>
<pdfrwt beam="2">  1       21 0.18024056E-01 0.45680448E+03</pdfrwt>
<totfact> 0.61108418E+04</totfact>
</mgrwt>
</event>
<event>
 7    0  0.4770865E-002  0.4070616E+03  0.7546771E-02  0.1041362E+00
         21   -1    0    0  502  501  0.00000000000E+00  0.00000000000E+00  0.44105360958E+02  0.44105360958E+02  0.00000000000E+00 0.  1.
         21   -1    0    0  501  502 -0.00000000000E+00 -0.00000000000E+00 -0.93922320094E+03  0.93922320094E+03  0.00000000000E+00 0.  1.
      99926    2    1    2    0    0  0.00000000000E+00 -0.44408920985E-15 -0.89511783999E+03  0.98332856190E+03  0.40706155946E+03 0.  0.
      99925    2    3    3    0    0  0.54141832962E+02 -0.30423428066E+01 -0.63894550509E+03  0.69313489003E+03  0.26314259135E+03 0.  0.
         25    1    4    4    0    0 -0.32693519294E+01  0.73223276942E+01 -0.37311526811E+03  0.39360743965E+03  0.12509000000E+03 0.  0.
         25    1    3    3    0    0 -0.54141832962E+02  0.30423428066E+01 -0.25617233490E+03  0.29019367187E+03  0.12509000000E+03 0.  0.
         25    1    4    4    0    0  0.57411184892E+02 -0.10364670501E+02 -0.26583023698E+03  0.29952745039E+03  0.12509000000E+03 0.  0.
<mgrwt>
<rscale>  2 0.40706156E+03</rscale>
<asrwt>0</asrwt>
<pdfrwt beam="1">  1       21 0.64860832E-02 0.40706156E+03</pdfrwt>
<pdfrwt beam="2">  1       21 0.13812104E+00 0.40706156E+03</pdfrwt>
<totfact> 0.59013384E+04</totfact>
</mgrwt>
</event>
<event>
 7    0  0.4770865E-002  0.4602641E+03  0.7546771E-02  0.1024705E+00
         21   -1    0    0  502  501  0.00000000000E+00  0.00000000000E+00  0.34946558708E+02  0.34946558708E+02  0.00000000000E+00 0.  1.
         21   -1    0    0  501  502 -0.00000000000E+00 -0.00000000000E+00 -0.15154783701E+04  0.15154783701E+04  0.00000000000E+00 0.  1.
      99926    2    1    2    0    0 -0.14210854715E-13  0.00000000000E+00 -0.14805318114E+04  0.15504249288E+04  0.46026407129E+03 0.  0.
      99925    2    3    3    0    0 -0.75626543260E+02 -0.85263080207E+02 -0.10308269222E+04  0.10699343854E+04  0.26299482603E+03 0.  0.
         25    1    3    3    0    0  0.75626543260E+02  0.85263080207E+02 -0.44970488915E+03  0.48049054342E+03  0.12509000000E+03 0.  0.
         25    1    4    4    0    0 -0.53925904667E+02 -0.24283917708E+02 -0.63198960231E+03  0.64695910024E+03  0.12509000000E+03 0.  0.
         25    1    4    4    0    0 -0.21700638593E+02 -0.60979162499E+02 -0.39883731992E+03  0.42297528513E+03  0.12509000000E+03 0.  0.
<mgrwt>
<rscale>  2 0.46026407E+03</rscale>
<asrwt>0</asrwt>
<pdfrwt beam="1">  1       21 0.51391979E-02 0.46026407E+03</pdfrwt>
<pdfrwt beam="2">  1       21 0.22286455E+00 0.46026407E+03</pdfrwt>
<totfact> 0.21670357E+04</totfact>
</mgrwt>
</event>
<event>
 7    0  0.4770865E-002  0.4490883E+03  0.7546771E-02  0.1027994E+00
         21   -1    0    0  502  501  0.00000000000E+00  0.00000000000E+00  0.61609777260E+02  0.61609777260E+02  0.00000000000E+00 0. -1.
         21   -1    0    0  501  502 -0.00000000000E+00 -0.00000000000E+00 -0.81837772058E+03  0.81837772058E+03  0.00000000000E+00 0. -1.
      99926    2    1    2    0    0  0.00000000000E+00  0.14210854715E-13 -0.75676794332E+03  0.87998749784E+03  0.44908827230E+03 0.  0.
      99925    2    3    3    0    0 -0.18498281774E+02  0.82532787321E+02 -0.34907525326E+03  0.44522930638E+03  0.26310027634E+03 0.  0.
         25    1    4    4    0    0 -0.13572764704E+02  0.66613703605E+01 -0.19937792951E+03  0.23585516885E+03  0.12509000000E+03 0.  0.
         25    1    3    3    0    0  0.18498281774E+02 -0.82532787321E+02 -0.40769269006E+03  0.43475819146E+03  0.12509000000E+03 0.  0.
         25    1    4    4    0    0 -0.49255170702E+01  0.75871416960E+02 -0.14969732375E+03  0.20937413753E+03  0.12509000000E+03 0.  0.
<mgrwt>
<rscale>  2 0.44908827E+03</rscale>
<asrwt>0</asrwt>
<pdfrwt beam="1">  1       21 0.90602620E-02 0.44908827E+03</pdfrwt>
<pdfrwt beam="2">  1       21 0.12034966E+00 0.44908827E+03</pdfrwt>
<totfact> 0.46213095E+04</totfact>
</mgrwt>
</event>
<event>
 7    0  0.4770865E-002  0.4542106E+03  0.7546771E-02  0.1026474E+00
         21   -1    0    0  502  501  0.00000000000E+00  0.00000000000E+00  0.24658103718E+03  0.24658103718E+03  0.00000000000E+00 0.  1.
         21   -1    0    0  501  502 -0.00000000000E+00 -0.00000000000E+00 -0.20916778591E+03  0.20916778591E+03  0.00000000000E+00 0.  1.
      99926    2    1    2    0    0  0.00000000000E+00  0.00000000000E+00  0.37413251271E+02  0.45574882308E+03  0.45421056612E+03 0.  0.
      99925    2    3    3    0    0 -0.21075788370E+02 -0.83723018727E+02 -0.48754142264E+02  0.28103173597E+03  0.26296033449E+03 0.  0.
         25    1    4    4    0    0 -0.19658637636E+02 -0.58301738623E+01 -0.41904591710E+02  0.13350638886E+03  0.12509000000E+03 0.  0.
         25    1    4    4    0    0 -0.14171507338E+01 -0.77892844864E+02 -0.68495505542E+01  0.14752534711E+03  0.12509000000E+03 0.  0.
         25    1    3    3    0    0  0.21075788370E+02  0.83723018727E+02  0.86167393534E+02  0.17471708711E+03  0.12509000000E+03 0.  0.
<mgrwt>
<rscale>  2 0.45421057E+03</rscale>
<asrwt>0</asrwt>
<pdfrwt beam="1">  1       21 0.36261917E-01 0.45421057E+03</pdfrwt>
<pdfrwt beam="2">  1       21 0.30759969E-01 0.45421057E+03</pdfrwt>
<totfact> 0.68924106E+04</totfact>
</mgrwt>
</event>
<event>
 7    0  0.4770865E-002  0.4530668E+03  0.7546771E-02  0.1026811E+00
         21   -1    0    0  502  501  0.00000000000E+00  0.00000000000E+00  0.16127522498E+03  0.16127522498E+03  0.00000000000E+00 0.  1.
         21   -1    0    0  501  502 -0.00000000000E+00 -0.00000000000E+00 -0.31819754564E+03  0.31819754564E+03  0.00000000000E+00 0.  1.
      99926    2    1    2    0    0  0.00000000000E+00  0.00000000000E+00 -0.15692232067E+03  0.47947277062E+03  0.45306679755E+03 0.  0.
      99925    2    3    3    0    0 -0.10063031228E+03  0.43418385380E+02 -0.12011101710E+03  0.30913723085E+03  0.26292119566E+03 0.  0.
         25    1    4    4    0    0 -0.24629757529E+02 -0.11810352124E+02 -0.46230464191E+02  0.13612815026E+03  0.12509000000E+03 0.  0.
         25    1    4    4    0    0 -0.76000554751E+02  0.55228737504E+02 -0.73880552905E+02  0.17300908059E+03  0.12509000000E+03 0.  0.
         25    1    3    3    0    0  0.10063031228E+03 -0.43418385380E+02 -0.36811303570E+02  0.17033553977E+03  0.12509000000E+03 0.  0.
<mgrwt>
<rscale>  2 0.45306680E+03</rscale>
<asrwt>0</asrwt>
<pdfrwt beam="1">  1       21 0.23716945E-01 0.45306680E+03</pdfrwt>
<pdfrwt beam="2">  1       21 0.46793756E-01 0.45306680E+03</pdfrwt>
<totfact> 0.67772507E+04</totfact>
</mgrwt>
</event>
<event>
 7    0  0.4770865E-002  0.4547527E+03  0.7546771E-02  0.1026314E+00
         21   -1    0    0  502  501  0.00000000000E+00  0.00000000000E+00  0.11000169764E+03  0.11000169764E+03  0.00000000000E+00 0.  1.
         21   -1    0    0  501  502 -0.00000000000E+00 -0.00000000000E+00 -0.46999280157E+03  0.46999280157E+03  0.00000000000E+00 0.  1.
      99926    2    1    2    0    0  0.00000000000E+00  0.14210854715E-13 -0.35999110393E+03  0.57999449921E+03  0.45475270666E+03 0.  0.
      99925    2    3    3    0    0  0.19715115826E+02 -0.10321704878E+03 -0.17381632376E+03  0.33230315535E+03  0.26300347470E+03 0.  0.
         25    1    3    3    0    0 -0.19715115826E+02  0.10321704878E+03 -0.18617478017E+03  0.24769134386E+03  0.12509000000E+03 0.  0.
         25    1    4    4    0    0 -0.61663029852E+01 -0.90564416255E+02 -0.87332301396E+02  0.17752288796E+03  0.12509000000E+03 0.  0.
         25    1    4    4    0    0  0.25881418811E+02 -0.12652632525E+02 -0.86484022359E+02  0.15478026739E+03  0.12509000000E+03 0.  0.
<mgrwt>
<rscale>  2 0.45475271E+03</rscale>
<asrwt>0</asrwt>
<pdfrwt beam="1">  1       21 0.16176720E-01 0.45475271E+03</pdfrwt>
<pdfrwt beam="2">  1       21 0.69116588E-01 0.45475271E+03</pdfrwt>
<totfact> 0.60044172E+04</totfact>
</mgrwt>
</event>
<event>
 7    0  0.4770865E-002  0.4651144E+03  0.7546771E-02  0.1023308E+00
         21   -1    0    0  502  501  0.00000000000E+00  0.00000000000E+00  0.64053590479E+02  0.64053590479E+02  0.00000000000E+00 0. -1.
         21   -1    0    0  501  502 -0.00000000000E+00 -0.00000000000E+00 -0.84433757029E+03  0.84433757029E+03  0.00000000000E+00 0. -1.
      99926    2    1    2    0    0  0.00000000000E+00  0.13322676296E-14 -0.78028397981E+03  0.90839116077E+03  0.46511440723E+03 0.  0.
      99925    2    3    3    0    0 -0.89598769388E+02 -0.38344865208E+01 -0.64923269999E+03  0.70624124411E+03  0.26311775573E+03 0.  0.
         25    1    3    3    0    0  0.89598769388E+02  0.38344865208E+01 -0.13105127982E+03  0.20214991666E+03  0.12509000000E+03 0.  0.
         25    1    4    4    0    0 -0.57450963991E+02  0.24167905271E+02 -0.25994907502E+03  0.29513679983E+03  0.12509000000E+03 0.  0.
         25    1    4    4    0    0 -0.32147805396E+02 -0.28002391792E+02 -0.38928362497E+03  0.41110444428E+03  0.12509000000E+03 0.  0.
<mgrwt>
<rscale>  2 0.46511441E+03</rscale>
<asrwt>0</asrwt>
<pdfrwt beam="1">  1       21 0.94196452E-02 0.46511441E+03</pdfrwt>
<pdfrwt beam="2">  1       21 0.12416730E+00 0.46511441E+03</pdfrwt>
<totfact> 0.39639679E+04</totfact>
</mgrwt>
</event>
<event>
 7    0  0.4770865E-002  0.4561138E+03  0.7546771E-02  0.1025914E+00
         21   -1    0    0  502  501  0.00000000000E+00  0.00000000000E+00  0.58222060028E+02  0.58222060028E+02  0.00000000000E+00 0. -1.
         21   -1    0    0  501  502 -0.00000000000E+00 -0.00000000000E+00 -0.89330333123E+03  0.89330333123E+03  0.00000000000E+00 0. -1.
      99926    2    1    2    0    0  0.00000000000E+00  0.71054273576E-14 -0.83508127120E+03  0.95152539126E+03  0.45611384620E+03 0.  0.
      99925    2    3    3    0    0 -0.86871884431E+02 -0.42360246730E+02 -0.65247645202E+03  0.71000283973E+03  0.26274968540E+03 0.  0.
         25    1    3    3    0    0  0.86871884431E+02  0.42360246730E+02 -0.18260481919E+03  0.24152255153E+03  0.12509000000E+03 0.  0.
         25    1    4    4    0    0 -0.47876832636E+02  0.62183624324E+01 -0.39368761960E+03  0.41589458888E+03  0.12509000000E+03 0.  0.
         25    1    4    4    0    0 -0.38995051795E+02 -0.48578609162E+02 -0.25878883242E+03  0.29410825085E+03  0.12509000000E+03 0.  0.
<mgrwt>
<rscale>  2 0.45611385E+03</rscale>
<asrwt>0</asrwt>
<pdfrwt beam="1">  1       21 0.85620685E-02 0.45611385E+03</pdfrwt>
<pdfrwt beam="2">  1       21 0.13136812E+00 0.45611385E+03</pdfrwt>
<totfact> 0.40723254E+04</totfact>
</mgrwt>
</event>
<event>
 7    0  0.4770865E-002  0.4586721E+03  0.7546771E-02  0.1025167E+00
         21   -1    0    0  502  501  0.00000000000E+00  0.00000000000E+00  0.66426448047E+02  0.66426448047E+02  0.00000000000E+00 0. -1.
         21   -1    0    0  501  502 -0.00000000000E+00 -0.00000000000E+00 -0.79177838343E+03  0.79177838343E+03  0.00000000000E+00 0. -1.
      99926    2    1    2    0    0  0.00000000000E+00  0.00000000000E+00 -0.72535193538E+03  0.85820483147E+03  0.45867210794E+03 0.  0.
      99925    2    3    3    0    0  0.60179834765E+02 -0.54619473583E+02 -0.29733296184E+03  0.40493598275E+03  0.26260495145E+03 0.  0.
         25    1    4    4    0    0  0.33796769759E+02  0.12626345750E+02 -0.13225348477E+03  0.18558054474E+03  0.12509000000E+03 0.  0.
         25    1    4    4    0    0  0.26383065006E+02 -0.67245819332E+02 -0.16507947707E+03  0.21935543801E+03  0.12509000000E+03 0.  0.
         25    1    3    3    0    0 -0.60179834765E+02  0.54619473583E+02 -0.42801897354E+03  0.45326884872E+03  0.12509000000E+03 0.  0.
<mgrwt>
<rscale>  2 0.45867211E+03</rscale>
<asrwt>0</asrwt>
<pdfrwt beam="1">  1       21 0.97685964E-02 0.45867211E+03</pdfrwt>
<pdfrwt beam="2">  1       21 0.11643798E+00 0.45867211E+03</pdfrwt>
<totfact> 0.43799270E+04</totfact>
</mgrwt>
</event>
<event>
 7    0  0.4770865E-002  0.4591896E+03  0.7546771E-02  0.1025017E+00
         21   -1    0    0  502  501  0.00000000000E+00  0.00000000000E+00  0.24657291247E+04  0.24657291247E+04  0.00000000000E+00 0.  1.
         21   -1    0    0  501  502 -0.00000000000E+00 -0.00000000000E+00 -0.21378572249E+02  0.21378572249E+02  0.00000000000E+00 0.  1.
      99926    2    1    2    0    0 -0.14210854715E-13  0.35527136788E-14  0.24443505525E+04  0.24871076970E+04  0.45918958280E+03 0.  0.
      99925    2    3    3    0    0 -0.11223753888E+03  0.29526145898E+02  0.16141405410E+04  0.16395434046E+04  0.26302819448E+03 0.  0.
         25    1    3    3    0    0  0.11223753888E+03 -0.29526145898E+02  0.83021001152E+03  0.84756429240E+03  0.12509000000E+03 0.  0.
         25    1    4    4    0    0 -0.15852007286E+02  0.21717472063E+02  0.80424298599E+03  0.81435693853E+03  0.12509000000E+03 0.  0.
         25    1    4    4    0    0 -0.96385531599E+02  0.78086738350E+01  0.80989755499E+03  0.82518646606E+03  0.12509000000E+03 0.  0.
<mgrwt>
<rscale>  2 0.45918958E+03</rscale>
<asrwt>0</asrwt>
<pdfrwt beam="1">  1       21 0.36260703E+00 0.45918958E+03</pdfrwt>
<pdfrwt beam="2">  1       21 0.31439094E-02 0.45918958E+03</pdfrwt>
<totfact> 0.70327555E+03</totfact>
</mgrwt>
</event>
<event>
 7    0  0.4770865E-002  0.4550150E+03  0.7546771E-02  0.1026237E+00
         21   -1    0    0  502  501  0.00000000000E+00  0.00000000000E+00  0.88285765149E+02  0.88285765149E+02  0.00000000000E+00 0.  1.
         21   -1    0    0  501  502 -0.00000000000E+00 -0.00000000000E+00 -0.58627412638E+03  0.58627412638E+03  0.00000000000E+00 0.  1.
      99926    2    1    2    0    0  0.00000000000E+00 -0.71054273576E-14 -0.49798836123E+03  0.67455989153E+03  0.45501498804E+03 0.  0.
      99925    2    3    3    0    0  0.89801004049E+02  0.59216313499E+02 -0.36556419857E+03  0.46300739434E+03  0.26299785516E+03 0.  0.
         25    1    4    4    0    0  0.53522568215E+02  0.52668953324E+00 -0.22268250481E+03  0.26095966883E+03  0.12509000000E+03 0.  0.
         25    1    4    4    0    0  0.36278435834E+02  0.58689623966E+02 -0.14288169377E+03  0.20204772550E+03  0.12509000000E+03 0.  0.
         25    1    3    3    0    0 -0.89801004049E+02 -0.59216313499E+02 -0.13242416266E+03  0.21155249719E+03  0.12509000000E+03 0.  0.
<mgrwt>
<rscale>  2 0.45501499E+03</rscale>
<asrwt>0</asrwt>
<pdfrwt beam="1">  1       21 0.12983201E-01 0.45501499E+03</pdfrwt>
<pdfrwt beam="2">  1       21 0.86216784E-01 0.45501499E+03</pdfrwt>
<totfact> 0.54300033E+04</totfact>
</mgrwt>
</event>
<event>
 7    0  0.4770865E-002  0.4489973E+03  0.7546771E-02  0.1028021E+00
         21   -1    0    0  502  501  0.00000000000E+00  0.00000000000E+00  0.87305622636E+02  0.87305622636E+02  0.00000000000E+00 0.  1.
         21   -1    0    0  501  502 -0.00000000000E+00 -0.00000000000E+00 -0.57727836136E+03  0.57727836136E+03  0.00000000000E+00 0.  1.
      99926    2    1    2    0    0  0.00000000000E+00  0.00000000000E+00 -0.48997273872E+03  0.66458398399E+03  0.44899731301E+03 0.  0.
      99925    2    3    3    0    0  0.60804265406E+02 -0.65270720877E+02 -0.22132053408E+03  0.35510225456E+03  0.26297795856E+03 0.  0.
         25    1    4    4    0    0  0.56024967629E+02 -0.21523524585E+01 -0.99639457360E+02  0.16946669048E+03  0.12509000000E+03 0.  0.
         25    1    4    4    0    0  0.47792977776E+01 -0.63118368418E+02 -0.12168107672E+03  0.18563556408E+03  0.12509000000E+03 0.  0.
         25    1    3    3    0    0 -0.60804265406E+02  0.65270720877E+02 -0.26865220464E+03  0.30948172944E+03  0.12509000000E+03 0.  0.
<mgrwt>
<rscale>  2 0.44899731E+03</rscale>
<asrwt>0</asrwt>
<pdfrwt beam="1">  1       21 0.12839062E-01 0.44899731E+03</pdfrwt>
<pdfrwt beam="2">  1       21 0.84893878E-01 0.44899731E+03</pdfrwt>
<totfact> 0.57542967E+04</totfact>
</mgrwt>
</event>
<event>
 6    0  0.4770865E-002  0.4514356E+03  0.7546771E-02  0.1027295E+00
         21   -1    0    0  502  501  0.00000000000E+00  0.00000000000E+00  0.49246566078E+02  0.49246566078E+02  0.00000000000E+00 0. -1.
         21   -1    0    0  501  502 -0.00000000000E+00 -0.00000000000E+00 -0.10345601053E+04  0.10345601053E+04  0.00000000000E+00 0. -1.
      99926    2    1    2    0    0  0.00000000000E+00  0.00000000000E+00 -0.98531353923E+03  0.10838066714E+04  0.45143563257E+03 0.  0.
         25    1    3    3    0    0 -0.37968986979E+02 -0.12619103460E+02 -0.43721750644E+03  0.45651674863E+03  0.12509000000E+03 0.  0.
         25    1    3    3    0    0  0.10017420339E+03  0.32805969959E+02 -0.30937843546E+03  0.34996232242E+03  0.12509000000E+03 0.  0.
         25    1    3    3    0    0 -0.62205216414E+02 -0.20186866500E+02 -0.23871759733E+03  0.27732760033E+03  0.12509000000E+03 0.  0.
<mgrwt>
<rscale>  2 0.45143563E+03</rscale>
<asrwt>0</asrwt>
<pdfrwt beam="1">  1       21 0.72421418E-02 0.45143563E+03</pdfrwt>
<pdfrwt beam="2">  1       21 0.15214120E+00 0.45143563E+03</pdfrwt>
<totfact> 0.37081392E+04</totfact>
</mgrwt>
</event>
<event>
 7    0  0.4770865E-002  0.4636987E+03  0.7546771E-02  0.1023714E+00
         21   -1    0    0  502  501  0.00000000000E+00  0.00000000000E+00  0.10336350704E+03  0.10336350704E+03  0.00000000000E+00 0.  1.
         21   -1    0    0  501  502 -0.00000000000E+00 -0.00000000000E+00 -0.52004931911E+03  0.52004931911E+03  0.00000000000E+00 0.  1.
      99926    2    1    2    0    0 -0.14210854715E-13  0.00000000000E+00 -0.41668581208E+03  0.62341282615E+03  0.46369870155E+03 0.  0.
      99925    2    3    3    0    0 -0.11556459237E+03  0.18780804312E+02 -0.30208022601E+03  0.41728218292E+03  0.26299061507E+03 0.  0.
         25    1    4    4    0    0 -0.51377731796E+02 -0.28865918056E+02 -0.12712536313E+03  0.18783311370E+03  0.12509000000E+03 0.  0.
         25    1    4    4    0    0 -0.64186860575E+02  0.47646722368E+02 -0.17495486287E+03  0.22944906922E+03  0.12509000000E+03 0.  0.
         25    1    3    3    0    0  0.11556459237E+03 -0.18780804312E+02 -0.11460558607E+03  0.20613064323E+03  0.12509000000E+03 0.  0.
<mgrwt>
<rscale>  2 0.46369870E+03</rscale>
<asrwt>0</asrwt>
<pdfrwt beam="1">  1       21 0.15200516E-01 0.46369870E+03</pdfrwt>
<pdfrwt beam="2">  1       21 0.76477840E-01 0.46369870E+03</pdfrwt>
<totfact> 0.53490002E+04</totfact>
</mgrwt>
</event>
<event>
 7    0  0.4770865E-002  0.4534289E+03  0.7546771E-02  0.1026704E+00
         21   -1    0    0  502  501  0.00000000000E+00  0.00000000000E+00  0.33935255812E+03  0.33935255812E+03  0.00000000000E+00 0. -1.
         21   -1    0    0  501  502 -0.00000000000E+00 -0.00000000000E+00 -0.15146322276E+03  0.15146322276E+03  0.00000000000E+00 0. -1.
      99926    2    1    2    0    0  0.00000000000E+00  0.00000000000E+00  0.18788933536E+03  0.49081578088E+03  0.45342885706E+03 0.  0.
      99925    2    3    3    0    0  0.52667147045E+02  0.72942536676E+02  0.18853895376E+03  0.33673018084E+03  0.26409436868E+03 0.  0.
         25    1    3    3    0    0 -0.52667147045E+02 -0.72942536676E+02 -0.64961840854E+00  0.15408560004E+03  0.12509000000E+03 0.  0.
         25    1    4    4    0    0  0.46558680181E+01  0.34861134521E+02  0.47091718631E+02  0.13821039712E+03  0.12509000000E+03 0.  0.
         25    1    4    4    0    0  0.48011279027E+02  0.38081402155E+02  0.14144723513E+03  0.19851978373E+03  0.12509000000E+03 0.  0.
<mgrwt>
<rscale>  2 0.45342886E+03</rscale>
<asrwt>0</asrwt>
<pdfrwt beam="1">  1       21 0.49904788E-01 0.45342886E+03</pdfrwt>
<pdfrwt beam="2">  1       21 0.22274003E-01 0.45342886E+03</pdfrwt>
<totfact> 0.66749492E+04</totfact>
</mgrwt>
</event>
<event>
 7    0  0.4770865E-002  0.4553396E+03  0.7546771E-02  0.1026142E+00
         21   -1    0    0  502  501  0.00000000000E+00  0.00000000000E+00  0.51547017710E+03  0.51547017710E+03  0.00000000000E+00 0.  1.
         21   -1    0    0  501  502 -0.00000000000E+00 -0.00000000000E+00 -0.10055582981E+03  0.10055582981E+03  0.00000000000E+00 0.  1.
      99926    2    1    2    0    0  0.14210854715E-13 -0.35527136788E-14  0.41491434729E+03  0.61602600691E+03  0.45533957175E+03 0.  0.
      99925    2    3    3    0    0 -0.98335987489E+02  0.15004564599E+02  0.18706175631E+03  0.33771069165E+03  0.26298537447E+03 0.  0.
         25    1    3    3    0    0  0.98335987489E+02 -0.15004564599E+02  0.22785259097E+03  0.27831531526E+03  0.12509000000E+03 0.  0.
         25    1    4    4    0    0 -0.74620633010E+02  0.39618728885E+02  0.90108262874E+02  0.17579786599E+03  0.12509000000E+03 0.  0.
         25    1    4    4    0    0 -0.23715354479E+02 -0.24614164286E+02  0.96953493439E+02  0.16191282565E+03  0.12509000000E+03 0.  0.
<mgrwt>
<rscale>  2 0.45533957E+03</rscale>
<asrwt>0</asrwt>
<pdfrwt beam="1">  1       21 0.75804437E-01 0.45533957E+03</pdfrwt>
<pdfrwt beam="2">  1       21 0.14787622E-01 0.45533957E+03</pdfrwt>
<totfact> 0.57548028E+04</totfact>
</mgrwt>
</event>
<event>
 7    0  0.4770865E-002  0.4504445E+03  0.7546771E-02  0.1027590E+00
         21   -1    0    0  502  501  0.00000000000E+00  0.00000000000E+00  0.44266131676E+03  0.44266131676E+03  0.00000000000E+00 0. -1.
         21   -1    0    0  501  502 -0.00000000000E+00 -0.00000000000E+00 -0.11459114390E+03  0.11459114390E+03  0.00000000000E+00 0. -1.
      99926    2    1    2    0    0 -0.17763568394E-14  0.17763568394E-14  0.32807017286E+03  0.55725246065E+03  0.45044452109E+03 0.  0.
      99925    2    3    3    0    0  0.46668164740E+01  0.67145822693E+01  0.34157240752E+03  0.43117041105E+03  0.26300066349E+03 0.  0.
         25    1    3    3    0    0 -0.46668164740E+01 -0.67145822693E+01 -0.13502234657E+02  0.12608204960E+03  0.12509000000E+03 0.  0.
         25    1    4    4    0    0 -0.25202253802E+02 -0.22875260065E+02  0.19244606205E+03  0.23203755304E+03  0.12509000000E+03 0.  0.
         25    1    4    4    0    0  0.29869070276E+02  0.29589842334E+02  0.14912634546E+03  0.19913285801E+03  0.12509000000E+03 0.  0.
<mgrwt>
<rscale>  2 0.45044452E+03</rscale>
<asrwt>0</asrwt>
<pdfrwt beam="1">  1       21 0.65097252E-01 0.45044452E+03</pdfrwt>
<pdfrwt beam="2">  1       21 0.16851639E-01 0.45044452E+03</pdfrwt>
<totfact> 0.63652728E+04</totfact>
</mgrwt>
</event>
<event>
 7    0  0.4770865E-002  0.4552679E+03  0.7546771E-02  0.1026163E+00
         21   -1    0    0  502  501  0.00000000000E+00  0.00000000000E+00  0.50236446332E+03  0.50236446332E+03  0.00000000000E+00 0. -1.
         21   -1    0    0  501  502 -0.00000000000E+00 -0.00000000000E+00 -0.10314665923E+03  0.10314665923E+03  0.00000000000E+00 0. -1.
      99926    2    1    2    0    0  0.00000000000E+00  0.00000000000E+00  0.39921780409E+03  0.60551112255E+03  0.45526790401E+03 0.  0.
      99925    2    3    3    0    0  0.10802342135E+02 -0.83153171029E+02  0.35250845680E+03  0.44783927448E+03  0.26318560600E+03 0.  0.
         25    1    4    4    0    0 -0.29086457224E+02 -0.22303638227E+02  0.14665607017E+03  0.19621158296E+03  0.12509000000E+03 0.  0.
         25    1    4    4    0    0  0.39888799359E+02 -0.60849532802E+02  0.20585238663E+03  0.25162769152E+03  0.12509000000E+03 0.  0.
         25    1    3    3    0    0 -0.10802342135E+02  0.83153171029E+02  0.46709347289E+02  0.15767184806E+03  0.12509000000E+03 0.  0.
<mgrwt>
<rscale>  2 0.45526790E+03</rscale>
<asrwt>0</asrwt>
<pdfrwt beam="1">  1       21 0.73877126E-01 0.45526790E+03</pdfrwt>
<pdfrwt beam="2">  1       21 0.15168627E-01 0.45526790E+03</pdfrwt>
<totfact> 0.58217010E+04</totfact>
</mgrwt>
</event>
<event>
 7    0  0.4770865E-002  0.4401987E+03  0.7546771E-02  0.1030686E+00
         21   -1    0    0  502  501  0.00000000000E+00  0.00000000000E+00  0.16927343466E+03  0.16927343466E+03  0.00000000000E+00 0.  1.
         21   -1    0    0  501  502 -0.00000000000E+00 -0.00000000000E+00 -0.28618617100E+03  0.28618617100E+03  0.00000000000E+00 0.  1.
      99926    2    1    2    0    0  0.35527136788E-14  0.00000000000E+00 -0.11691273635E+03  0.45545960566E+03  0.44019866477E+03 0.  0.
      99925    2    3    3    0    0 -0.27229806559E+02  0.10874817196E+02 -0.17212001557E+03  0.31562014130E+03  0.26292784146E+03 0.  0.
         25    1    4    4    0    0 -0.35785070564E+02  0.12746871817E+02 -0.12725336973E+03  0.18243898219E+03  0.12509000000E+03 0.  0.
         25    1    4    4    0    0  0.85552640050E+01 -0.18720546211E+01 -0.44866645840E+02  0.13318115910E+03  0.12509000000E+03 0.  0.
         25    1    3    3    0    0  0.27229806559E+02 -0.10874817196E+02  0.55207279225E+02  0.13983946436E+03  0.12509000000E+03 0.  0.
<mgrwt>
<rscale>  2 0.44019866E+03</rscale>
<asrwt>0</asrwt>
<pdfrwt beam="1">  1       21 0.24893153E-01 0.44019866E+03</pdfrwt>
<pdfrwt beam="2">  1       21 0.42086201E-01 0.44019866E+03</pdfrwt>
<totfact> 0.77206964E+04</totfact>
</mgrwt>
</event>
<event>
 7    0  0.4770865E-002  0.4579337E+03  0.7546771E-02  0.1025382E+00
         21   -1    0    0  502  501  0.00000000000E+00  0.00000000000E+00  0.23199958642E+03  0.23199958642E+03  0.00000000000E+00 0. -1.
         21   -1    0    0  501  502 -0.00000000000E+00 -0.00000000000E+00 -0.22597379170E+03  0.22597379170E+03  0.00000000000E+00 0. -1.
      99926    2    1    2    0    0  0.00000000000E+00  0.00000000000E+00  0.60257947246E+01  0.45797337812E+03  0.45793373414E+03 0.  0.
      99925    2    3    3    0    0  0.10469662590E+03  0.44683061092E+02 -0.17930091979E+02  0.28715373045E+03  0.26301676237E+03 0.  0.
         25    1    4    4    0    0  0.38797555126E+02  0.45777236374E+01 -0.43297185848E+02  0.13801579707E+03  0.12509000000E+03 0.  0.
         25    1    4    4    0    0  0.65899070774E+02  0.40105337455E+02  0.25367093869E+02  0.14913793338E+03  0.12509000000E+03 0.  0.
         25    1    3    3    0    0 -0.10469662590E+03 -0.44683061092E+02  0.23955886704E+02  0.17081964767E+03  0.12509000000E+03 0.  0.
<mgrwt>
<rscale>  2 0.45793373E+03</rscale>
<asrwt>0</asrwt>
<pdfrwt beam="1">  1       21 0.34117586E-01 0.45793373E+03</pdfrwt>
<pdfrwt beam="2">  1       21 0.33231440E-01 0.45793373E+03</pdfrwt>
<totfact> 0.66752229E+04</totfact>
</mgrwt>
</event>
<event>
 7    0  0.4770865E-002  0.4285595E+03  0.7546771E-02  0.1034316E+00
         21   -1    0    0  502  501  0.00000000000E+00  0.00000000000E+00  0.61279915250E+03  0.61279915250E+03  0.00000000000E+00 0.  1.
         21   -1    0    0  501  502 -0.00000000000E+00 -0.00000000000E+00 -0.74927996521E+02  0.74927996521E+02  0.00000000000E+00 0.  1.
      99926    2    1    2    0    0  0.00000000000E+00  0.00000000000E+00  0.53787115598E+03  0.68772714902E+03  0.42855950703E+03 0.  0.
      99925    2    3    3    0    0 -0.85565276084E+02  0.11362418268E+02  0.34247383049E+03  0.44018292281E+03  0.26272068808E+03 0.  0.
         25    1    4    4    0    0 -0.72485739395E+02  0.20477892355E+02  0.22245391740E+03  0.26609543393E+03  0.12509000000E+03 0.  0.
         25    1    3    3    0    0  0.85565276084E+02 -0.11362418268E+02  0.19539732549E+03  0.24754422621E+03  0.12509000000E+03 0.  0.
         25    1    4    4    0    0 -0.13079536688E+02 -0.91154740874E+01  0.12001991308E+03  0.17408748888E+03  0.12509000000E+03 0.  0.
<mgrwt>
<rscale>  2 0.42855951E+03</rscale>
<asrwt>0</asrwt>
<pdfrwt beam="1">  1       21 0.90117520E-01 0.42855951E+03</pdfrwt>
<pdfrwt beam="2">  1       21 0.11018823E-01 0.42855951E+03</pdfrwt>
<totfact> 0.66342064E+04</totfact>
</mgrwt>
</event>
<event>
 7    0  0.4770865E-002  0.4541339E+03  0.7546771E-02  0.1026496E+00
         21   -1    0    0  502  501  0.00000000000E+00  0.00000000000E+00  0.93825187597E+02  0.93825187597E+02  0.00000000000E+00 0. -1.
         21   -1    0    0  501  502 -0.00000000000E+00 -0.00000000000E+00 -0.54952621922E+03  0.54952621922E+03  0.00000000000E+00 0. -1.
      99926    2    1    2    0    0 -0.71054273576E-14 -0.71054273576E-14 -0.45570103163E+03  0.64335140682E+03  0.45413390364E+03 0.  0.
      99925    2    3    3    0    0  0.43832506096E+02  0.63613545856E+02 -0.40236633443E+03  0.48695425265E+03  0.26316877718E+03 0.  0.
         25    1    4    4    0    0 -0.32704510786E+01  0.32859323218E+02 -0.25305071094E+03  0.28420520998E+03  0.12509000000E+03 0.  0.
         25    1    4    4    0    0  0.47102957174E+02  0.30754222638E+02 -0.14931562349E+03  0.20274904267E+03  0.12509000000E+03 0.  0.
         25    1    3    3    0    0 -0.43832506096E+02 -0.63613545856E+02 -0.53334697191E+02  0.15639715417E+03  0.12509000000E+03 0.  0.
<mgrwt>
<rscale>  2 0.45413390E+03</rscale>
<asrwt>0</asrwt>
<pdfrwt beam="1">  1       21 0.13797822E-01 0.45413390E+03</pdfrwt>
<pdfrwt beam="2">  1       21 0.80812675E-01 0.45413390E+03</pdfrwt>
<totfact> 0.56471085E+04</totfact>
</mgrwt>
</event>
<event>
 7    0  0.4770865E-002  0.4470813E+03  0.7546771E-02  0.1028596E+00
         21   -1    0    0  502  501  0.00000000000E+00  0.00000000000E+00  0.14337644105E+03  0.14337644105E+03  0.00000000000E+00 0.  1.
         21   -1    0    0  501  502 -0.00000000000E+00 -0.00000000000E+00 -0.34852608384E+03  0.34852608384E+03  0.00000000000E+00 0.  1.
      99926    2    1    2    0    0 -0.71054273576E-14 -0.35527136788E-14 -0.20514964279E+03  0.49190252489E+03  0.44708133270E+03 0.  0.
      99925    2    3    3    0    0 -0.22704614930E+02 -0.20963707613E+02 -0.18681614324E+02  0.26524681612E+03  0.26277727103E+03 0.  0.
         25    1    4    4    0    0  0.12189981318E+02 -0.17038694741E+02  0.22789724980E+02  0.12886346429E+03  0.12509000000E+03 0.  0.
         25    1    3    3    0    0  0.22704614930E+02  0.20963707613E+02 -0.18646802847E+03  0.22665570877E+03  0.12509000000E+03 0.  0.
         25    1    4    4    0    0 -0.34894596249E+02 -0.39250128712E+01 -0.41471339304E+02  0.13638335183E+03  0.12509000000E+03 0.  0.
<mgrwt>
<rscale>  2 0.44708133E+03</rscale>
<asrwt>0</asrwt>
<pdfrwt beam="1">  1       21 0.21084771E-01 0.44708133E+03</pdfrwt>
<pdfrwt beam="2">  1       21 0.51253836E-01 0.44708133E+03</pdfrwt>
<totfact> 0.70150503E+04</totfact>
</mgrwt>
</event>
<event>
 7    0  0.4770865E-002  0.4466634E+03  0.7546771E-02  0.1028722E+00
         21   -1    0    0  502  501  0.00000000000E+00  0.00000000000E+00  0.15711365015E+04  0.15711365015E+04  0.00000000000E+00 0.  1.
         21   -1    0    0  501  502 -0.00000000000E+00 -0.00000000000E+00 -0.31745836916E+02  0.31745836916E+02  0.00000000000E+00 0.  1.
      99926    2    1    2    0    0  0.00000000000E+00  0.00000000000E+00  0.15393906646E+04  0.16028823385E+04  0.44666337728E+03 0.  0.
      99925    2    3    3    0    0  0.45662819494E+02  0.94499677391E+02  0.99777513778E+03  0.10371879253E+04  0.26303666020E+03 0.  0.
         25    1    3    3    0    0 -0.45662819494E+02 -0.94499677391E+02  0.54161552685E+03  0.56569441321E+03  0.12509000000E+03 0.  0.
         25    1    4    4    0    0  0.48969311479E+02  0.58116746858E+02  0.63697579326E+03  0.65357571790E+03  0.12509000000E+03 0.  0.
         25    1    4    4    0    0 -0.33064919849E+01  0.36382930532E+02  0.36079934452E+03  0.38361220736E+03  0.12509000000E+03 0.  0.
<mgrwt>
<rscale>  2 0.44666338E+03</rscale>
<asrwt>0</asrwt>
<pdfrwt beam="1">  1       21 0.23104943E+00 0.44666338E+03</pdfrwt>
<pdfrwt beam="2">  1       21 0.46685065E-02 0.44666338E+03</pdfrwt>
<totfact> 0.22805710E+04</totfact>
</mgrwt>
</event>
<event>
 7    0  0.4770865E-002  0.4454539E+03  0.7546771E-02  0.1029086E+00
         21   -1    0    0  502  501  0.00000000000E+00  0.00000000000E+00  0.13542189542E+04  0.13542189542E+04  0.00000000000E+00 0. -1.
         21   -1    0    0  501  502 -0.00000000000E+00 -0.00000000000E+00 -0.36631671833E+02  0.36631671833E+02  0.00000000000E+00 0. -1.
      99926    2    1    2    0    0  0.00000000000E+00  0.71054273576E-14  0.13175872824E+04  0.13908506260E+04  0.44545394518E+03 0.  0.
      99925    2    3    3    0    0  0.56661073053E+02  0.48784115067E+02  0.10619822273E+04  0.10966197314E+04  0.26301752241E+03 0.  0.
         25    1    3    3    0    0 -0.56661073053E+02 -0.48784115067E+02  0.25560505502E+03  0.29423089460E+03  0.12509000000E+03 0.  0.
         25    1    4    4    0    0  0.47597196348E+02  0.61360283180E+02  0.55360525003E+03  0.57284976950E+03  0.12509000000E+03 0.  0.
         25    1    4    4    0    0  0.90638767053E+01 -0.12576168113E+02  0.50837697731E+03  0.52376996194E+03  0.12509000000E+03 0.  0.
<mgrwt>
<rscale>  2 0.44545395E+03</rscale>
<asrwt>0</asrwt>
<pdfrwt beam="1">  1       21 0.19914981E+00 0.44545395E+03</pdfrwt>
<pdfrwt beam="2">  1       21 0.53870115E-02 0.44545395E+03</pdfrwt>
<totfact> 0.28643666E+04</totfact>
</mgrwt>
</event>
<event>
 7    0  0.4770865E-002  0.4585281E+03  0.7546771E-02  0.1025209E+00
         21   -1    0    0  502  501  0.00000000000E+00  0.00000000000E+00  0.43322072672E+03  0.43322072672E+03  0.00000000000E+00 0. -1.
         21   -1    0    0  501  502 -0.00000000000E+00 -0.00000000000E+00 -0.12132846320E+03  0.12132846320E+03  0.00000000000E+00 0. -1.
      99926    2    1    2    0    0  0.00000000000E+00  0.00000000000E+00  0.31189226353E+03  0.55454918992E+03  0.45852810164E+03 0.  0.
      99925    2    3    3    0    0  0.91726261939E+02  0.70993660817E+02  0.20752468612E+03  0.35456442470E+03  0.26305062043E+03 0.  0.
         25    1    4    4    0    0  0.24178553086E+02  0.68234779174E+02  0.11758384072E+03  0.18631708246E+03  0.12509000000E+03 0.  0.
         25    1    3    3    0    0 -0.91726261939E+02 -0.70993660817E+02  0.10436757741E+03  0.19998476522E+03  0.12509000000E+03 0.  0.
         25    1    4    4    0    0  0.67547708853E+02  0.27588816426E+01  0.89940845397E+02  0.16824734224E+03  0.12509000000E+03 0.  0.
<mgrwt>
<rscale>  2 0.45852810E+03</rscale>
<asrwt>0</asrwt>
<pdfrwt beam="1">  1       21 0.63708930E-01 0.45852810E+03</pdfrwt>
<pdfrwt beam="2">  1       21 0.17842421E-01 0.45852810E+03</pdfrwt>
<totfact> 0.59878056E+04</totfact>
</mgrwt>
</event>
<event>
 7    0  0.4770865E-002  0.4344355E+03  0.7546771E-02  0.1032468E+00
         21   -1    0    0  502  501  0.00000000000E+00  0.00000000000E+00  0.35963889713E+03  0.35963889713E+03  0.00000000000E+00 0.  1.
         21   -1    0    0  501  502 -0.00000000000E+00 -0.00000000000E+00 -0.13119699523E+03  0.13119699523E+03  0.00000000000E+00 0.  1.
      99926    2    1    2    0    0  0.35527136788E-14 -0.14210854715E-13  0.22844190190E+03  0.49083589236E+03  0.43443546205E+03 0.  0.
      99925    2    3    3    0    0 -0.21691111105E+02  0.87225617196E+02  0.17190153333E+03  0.32675318769E+03  0.26294238134E+03 0.  0.
         25    1    3    3    0    0  0.21691111105E+02 -0.87225617196E+02  0.56540368568E+02  0.16408270468E+03  0.12509000000E+03 0.  0.
         25    1    4    4    0    0  0.13492684785E+02  0.76972900484E+02  0.93984826122E+02  0.17489292608E+03  0.12509000000E+03 0.  0.
         25    1    4    4    0    0 -0.35183795890E+02  0.10252716711E+02  0.77916707211E+02  0.15186026161E+03  0.12509000000E+03 0.  0.
<mgrwt>
<rscale>  2 0.43443546E+03</rscale>
<asrwt>0</asrwt>
<pdfrwt beam="1">  1       21 0.52888073E-01 0.43443546E+03</pdfrwt>
<pdfrwt beam="2">  1       21 0.19293676E-01 0.43443546E+03</pdfrwt>
<totfact> 0.77875705E+04</totfact>
</mgrwt>
</event>
<event>
 7    0  0.4770865E-002  0.4634397E+03  0.7546771E-02  0.1023788E+00
         21   -1    0    0  502  501  0.00000000000E+00  0.00000000000E+00  0.36532954148E+03  0.36532954148E+03  0.00000000000E+00 0. -1.
         21   -1    0    0  501  502 -0.00000000000E+00 -0.00000000000E+00 -0.14697438102E+03  0.14697438102E+03  0.00000000000E+00 0. -1.
      99926    2    1    2    0    0  0.00000000000E+00  0.14210854715E-13  0.21835516046E+03  0.51230392250E+03  0.46343967559E+03 0.  0.
      99925    2    3    3    0    0 -0.77187342199E+02 -0.75587561451E+02  0.76252121868E+02  0.29433111016E+03  0.26295446579E+03 0.  0.
         25    1    3    3    0    0  0.77187342199E+02  0.75587561451E+02  0.14210303859E+03  0.21797281234E+03  0.12509000000E+03 0.  0.
         25    1    4    4    0    0 -0.39959892171E+02 -0.78211522257E+02  0.52771054413E+02  0.16169764216E+03  0.12509000000E+03 0.  0.
         25    1    4    4    0    0 -0.37227450028E+02  0.26239608055E+01  0.23481067455E+02  0.13263346800E+03  0.12509000000E+03 0.  0.
<mgrwt>
<rscale>  2 0.46343968E+03</rscale>
<asrwt>0</asrwt>
<pdfrwt beam="1">  1       21 0.53724933E-01 0.46343968E+03</pdfrwt>
<pdfrwt beam="2">  1       21 0.21613880E-01 0.46343968E+03</pdfrwt>
<totfact> 0.60274858E+04</totfact>
</mgrwt>
</event>
<event>
 7    0  0.4770865E-002  0.4460230E+03  0.7546771E-02  0.1028915E+00
         21   -1    0    0  502  501  0.00000000000E+00  0.00000000000E+00  0.72620856917E+03  0.72620856917E+03  0.00000000000E+00 0.  1.
         21   -1    0    0  501  502 -0.00000000000E+00 -0.00000000000E+00 -0.68484631954E+02  0.68484631954E+02  0.00000000000E+00 0.  1.
      99926    2    1    2    0    0  0.00000000000E+00  0.00000000000E+00  0.65772393721E+03  0.79469320112E+03  0.44602298856E+03 0.  0.
      99925    2    3    3    0    0 -0.93798487709E+02 -0.16402965904E+02  0.33944987766E+03  0.43970996395E+03  0.26277636760E+03 0.  0.
         25    1    3    3    0    0  0.93798487709E+02  0.16402965904E+02  0.31827405955E+03  0.35498323717E+03  0.12509000000E+03 0.  0.
         25    1    4    4    0    0 -0.50919217646E+02  0.15602623258E+02  0.22021955649E+03  0.25880566018E+03  0.12509000000E+03 0.  0.
         25    1    4    4    0    0 -0.42879270062E+02 -0.32005589162E+02  0.11923032117E+03  0.18090430378E+03  0.12509000000E+03 0.  0.
<mgrwt>
<rscale>  2 0.44602299E+03</rscale>
<asrwt>0</asrwt>
<pdfrwt beam="1">  1       21 0.10679537E+00 0.44602299E+03</pdfrwt>
<pdfrwt beam="2">  1       21 0.10071270E-01 0.44602299E+03</pdfrwt>
<totfact> 0.51560334E+04</totfact>
</mgrwt>
</event>
<event>
 7    0  0.4770865E-002  0.4592121E+03  0.7546771E-02  0.1025010E+00
         21   -1    0    0  502  501  0.00000000000E+00  0.00000000000E+00  0.92762325788E+03  0.92762325788E+03  0.00000000000E+00 0.  1.
         21   -1    0    0  501  502 -0.00000000000E+00 -0.00000000000E+00 -0.56832271802E+02  0.56832271802E+02  0.00000000000E+00 0.  1.
      99926    2    1    2    0    0 -0.35527136788E-14  0.17763568394E-14  0.87079098608E+03  0.98445552968E+03  0.45921209532E+03 0.  0.
      99925    2    3    3    0    0 -0.20756538038E+02 -0.97172499931E+01  0.79204841743E+03  0.83487893046E+03  0.26297694604E+03 0.  0.
         25    1    4    4    0    0  0.16655832346E+02  0.24858663319E+02  0.36683735139E+03  0.38873193896E+03  0.12509000000E+03 0.  0.
         25    1    3    3    0    0  0.20756538038E+02  0.97172499931E+01  0.78742568650E+02  0.14957659923E+03  0.12509000000E+03 0.  0.
         25    1    4    4    0    0 -0.37412370384E+02 -0.34575913312E+02  0.42521106604E+03  0.44614699150E+03  0.12509000000E+03 0.  0.
<mgrwt>
<rscale>  2 0.45921210E+03</rscale>
<asrwt>0</asrwt>
<pdfrwt beam="1">  1       21 0.13641518E+00 0.45921210E+03</pdfrwt>
<pdfrwt beam="2">  1       21 0.83576876E-02 0.45921210E+03</pdfrwt>
<totfact> 0.38492880E+04</totfact>
</mgrwt>
</event>
<event>
 7    0  0.4770865E-002  0.4579062E+03  0.7546771E-02  0.1025390E+00
         21   -1    0    0  502  501  0.00000000000E+00  0.00000000000E+00  0.33061066374E+02  0.33061066374E+02  0.00000000000E+00 0.  1.
         21   -1    0    0  501  502 -0.00000000000E+00 -0.00000000000E+00 -0.15855363423E+04  0.15855363423E+04  0.00000000000E+00 0.  1.
      99926    2    1    2    0    0  0.00000000000E+00  0.00000000000E+00 -0.15524752759E+04  0.16185974087E+04  0.45790620110E+03 0.  0.
      99925    2    3    3    0    0 -0.40537097872E+02  0.82828586111E+02 -0.72582312301E+03  0.77746417250E+03  0.26292109584E+03 0.  0.
         25    1    3    3    0    0  0.40537097872E+02 -0.82828586111E+02 -0.82665215293E+03  0.84113323619E+03  0.12509000000E+03 0.  0.
         25    1    4    4    0    0 -0.30046666471E+02  0.47636988277E+02 -0.47989338086E+03  0.49911646929E+03  0.12509000000E+03 0.  0.
         25    1    4    4    0    0 -0.10490431401E+02  0.35191597834E+02 -0.24592974215E+03  0.27834770321E+03  0.12509000000E+03 0.  0.
<mgrwt>
<rscale>  2 0.45790620E+03</rscale>
<asrwt>0</asrwt>
<pdfrwt beam="1">  1       21 0.48619212E-02 0.45790620E+03</pdfrwt>
<pdfrwt beam="2">  1       21 0.23316712E+00 0.45790620E+03</pdfrwt>
<totfact> 0.20545227E+04</totfact>
</mgrwt>
</event>
<event>
 7    0  0.4770865E-002  0.4583255E+03  0.7546771E-02  0.1025268E+00
         21   -1    0    0  502  501  0.00000000000E+00  0.00000000000E+00  0.24169248812E+02  0.24169248812E+02  0.00000000000E+00 0. -1.
         21   -1    0    0  501  502 -0.00000000000E+00 -0.00000000000E+00 -0.21728261382E+04  0.21728261382E+04  0.00000000000E+00 0. -1.
      99926    2    1    2    0    0  0.00000000000E+00  0.00000000000E+00 -0.21486568893E+04  0.21969953870E+04  0.45832554176E+03 0.  0.
      99925    2    3    3    0    0  0.83486334460E+02 -0.48570515427E+02 -0.10379511101E+04  0.10751023889E+04  0.26300870063E+03 0.  0.
         25    1    4    4    0    0  0.65403729250E+01 -0.12761040837E+01 -0.42958259632E+03  0.44747415577E+03  0.12509000000E+03 0.  0.
         25    1    4    4    0    0  0.76945961535E+02 -0.47294411343E+02 -0.60836851381E+03  0.62762823314E+03  0.12509000000E+03 0.  0.
         25    1    3    3    0    0 -0.83486334460E+02  0.48570515427E+02 -0.11107057792E+04  0.11218929981E+04  0.12509000000E+03 0.  0.
<mgrwt>
<rscale>  2 0.45832554E+03</rscale>
<asrwt>0</asrwt>
<pdfrwt beam="1">  1       21 0.35543001E-02 0.45832554E+03</pdfrwt>
<pdfrwt beam="2">  1       21 0.31953337E+00 0.45832554E+03</pdfrwt>
<totfact> 0.10478843E+04</totfact>
</mgrwt>
</event>
<event>
 7    0  0.4770865E-002  0.4572132E+03  0.7546771E-02  0.1025593E+00
         21   -1    0    0  502  501  0.00000000000E+00  0.00000000000E+00  0.89651029820E+03  0.89651029820E+03  0.00000000000E+00 0.  1.
         21   -1    0    0  501  502 -0.00000000000E+00 -0.00000000000E+00 -0.58293793758E+02  0.58293793758E+02  0.00000000000E+00 0.  1.
      99926    2    1    2    0    0  0.00000000000E+00 -0.35527136788E-14  0.83821650445E+03  0.95480409196E+03  0.45721323876E+03 0.  0.
      99925    2    3    3    0    0  0.80441399112E+02 -0.31006758526E+02  0.68592067271E+03  0.73969071202E+03  0.26310253217E+03 0.  0.
         25    1    4    4    0    0  0.72944263984E+02  0.95432898909E+01  0.35360084602E+03  0.38222114860E+03  0.12509000000E+03 0.  0.
         25    1    4    4    0    0  0.74971351278E+01 -0.40550048417E+02  0.33231982669E+03  0.35746956342E+03  0.12509000000E+03 0.  0.
         25    1    3    3    0    0 -0.80441399112E+02  0.31006758526E+02  0.15229583174E+03  0.21511337994E+03  0.12509000000E+03 0.  0.
<mgrwt>
<rscale>  2 0.45721324E+03</rscale>
<asrwt>0</asrwt>
<pdfrwt beam="1">  1       21 0.13183974E+00 0.45721324E+03</pdfrwt>
<pdfrwt beam="2">  1       21 0.85726173E-02 0.45721324E+03</pdfrwt>
<totfact> 0.40245870E+04</totfact>
</mgrwt>
</event>
<event>
 7    0  0.4770865E-002  0.4689728E+03  0.7546771E-02  0.1022211E+00
         21   -1    0    0  502  501  0.00000000000E+00  0.00000000000E+00  0.22020421329E+03  0.22020421329E+03  0.00000000000E+00 0.  1.
         21   -1    0    0  501  502 -0.00000000000E+00 -0.00000000000E+00 -0.24969495728E+03  0.24969495728E+03  0.00000000000E+00 0.  1.
      99926    2    1    2    0    0  0.00000000000E+00  0.35527136788E-14 -0.29490743993E+02  0.46989917056E+03  0.46897284198E+03 0.  0.
      99925    2    3    3    0    0  0.38194995039E+02 -0.16329257850E+02 -0.13737023748E+03  0.29957302600E+03  0.26295990845E+03 0.  0.
         25    1    3    3    0    0 -0.38194995039E+02  0.16329257850E+02  0.10787949349E+03  0.17032614457E+03  0.12509000000E+03 0.  0.
         25    1    4    4    0    0  0.46278484641E+02 -0.19987891385E+02 -0.39598597814E+02  0.14055878127E+03  0.12509000000E+03 0.  0.
         25    1    4    4    0    0 -0.80834896027E+01  0.36586335350E+01 -0.97771639667E+02  0.15901424473E+03  0.12509000000E+03 0.  0.
<mgrwt>
<rscale>  2 0.46897284E+03</rscale>
<asrwt>0</asrwt>
<pdfrwt beam="1">  1       21 0.32382973E-01 0.46897284E+03</pdfrwt>
<pdfrwt beam="2">  1       21 0.36719846E-01 0.46897284E+03</pdfrwt>
<totfact> 0.60442914E+04</totfact>
</mgrwt>
</event>
<event>
 7    0  0.4770865E-002  0.4577171E+03  0.7546771E-02  0.1025445E+00
         21   -1    0    0  502  501  0.00000000000E+00  0.00000000000E+00  0.10840712032E+03  0.10840712032E+03  0.00000000000E+00 0. -1.
         21   -1    0    0  501  502 -0.00000000000E+00 -0.00000000000E+00 -0.48314396519E+03  0.48314396519E+03  0.00000000000E+00 0. -1.
      99926    2    1    2    0    0  0.17763568394E-14  0.00000000000E+00 -0.37473684487E+03  0.59155108552E+03  0.45771714396E+03 0.  0.
      99925    2    3    3    0    0  0.11945851727E+02 -0.44578261163E+02 -0.37235564337E+03  0.45819778424E+03  0.26299536039E+03 0.  0.
         25    1    4    4    0    0  0.44685526148E+02 -0.17447387677E+02 -0.20648773275E+03  0.24614203107E+03  0.12509000000E+03 0.  0.
         25    1    4    4    0    0 -0.32739674421E+02 -0.27130873486E+02 -0.16586791062E+03  0.21205575316E+03  0.12509000000E+03 0.  0.
         25    1    3    3    0    0 -0.11945851727E+02  0.44578261163E+02 -0.23812014995E+01  0.13335330128E+03  0.12509000000E+03 0.  0.
<mgrwt>
<rscale>  2 0.45771714E+03</rscale>
<asrwt>0</asrwt>
<pdfrwt beam="1">  1       21 0.15942224E-01 0.45771714E+03</pdfrwt>
<pdfrwt beam="2">  1       21 0.71050583E-01 0.45771714E+03</pdfrwt>
<totfact> 0.57946924E+04</totfact>
</mgrwt>
</event>
<event>
 7    0  0.4770865E-002  0.4383135E+03  0.7546771E-02  0.1031266E+00
         21   -1    0    0  502  501  0.00000000000E+00  0.00000000000E+00  0.11387259257E+03  0.11387259257E+03  0.00000000000E+00 0. -1.
         21   -1    0    0  501  502 -0.00000000000E+00 -0.00000000000E+00 -0.42178435617E+03  0.42178435617E+03  0.00000000000E+00 0. -1.
      99926    2    1    2    0    0  0.00000000000E+00  0.00000000000E+00 -0.30791176361E+03  0.53565694874E+03  0.43831348664E+03 0.  0.
      99925    2    3    3    0    0  0.69435039712E+02  0.60152476694E+02 -0.23365163243E+03  0.36360573435E+03  0.26301425726E+03 0.  0.
         25    1    4    4    0    0  0.47862117453E+02  0.26412347301E+02 -0.68928434577E+02  0.15292819089E+03  0.12509000000E+03 0.  0.
         25    1    4    4    0    0  0.21572922259E+02  0.33740129393E+02 -0.16472319785E+03  0.21067754345E+03  0.12509000000E+03 0.  0.
         25    1    3    3    0    0 -0.69435039712E+02 -0.60152476694E+02 -0.74260131180E+02  0.17205121440E+03  0.12509000000E+03 0.  0.
<mgrwt>
<rscale>  2 0.43831349E+03</rscale>
<asrwt>0</asrwt>
<pdfrwt beam="1">  1       21 0.16745970E-01 0.43831349E+03</pdfrwt>
<pdfrwt beam="2">  1       21 0.62027111E-01 0.43831349E+03</pdfrwt>
<totfact> 0.71854142E+04</totfact>
</mgrwt>
</event>
<event>
 7    0  0.4770865E-002  0.4692226E+03  0.7546771E-02  0.1022140E+00
         21   -1    0    0  502  501  0.00000000000E+00  0.00000000000E+00  0.60541659478E+02  0.60541659478E+02  0.00000000000E+00 0. -1.
         21   -1    0    0  501  502 -0.00000000000E+00 -0.00000000000E+00 -0.90916659305E+03  0.90916659305E+03  0.00000000000E+00 0. -1.
      99926    2    1    2    0    0  0.00000000000E+00  0.35527136788E-14 -0.84862493357E+03  0.96970825253E+03  0.46922256675E+03 0.  0.
      99925    2    3    3    0    0 -0.51295584835E+02  0.24305438770E+02 -0.76002822941E+03  0.80624915836E+03  0.26300723276E+03 0.  0.
         25    1    4    4    0    0 -0.18399097649E+02  0.47790361217E+02 -0.43934763114E+03  0.45966976680E+03  0.12509000000E+03 0.  0.
         25    1    4    4    0    0 -0.32896487186E+02 -0.23484922448E+02 -0.32068059826E+03  0.34657939156E+03  0.12509000000E+03 0.  0.
         25    1    3    3    0    0  0.51295584835E+02 -0.24305438770E+02 -0.88596704166E+02  0.16345909417E+03  0.12509000000E+03 0.  0.
<mgrwt>
<rscale>  2 0.46922257E+03</rscale>
<asrwt>0</asrwt>
<pdfrwt beam="1">  1       21 0.89031857E-02 0.46922257E+03</pdfrwt>
<pdfrwt beam="2">  1       21 0.13370096E+00 0.46922257E+03</pdfrwt>
<totfact> 0.36161304E+04</totfact>
</mgrwt>
</event>
<event>
 7    0  0.4770865E-002  0.4402995E+03  0.7546771E-02  0.1030655E+00
         21   -1    0    0  502  501  0.00000000000E+00  0.00000000000E+00  0.40202780700E+03  0.40202780700E+03  0.00000000000E+00 0. -1.
         21   -1    0    0  501  502 -0.00000000000E+00 -0.00000000000E+00 -0.12055364482E+03  0.12055364482E+03  0.00000000000E+00 0. -1.
      99926    2    1    2    0    0  0.17763568394E-14  0.00000000000E+00  0.28147416218E+03  0.52258145182E+03  0.44029952284E+03 0.  0.
      99925    2    3    3    0    0 -0.15332971070E+02  0.95478617033E+02  0.20341532559E+03  0.34625233799E+03  0.26298597029E+03 0.  0.
         25    1    4    4    0    0  0.95684213041E+01  0.75012786196E+02  0.75742174767E+02  0.16462945641E+03  0.12509000000E+03 0.  0.
         25    1    3    3    0    0  0.15332971070E+02 -0.95478617033E+02  0.78058836587E+02  0.17632911382E+03  0.12509000000E+03 0.  0.
         25    1    4    4    0    0 -0.24901392374E+02  0.20465830838E+02  0.12767315082E+03  0.18162288159E+03  0.12509000000E+03 0.  0.
<mgrwt>
<rscale>  2 0.44029952E+03</rscale>
<asrwt>0</asrwt>
<pdfrwt beam="1">  1       21 0.59121736E-01 0.44029952E+03</pdfrwt>
<pdfrwt beam="2">  1       21 0.17728477E-01 0.44029952E+03</pdfrwt>
<totfact> 0.71703607E+04</totfact>
</mgrwt>
</event>
<event>
 7    0  0.4770865E-002  0.4510629E+03  0.7546771E-02  0.1027406E+00
         21   -1    0    0  502  501  0.00000000000E+00  0.00000000000E+00  0.21747694809E+03  0.21747694809E+03  0.00000000000E+00 0. -1.
         21   -1    0    0  501  502 -0.00000000000E+00 -0.00000000000E+00 -0.23388428213E+03  0.23388428213E+03  0.00000000000E+00 0. -1.
      99926    2    1    2    0    0  0.00000000000E+00  0.00000000000E+00 -0.16407334039E+02  0.45136123022E+03  0.45106292192E+03 0.  0.
      99925    2    3    3    0    0 -0.89533495508E+02 -0.62346636399E+02 -0.23842157120E+01  0.28478540413E+03  0.26304693884E+03 0.  0.
         25    1    3    3    0    0  0.89533495508E+02  0.62346636399E+02 -0.14023118327E+02  0.16657582609E+03  0.12509000000E+03 0.  0.
         25    1    4    4    0    0 -0.62376284215E+02 -0.20434680559E+02  0.33934234631E+02  0.14528391990E+03  0.12509000000E+03 0.  0.
         25    1    4    4    0    0 -0.27157211293E+02 -0.41911955840E+02 -0.36318450343E+02  0.13950148423E+03  0.12509000000E+03 0.  0.
<mgrwt>
<rscale>  2 0.45106292E+03</rscale>
<asrwt>0</asrwt>
<pdfrwt beam="1">  1       21 0.31981904E-01 0.45106292E+03</pdfrwt>
<pdfrwt beam="2">  1       21 0.34394747E-01 0.45106292E+03</pdfrwt>
<totfact> 0.71018056E+04</totfact>
</mgrwt>
</event>
<event>
 7    0  0.4770865E-002  0.4554456E+03  0.7546771E-02  0.1026110E+00
         21   -1    0    0  502  501  0.00000000000E+00  0.00000000000E+00  0.94929326906E+02  0.94929326906E+02  0.00000000000E+00 0.  1.
         21   -1    0    0  501  502 -0.00000000000E+00 -0.00000000000E+00 -0.54627657055E+03  0.54627657055E+03  0.00000000000E+00 0.  1.
      99926    2    1    2    0    0  0.00000000000E+00  0.14210854715E-13 -0.45134724364E+03  0.64120589745E+03  0.45544557149E+03 0.  0.
      99925    2    3    3    0    0  0.83649464344E+02  0.76841535536E+02 -0.28555357029E+03  0.40448474358E+03  0.26299279803E+03 0.  0.
         25    1    4    4    0    0  0.14909831229E+02  0.56401425626E+02 -0.10501269555E+03  0.17343182582E+03  0.12509000000E+03 0.  0.
         25    1    4    4    0    0  0.68739633115E+02  0.20440109909E+02 -0.18054087474E+03  0.23105291776E+03  0.12509000000E+03 0.  0.
         25    1    3    3    0    0 -0.83649464344E+02 -0.76841535536E+02 -0.16579367335E+03  0.23672115387E+03  0.12509000000E+03 0.  0.
<mgrwt>
<rscale>  2 0.45544557E+03</rscale>
<asrwt>0</asrwt>
<pdfrwt beam="1">  1       21 0.13960195E-01 0.45544557E+03</pdfrwt>
<pdfrwt beam="2">  1       21 0.80334789E-01 0.45544557E+03</pdfrwt>
<totfact> 0.56013769E+04</totfact>
</mgrwt>
</event>
<event>
 7    0  0.4770865E-002  0.4476521E+03  0.7546771E-02  0.1028425E+00
         21   -1    0    0  502  501  0.00000000000E+00  0.00000000000E+00  0.27358532353E+02  0.27358532353E+02  0.00000000000E+00 0. -1.
         21   -1    0    0  501  502 -0.00000000000E+00 -0.00000000000E+00 -0.18311689012E+04  0.18311689012E+04  0.00000000000E+00 0. -1.
      99926    2    1    2    0    0  0.00000000000E+00  0.00000000000E+00 -0.18038103688E+04  0.18585274335E+04  0.44765206858E+03 0.  0.
      99925    2    3    3    0    0 -0.97810262265E+02  0.27120024058E+02 -0.12699769098E+04  0.13009182396E+04  0.26314363288E+03 0.  0.
         25    1    4    4    0    0 -0.25480242084E+02 -0.19279789294E+00 -0.44550419780E+03  0.46343368270E+03  0.12509000000E+03 0.  0.
         25    1    4    4    0    0 -0.72330020181E+02  0.27312821951E+02 -0.82447271205E+03  0.83748455692E+03  0.12509000000E+03 0.  0.
         25    1    3    3    0    0  0.97810262265E+02 -0.27120024058E+02 -0.53383345899E+03  0.55760919393E+03  0.12509000000E+03 0.  0.
<mgrwt>
<rscale>  2 0.44765207E+03</rscale>
<asrwt>0</asrwt>
<pdfrwt beam="1">  1       21 0.40233135E-02 0.44765207E+03</pdfrwt>
<pdfrwt beam="2">  1       21 0.26928955E+00 0.44765207E+03</pdfrwt>
<totfact> 0.17115631E+04</totfact>
</mgrwt>
</event>
<event>
 7    0  0.4770865E-002  0.4246416E+03  0.7546771E-02  0.1035566E+00
         21   -1    0    0  502  501  0.00000000000E+00  0.00000000000E+00  0.21724892555E+03  0.21724892555E+03  0.00000000000E+00 0. -1.
         21   -1    0    0  501  502 -0.00000000000E+00 -0.00000000000E+00 -0.20750449582E+03  0.20750449582E+03  0.00000000000E+00 0. -1.
      99926    2    1    2    0    0  0.35527136788E-14  0.35527136788E-14  0.97444297326E+01  0.42475342138E+03  0.42464163133E+03 0.  0.
      99925    2    3    3    0    0 -0.27082843856E+02 -0.23145073094E+02 -0.66103198124E+02  0.27418933007E+03  0.26370624013E+03 0.  0.
         25    1    4    4    0    0  0.18813097928E+02  0.10847075866E+02 -0.16613572662E+02  0.12804339345E+03  0.12509000000E+03 0.  0.
         25    1    4    4    0    0 -0.45895941784E+02 -0.33992148960E+02 -0.49489625462E+02  0.14614593662E+03  0.12509000000E+03 0.  0.
         25    1    3    3    0    0  0.27082843856E+02  0.23145073094E+02  0.75847627857E+02  0.15056409131E+03  0.12509000000E+03 0.  0.
<mgrwt>
<rscale>  2 0.42464163E+03</rscale>
<asrwt>0</asrwt>
<pdfrwt beam="1">  1       21 0.31948372E-01 0.42464163E+03</pdfrwt>
<pdfrwt beam="2">  1       21 0.30515367E-01 0.42464163E+03</pdfrwt>
<totfact> 0.90930108E+04</totfact>
</mgrwt>
</event>
<event>
 7    0  0.4770865E-002  0.4697576E+03  0.7546771E-02  0.1021989E+00
         21   -1    0    0  502  501  0.00000000000E+00  0.00000000000E+00  0.47885002797E+03  0.47885002797E+03  0.00000000000E+00 0.  1.
         21   -1    0    0  501  502 -0.00000000000E+00 -0.00000000000E+00 -0.11520943576E+03  0.11520943576E+03  0.00000000000E+00 0.  1.
      99926    2    1    2    0    0 -0.71054273576E-14 -0.14210854715E-13  0.36364059222E+03  0.59405946373E+03  0.46975756102E+03 0.  0.
      99925    2    3    3    0    0 -0.50965868867E+02 -0.82168657772E+02  0.32906907226E+03  0.43222032692E+03  0.26301853277E+03 0.  0.
         25    1    4    4    0    0 -0.42429873439E+02 -0.34873406565E+01  0.15044875976E+03  0.20023684256E+03  0.12509000000E+03 0.  0.
         25    1    4    4    0    0 -0.85359954274E+01 -0.78681317115E+02  0.17862031249E+03  0.23198348436E+03  0.12509000000E+03 0.  0.
         25    1    3    3    0    0  0.50965868867E+02  0.82168657772E+02  0.34571519959E+02  0.16183913680E+03  0.12509000000E+03 0.  0.
<mgrwt>
<rscale>  2 0.46975756E+03</rscale>
<asrwt>0</asrwt>
<pdfrwt beam="1">  1       21 0.70419121E-01 0.46975756E+03</pdfrwt>
<pdfrwt beam="2">  1       21 0.16942564E-01 0.46975756E+03</pdfrwt>
<totfact> 0.52632884E+04</totfact>
</mgrwt>
</event>
<event>
 7    0  0.4770865E-002  0.4813500E+03  0.7546771E-02  0.1018765E+00
         21   -1    0    0  502  501  0.00000000000E+00  0.00000000000E+00  0.42550505102E+03  0.42550505102E+03  0.00000000000E+00 0. -1.
         21   -1    0    0  501  502 -0.00000000000E+00 -0.00000000000E+00 -0.13613106579E+03  0.13613106579E+03  0.00000000000E+00 0. -1.
      99926    2    1    2    0    0  0.00000000000E+00  0.00000000000E+00  0.28937398523E+03  0.56163611681E+03  0.48135000195E+03 0.  0.
      99925    2    3    3    0    0  0.65506789365E+02 -0.11785621228E+03  0.15424235748E+03  0.33340533198E+03  0.26303456869E+03 0.  0.
         25    1    4    4    0    0  0.33306848002E+02 -0.35367959888E+02  0.33538566251E+02  0.13832057778E+03  0.12509000000E+03 0.  0.
         25    1    4    4    0    0  0.32199941362E+02 -0.82488252392E+02  0.12070379123E+03  0.19508475420E+03  0.12509000000E+03 0.  0.
         25    1    3    3    0    0 -0.65506789365E+02  0.11785621228E+03  0.13513162775E+03  0.22823078483E+03  0.12509000000E+03 0.  0.
<mgrwt>
<rscale>  2 0.48135000E+03</rscale>
<asrwt>0</asrwt>
<pdfrwt beam="1">  1       21 0.62574272E-01 0.48135000E+03</pdfrwt>
<pdfrwt beam="2">  1       21 0.20019274E-01 0.48135000E+03</pdfrwt>
<totfact> 0.49862737E+04</totfact>
</mgrwt>
</event>
<event>
 7    0  0.4770865E-002  0.4443452E+03  0.7546771E-02  0.1029422E+00
         21   -1    0    0  502  501  0.00000000000E+00  0.00000000000E+00  0.10183152085E+04  0.10183152085E+04  0.00000000000E+00 0. -1.
         21   -1    0    0  501  502 -0.00000000000E+00 -0.00000000000E+00 -0.48472879458E+02  0.48472879458E+02  0.00000000000E+00 0. -1.
      99926    2    1    2    0    0  0.00000000000E+00  0.00000000000E+00  0.96984232904E+03  0.10667880880E+04  0.44434522773E+03 0.  0.
      99925    2    3    3    0    0 -0.34479111906E+02 -0.86226492086E+02  0.50981227737E+03  0.58109376677E+03  0.26294027938E+03 0.  0.
         25    1    4    4    0    0  0.60401367908E+01 -0.33448914212E+02  0.31125173578E+03  0.33716533665E+03  0.12509000000E+03 0.  0.
         25    1    4    4    0    0 -0.40519248697E+02 -0.52777577874E+02  0.19856054159E+03  0.24392843012E+03  0.12509000000E+03 0.  0.
         25    1    3    3    0    0  0.34479111906E+02  0.86226492086E+02  0.46003005167E+03  0.48569432119E+03  0.12509000000E+03 0.  0.
<mgrwt>
<rscale>  2 0.44434523E+03</rscale>
<asrwt>0</asrwt>
<pdfrwt beam="1">  1       21 0.14975222E+00 0.44434523E+03</pdfrwt>
<pdfrwt beam="2">  1       21 0.71283653E-02 0.44434523E+03</pdfrwt>
<totfact> 0.39881655E+04</totfact>
</mgrwt>
</event>
<event>
 7    0  0.4770865E-002  0.4535394E+03  0.7546771E-02  0.1026672E+00
         21   -1    0    0  502  501  0.00000000000E+00  0.00000000000E+00  0.53121468634E+03  0.53121468634E+03  0.00000000000E+00 0. -1.
         21   -1    0    0  501  502 -0.00000000000E+00 -0.00000000000E+00 -0.96805487131E+02  0.96805487131E+02  0.00000000000E+00 0. -1.
      99926    2    1    2    0    0  0.00000000000E+00  0.71054273576E-14  0.43440919921E+03  0.62802017347E+03  0.45353939843E+03 0.  0.
      99925    2    3    3    0    0  0.70329175396E+02 -0.37327358955E+02  0.38235369589E+03  0.47086799193E+03  0.26302622003E+03 0.  0.
         25    1    4    4    0    0  0.40835824187E+02 -0.35242944944E+02  0.25939748973E+03  0.29299180105E+03  0.12509000000E+03 0.  0.
         25    1    4    4    0    0  0.29493351209E+02 -0.20844140113E+01  0.12295620616E+03  0.17787619088E+03  0.12509000000E+03 0.  0.
         25    1    3    3    0    0 -0.70329175396E+02  0.37327358955E+02  0.52055503321E+02  0.15715218155E+03  0.12509000000E+03 0.  0.
<mgrwt>
<rscale>  2 0.45353940E+03</rscale>
<asrwt>0</asrwt>
<pdfrwt beam="1">  1       21 0.78119805E-01 0.45353940E+03</pdfrwt>
<pdfrwt beam="2">  1       21 0.14236101E-01 0.45353940E+03</pdfrwt>
<totfact> 0.57647713E+04</totfact>
</mgrwt>
</event>
<event>
 7    0  0.4770865E-002  0.4531536E+03  0.7546771E-02  0.1026786E+00
         21   -1    0    0  502  501  0.00000000000E+00  0.00000000000E+00  0.47426667186E+02  0.47426667186E+02  0.00000000000E+00 0. -1.
         21   -1    0    0  501  502 -0.00000000000E+00 -0.00000000000E+00 -0.10824508993E+04  0.10824508993E+04  0.00000000000E+00 0. -1.
      99926    2    1    2    0    0 -0.17763568394E-14  0.00000000000E+00 -0.10350242321E+04  0.11298775665E+04  0.45315356579E+03 0.  0.
      99925    2    3    3    0    0 -0.74187689680E+01 -0.35054344169E+02 -0.38806701336E+03  0.46996469635E+03  0.26265369553E+03 0.  0.
         25    1    4    4    0    0  0.28306892795E+02 -0.20135827127E+02 -0.15098590631E+03  0.19912554763E+03  0.12509000000E+03 0.  0.
         25    1    4    4    0    0 -0.35725661763E+02 -0.14918517042E+02 -0.23708110706E+03  0.27083914872E+03  0.12509000000E+03 0.  0.
         25    1    3    3    0    0  0.74187689680E+01  0.35054344169E+02 -0.64695721877E+03  0.65991287016E+03  0.12509000000E+03 0.  0.
<mgrwt>
<rscale>  2 0.45315357E+03</rscale>
<asrwt>0</asrwt>
<pdfrwt beam="1">  1       21 0.69745102E-02 0.45315357E+03</pdfrwt>
<pdfrwt beam="2">  1       21 0.15918395E+00 0.45315357E+03</pdfrwt>
<totfact> 0.34961882E+04</totfact>
</mgrwt>
</event>
<event>
 7    0  0.4770865E-002  0.4142534E+03  0.7546771E-02  0.1038953E+00
         21   -1    0    0  502  501  0.00000000000E+00  0.00000000000E+00  0.69569144575E+02  0.69569144575E+02  0.00000000000E+00 0. -1.
         21   -1    0    0  501  502 -0.00000000000E+00 -0.00000000000E+00 -0.61667374293E+03  0.61667374293E+03  0.00000000000E+00 0. -1.
      99926    2    1    2    0    0 -0.71054273576E-14  0.00000000000E+00 -0.54710459835E+03  0.68624288750E+03  0.41425337550E+03 0.  0.
      99925    2    3    3    0    0 -0.61338900442E+02 -0.28653371766E+02 -0.33919279558E+03  0.43433357395E+03  0.26269835262E+03 0.  0.
         25    1    3    3    0    0  0.61338900442E+02  0.28653371766E+02 -0.20791180277E+03  0.25190931355E+03  0.12509000000E+03 0.  0.
         25    1    4    4    0    0 -0.11700099196E+02  0.21314517664E+02 -0.16963065523E+03  0.21216330568E+03  0.12509000000E+03 0.  0.
         25    1    4    4    0    0 -0.49638801246E+02 -0.49967889430E+02 -0.16956214035E+03  0.22217026827E+03  0.12509000000E+03 0.  0.
<mgrwt>
<rscale>  2 0.41425338E+03</rscale>
<asrwt>0</asrwt>
<pdfrwt beam="1">  1       21 0.10230757E-01 0.41425338E+03</pdfrwt>
<pdfrwt beam="2">  1       21 0.90687314E-01 0.41425338E+03</pdfrwt>
<totfact> 0.74961443E+04</totfact>
</mgrwt>
</event>
<event>
 7    0  0.4770865E-002  0.4495298E+03  0.7546771E-02  0.1027862E+00
         21   -1    0    0  502  501  0.00000000000E+00  0.00000000000E+00  0.15524153032E+03  0.15524153032E+03  0.00000000000E+00 0.  1.
         21   -1    0    0  501  502 -0.00000000000E+00 -0.00000000000E+00 -0.32542364015E+03  0.32542364015E+03  0.00000000000E+00 0.  1.
      99926    2    1    2    0    0  0.13322676296E-14  0.17763568394E-14 -0.17018210983E+03  0.48066517047E+03  0.44952981614E+03 0.  0.
      99925    2    3    3    0    0 -0.35647437774E+01 -0.10246671954E+02 -0.22249571674E+03  0.34464339555E+03  0.26297723180E+03 0.  0.
         25    1    3    3    0    0  0.35647437774E+01  0.10246671954E+02  0.52313606910E+02  0.13602177492E+03  0.12509000000E+03 0.  0.
         25    1    4    4    0    0 -0.24486291425E+02  0.21770799567E+02 -0.13692670838E+03  0.18833474918E+03  0.12509000000E+03 0.  0.
         25    1    4    4    0    0  0.20921547647E+02 -0.32017471522E+02 -0.85569008359E+02  0.15630864637E+03  0.12509000000E+03 0.  0.
<mgrwt>
<rscale>  2 0.44952982E+03</rscale>
<asrwt>0</asrwt>
<pdfrwt beam="1">  1       21 0.22829637E-01 0.44952982E+03</pdfrwt>
<pdfrwt beam="2">  1       21 0.47856417E-01 0.44952982E+03</pdfrwt>
<totfact> 0.69626357E+04</totfact>
</mgrwt>
</event>
<event>
 7    0  0.4770865E-002  0.4572342E+03  0.7546771E-02  0.1025586E+00
         21   -1    0    0  502  501  0.00000000000E+00  0.00000000000E+00  0.48955957533E+03  0.48955957533E+03  0.00000000000E+00 0. -1.
         21   -1    0    0  501  502 -0.00000000000E+00 -0.00000000000E+00 -0.10676079485E+03  0.10676079485E+03  0.00000000000E+00 0. -1.
      99926    2    1    2    0    0  0.00000000000E+00  0.14210854715E-13  0.38279878048E+03  0.59632037018E+03  0.45723416053E+03 0.  0.
      99925    2    3    3    0    0  0.63212428179E+02 -0.96326000876E+02  0.24160460397E+03  0.37528233476E+03  0.26303904008E+03 0.  0.
         25    1    4    4    0    0  0.36337582985E+02 -0.53942315321E+02  0.17563209241E+03  0.22522063250E+03  0.12509000000E+03 0.  0.
         25    1    3    3    0    0 -0.63212428179E+02  0.96326000876E+02  0.14119417651E+03  0.22103803542E+03  0.12509000000E+03 0.  0.
         25    1    4    4    0    0  0.26874845195E+02 -0.42383685555E+02  0.65972511560E+02  0.15006170227E+03  0.12509000000E+03 0.  0.
<mgrwt>
<rscale>  2 0.45723416E+03</rscale>
<asrwt>0</asrwt>
<pdfrwt beam="1">  1       21 0.71994054E-01 0.45723416E+03</pdfrwt>
<pdfrwt beam="2">  1       21 0.15700117E-01 0.45723416E+03</pdfrwt>
<totfact> 0.57876744E+04</totfact>
</mgrwt>
</event>
<event>
 7    0  0.4770865E-002  0.4581582E+03  0.7546771E-02  0.1025317E+00
         21   -1    0    0  502  501  0.00000000000E+00  0.00000000000E+00  0.42483573468E+02  0.42483573468E+02  0.00000000000E+00 0. -1.
         21   -1    0    0  501  502 -0.00000000000E+00 -0.00000000000E+00 -0.12352357872E+04  0.12352357872E+04  0.00000000000E+00 0. -1.
      99926    2    1    2    0    0  0.00000000000E+00  0.00000000000E+00 -0.11927522137E+04  0.12777193606E+04  0.45815818366E+03 0.  0.
      99925    2    3    3    0    0  0.40071533480E+02 -0.68536150715E+02 -0.98471594678E+03  0.10223186398E+04  0.26299614766E+03 0.  0.
         25    1    4    4    0    0 -0.34352535564E+01 -0.19049680073E+01 -0.40147342401E+03  0.42052805870E+03  0.12509000000E+03 0.  0.
         25    1    3    3    0    0 -0.40071533480E+02  0.68536150715E+02 -0.20803626691E+03  0.25540072083E+03  0.12509000000E+03 0.  0.
         25    1    4    4    0    0  0.43506787037E+02 -0.66631182708E+02 -0.58324252277E+03  0.60179058109E+03  0.12509000000E+03 0.  0.
<mgrwt>
<rscale>  2 0.45815818E+03</rscale>
<asrwt>0</asrwt>
<pdfrwt beam="1">  1       21 0.62475852E-02 0.45815818E+03</pdfrwt>
<pdfrwt beam="2">  1       21 0.18165230E+00 0.45815818E+03</pdfrwt>
<totfact> 0.29048216E+04</totfact>
</mgrwt>
</event>
<event>
 7    0  0.4770865E-002  0.4460293E+03  0.7546771E-02  0.1028913E+00
         21   -1    0    0  502  501  0.00000000000E+00  0.00000000000E+00  0.56535659398E+03  0.56535659398E+03  0.00000000000E+00 0.  1.
         21   -1    0    0  501  502 -0.00000000000E+00 -0.00000000000E+00 -0.87971978934E+02  0.87971978934E+02  0.00000000000E+00 0.  1.
      99926    2    1    2    0    0  0.00000000000E+00 -0.35527136788E-14  0.47738461505E+03  0.65332857291E+03  0.44602931911E+03 0.  0.
      99925    2    3    3    0    0  0.14493930145E+02  0.31586264946E+02  0.15847232359E+03  0.30900267513E+03  0.26298556947E+03 0.  0.
         25    1    3    3    0    0 -0.14493930145E+02 -0.31586264946E+02  0.31891229146E+03  0.34432589779E+03  0.12509000000E+03 0.  0.
         25    1    4    4    0    0 -0.56080406946E+01  0.52388349377E+02  0.67070571832E+02  0.15139999662E+03  0.12509000000E+03 0.  0.
         25    1    4    4    0    0  0.20101970839E+02 -0.20802084431E+02  0.91401751755E+02  0.15760267851E+03  0.12509000000E+03 0.  0.
<mgrwt>
<rscale>  2 0.44602932E+03</rscale>
<asrwt>0</asrwt>
<pdfrwt beam="1">  1       21 0.83140674E-01 0.44602932E+03</pdfrwt>
<pdfrwt beam="2">  1       21 0.12937056E-01 0.44602932E+03</pdfrwt>
<totfact> 0.59617705E+04</totfact>
</mgrwt>
</event>
<event>
 7    0  0.4770865E-002  0.4553485E+03  0.7546771E-02  0.1026139E+00
         21   -1    0    0  502  501  0.00000000000E+00  0.00000000000E+00  0.69892936250E+02  0.69892936250E+02  0.00000000000E+00 0. -1.
         21   -1    0    0  501  502 -0.00000000000E+00 -0.00000000000E+00 -0.74164233023E+03  0.74164233023E+03  0.00000000000E+00 0. -1.
      99926    2    1    2    0    0  0.00000000000E+00  0.00000000000E+00 -0.67174939398E+03  0.81153526648E+03  0.45534848240E+03 0.  0.
      99925    2    3    3    0    0  0.32767189042E+02  0.46059982631E+02 -0.59801468661E+03  0.65571637851E+03  0.26295853849E+03 0.  0.
         25    1    3    3    0    0 -0.32767189042E+02 -0.46059982631E+02 -0.73734707371E+02  0.15581888797E+03  0.12509000000E+03 0.  0.
         25    1    4    4    0    0  0.17750483028E+02 -0.51507765971E+01 -0.21694728950E+03  0.25110803386E+03  0.12509000000E+03 0.  0.
         25    1    4    4    0    0  0.15016706014E+02  0.51210759228E+02 -0.38106739711E+03  0.40460834465E+03  0.12509000000E+03 0.  0.
<mgrwt>
<rscale>  2 0.45534848E+03</rscale>
<asrwt>0</asrwt>
<pdfrwt beam="1">  1       21 0.10278373E-01 0.45534848E+03</pdfrwt>
<pdfrwt beam="2">  1       21 0.10906505E+00 0.45534848E+03</pdfrwt>
<totfact> 0.47083035E+04</totfact>
</mgrwt>
</event>
<event>
 7    0  0.4770865E-002  0.4560454E+03  0.7546771E-02  0.1025934E+00
         21   -1    0    0  502  501  0.00000000000E+00  0.00000000000E+00  0.76487557536E+02  0.76487557536E+02  0.00000000000E+00 0. -1.
         21   -1    0    0  501  502 -0.00000000000E+00 -0.00000000000E+00 -0.67977516156E+03  0.67977516156E+03  0.00000000000E+00 0. -1.
      99926    2    1    2    0    0  0.00000000000E+00  0.00000000000E+00 -0.60328760403E+03  0.75626271910E+03  0.45604535644E+03 0.  0.
      99925    2    3    3    0    0  0.78181660188E+02  0.19487468244E+02 -0.24530239884E+03  0.36858624491E+03  0.26304071862E+03 0.  0.
         25    1    4    4    0    0  0.60665518975E+02  0.28699510300E+02 -0.89544170719E+02  0.16783811752E+03  0.12509000000E+03 0.  0.
         25    1    3    3    0    0 -0.78181660188E+02 -0.19487468244E+02 -0.35798520518E+03  0.38767647418E+03  0.12509000000E+03 0.  0.
         25    1    4    4    0    0  0.17516141213E+02 -0.92120420555E+01 -0.15575822813E+03  0.20074812739E+03  0.12509000000E+03 0.  0.
<mgrwt>
<rscale>  2 0.45604536E+03</rscale>
<asrwt>0</asrwt>
<pdfrwt beam="1">  1       21 0.11248170E-01 0.45604536E+03</pdfrwt>
<pdfrwt beam="2">  1       21 0.99966934E-01 0.45604536E+03</pdfrwt>
<totfact> 0.49544242E+04</totfact>
</mgrwt>
</event>
<event>
 7    0  0.4770865E-002  0.4656919E+03  0.7546771E-02  0.1023143E+00
         21   -1    0    0  502  501  0.00000000000E+00  0.00000000000E+00  0.68207486833E+03  0.68207486833E+03  0.00000000000E+00 0. -1.
         21   -1    0    0  501  502 -0.00000000000E+00 -0.00000000000E+00 -0.79488694498E+02  0.79488694498E+02  0.00000000000E+00 0. -1.
      99926    2    1    2    0    0  0.00000000000E+00 -0.71054273576E-14  0.60258617383E+03  0.76156356282E+03  0.46569191891E+03 0.  0.
      99925    2    3    3    0    0  0.10626598195E+03 -0.60914804683E+02  0.38970228400E+03  0.48593676624E+03  0.26317978318E+03 0.  0.
         25    1    3    3    0    0 -0.10626598195E+03  0.60914804683E+02  0.21288388982E+03  0.27562679659E+03  0.12509000000E+03 0.  0.
         25    1    4    4    0    0  0.16610362569E+02 -0.53061723946E+01  0.15802266557E+03  0.20229367401E+03  0.12509000000E+03 0.  0.
         25    1    4    4    0    0  0.89655619383E+02 -0.55608632289E+02  0.23167961843E+03  0.28364309223E+03  0.12509000000E+03 0.  0.
<mgrwt>
<rscale>  2 0.46569192E+03</rscale>
<asrwt>0</asrwt>
<pdfrwt beam="1">  1       21 0.10030512E+00 0.46569192E+03</pdfrwt>
<pdfrwt beam="2">  1       21 0.11689514E-01 0.46569192E+03</pdfrwt>
<totfact> 0.45719427E+04</totfact>
</mgrwt>
</event>
<event>
 7    0  0.4770865E-002  0.4584133E+03  0.7546771E-02  0.1025242E+00
         21   -1    0    0  502  501  0.00000000000E+00  0.00000000000E+00  0.14036232814E+04  0.14036232814E+04  0.00000000000E+00 0.  1.
         21   -1    0    0  501  502 -0.00000000000E+00 -0.00000000000E+00 -0.37428631130E+02  0.37428631130E+02  0.00000000000E+00 0.  1.
      99926    2    1    2    0    0  0.00000000000E+00  0.00000000000E+00  0.13661946502E+04  0.14410519125E+04  0.45841334206E+03 0.  0.
      99925    2    3    3    0    0 -0.42224332864E+02 -0.10788844333E+03  0.82142196702E+03  0.87022129404E+03  0.26292250228E+03 0.  0.
         25    1    3    3    0    0  0.42224332864E+02  0.10788844333E+03  0.54477268322E+03  0.57083061847E+03  0.12509000000E+03 0.  0.
         25    1    4    4    0    0 -0.28634932310E+02 -0.26171037803E+02  0.29351939343E+03  0.32141254640E+03  0.12509000000E+03 0.  0.
         25    1    4    4    0    0 -0.13589400554E+02 -0.81717405529E+02  0.52790257360E+03  0.54880874764E+03  0.12509000000E+03 0.  0.
<mgrwt>
<rscale>  2 0.45841334E+03</rscale>
<asrwt>0</asrwt>
<pdfrwt beam="1">  1       21 0.20641515E+00 0.45841334E+03</pdfrwt>
<pdfrwt beam="2">  1       21 0.55042114E-02 0.45841334E+03</pdfrwt>
<totfact> 0.24599404E+04</totfact>
</mgrwt>
</event>
<event>
 7    0  0.4770865E-002  0.4655790E+03  0.7546771E-02  0.1023175E+00
         21   -1    0    0  502  501  0.00000000000E+00  0.00000000000E+00  0.37268317900E+02  0.37268317900E+02  0.00000000000E+00 0. -1.
         21   -1    0    0  501  502 -0.00000000000E+00 -0.00000000000E+00 -0.14540753997E+04  0.14540753997E+04  0.00000000000E+00 0. -1.
      99926    2    1    2    0    0 -0.14210854715E-13  0.00000000000E+00 -0.14168070818E+04  0.14913437176E+04  0.46557896965E+03 0.  0.
      99925    2    3    3    0    0  0.84826019170E+02 -0.46181167397E+02 -0.64030087471E+03  0.69891860979E+03  0.26300923785E+03 0.  0.
         25    1    4    4    0    0  0.74678729934E+01 -0.22923451406E+02 -0.23808837343E+03  0.27002747159E+03  0.12509000000E+03 0.  0.
         25    1    4    4    0    0  0.77358146177E+02 -0.23257715991E+02 -0.40221250129E+03  0.42889113820E+03  0.12509000000E+03 0.  0.
         25    1    3    3    0    0 -0.84826019170E+02  0.46181167397E+02 -0.77650620704E+03  0.79242510776E+03  0.12509000000E+03 0.  0.
<mgrwt>
<rscale>  2 0.46557897E+03</rscale>
<asrwt>0</asrwt>
<pdfrwt beam="1">  1       21 0.54806358E-02 0.46557897E+03</pdfrwt>
<pdfrwt beam="2">  1       21 0.21383459E+00 0.46557897E+03</pdfrwt>
<totfact> 0.22118026E+04</totfact>
</mgrwt>
</event>
<event>
 7    0  0.4770865E-002  0.4573540E+03  0.7546771E-02  0.1025551E+00
         21   -1    0    0  502  501  0.00000000000E+00  0.00000000000E+00  0.12187984410E+03  0.12187984410E+03  0.00000000000E+00 0.  1.
         21   -1    0    0  501  502 -0.00000000000E+00 -0.00000000000E+00 -0.42905506009E+03  0.42905506009E+03  0.00000000000E+00 0.  1.
      99926    2    1    2    0    0  0.00000000000E+00  0.00000000000E+00 -0.30717521599E+03  0.55093490419E+03  0.45735397160E+03 0.  0.
      99925    2    3    3    0    0 -0.52407993788E+02 -0.23265300312E+02 -0.31330921959E+03  0.41319236860E+03  0.26320599229E+03 0.  0.
         25    1    4    4    0    0 -0.47608613024E+02 -0.21898372587E+02 -0.21417772338E+03  0.25350685207E+03  0.12509000000E+03 0.  0.
         25    1    3    3    0    0  0.52407993788E+02  0.23265300312E+02  0.61340036057E+01  0.13774253559E+03  0.12509000000E+03 0.  0.
         25    1    4    4    0    0 -0.47993807637E+01 -0.13669277251E+01 -0.99131496218E+02  0.15968551653E+03  0.12509000000E+03 0.  0.
<mgrwt>
<rscale>  2 0.45735397E+03</rscale>
<asrwt>0</asrwt>
<pdfrwt beam="1">  1       21 0.17923507E-01 0.45735397E+03</pdfrwt>
<pdfrwt beam="2">  1       21 0.63096331E-01 0.45735397E+03</pdfrwt>
<totfact> 0.60666991E+04</totfact>
</mgrwt>
</event>
<event>
 7    0  0.4770865E-002  0.4541672E+03  0.7546771E-02  0.1026487E+00
         21   -1    0    0  502  501  0.00000000000E+00  0.00000000000E+00  0.44342687335E+03  0.44342687335E+03  0.00000000000E+00 0.  1.
         21   -1    0    0  501  502 -0.00000000000E+00 -0.00000000000E+00 -0.11629189842E+03  0.11629189842E+03  0.00000000000E+00 0.  1.
      99926    2    1    2    0    0  0.14210854715E-13  0.71054273576E-14  0.32713497493E+03  0.55971877176E+03  0.45416716266E+03 0.  0.
      99925    2    3    3    0    0 -0.43718015390E+02 -0.39698005464E+02  0.88165762228E+02  0.28360106275E+03  0.26300031304E+03 0.  0.
         25    1    3    3    0    0  0.43718015390E+02  0.39698005464E+02  0.23896921271E+03  0.27611770901E+03  0.12509000000E+03 0.  0.
         25    1    4    4    0    0  0.14651375437E+02 -0.30874383359E+02  0.57876258533E+02  0.14200373147E+03  0.12509000000E+03 0.  0.
         25    1    4    4    0    0 -0.58369390827E+02 -0.88236221050E+01  0.30289503695E+02  0.14159733128E+03  0.12509000000E+03 0.  0.
<mgrwt>
<rscale>  2 0.45416716E+03</rscale>
<asrwt>0</asrwt>
<pdfrwt beam="1">  1       21 0.65209834E-01 0.45416716E+03</pdfrwt>
<pdfrwt beam="2">  1       21 0.17101750E-01 0.45416716E+03</pdfrwt>
<totfact> 0.61633842E+04</totfact>
</mgrwt>
</event>
<event>
 7    0  0.4770865E-002  0.4610292E+03  0.7546771E-02  0.1024483E+00
         21   -1    0    0  502  501  0.00000000000E+00  0.00000000000E+00  0.11004209917E+04  0.11004209917E+04  0.00000000000E+00 0.  1.
         21   -1    0    0  501  502 -0.00000000000E+00 -0.00000000000E+00 -0.48287870505E+02  0.48287870505E+02  0.00000000000E+00 0.  1.
      99926    2    1    2    0    0 -0.17763568394E-14  0.00000000000E+00  0.10521331212E+04  0.11487088623E+04  0.46102922402E+03 0.  0.
      99925    2    3    3    0    0 -0.11114242381E+02  0.53584765574E+02  0.39600906772E+03  0.47852893477E+03  0.26300552506E+03 0.  0.
         25    1    4    4    0    0 -0.18992978710E+02  0.37593635969E+02  0.13641424724E+03  0.18981667381E+03  0.12509000000E+03 0.  0.
         25    1    4    4    0    0  0.78787363287E+01  0.15991129605E+02  0.25959482047E+03  0.28871226096E+03  0.12509000000E+03 0.  0.
         25    1    3    3    0    0  0.11114242381E+02 -0.53584765574E+02  0.65612405352E+03  0.67017992748E+03  0.12509000000E+03 0.  0.
<mgrwt>
<rscale>  2 0.46102922E+03</rscale>
<asrwt>0</asrwt>
<pdfrwt beam="1">  1       21 0.16182660E+00 0.46102922E+03</pdfrwt>
<pdfrwt beam="2">  1       21 0.71011582E-02 0.46102922E+03</pdfrwt>
<totfact> 0.32281684E+04</totfact>
</mgrwt>
</event>
<event>
 7    0  0.4770865E-002  0.4750059E+03  0.7546771E-02  0.1020517E+00
         21   -1    0    0  502  501  0.00000000000E+00  0.00000000000E+00  0.36704029599E+03  0.36704029599E+03  0.00000000000E+00 0.  1.
         21   -1    0    0  501  502 -0.00000000000E+00 -0.00000000000E+00 -0.15368244410E+03  0.15368244410E+03  0.00000000000E+00 0.  1.
      99926    2    1    2    0    0  0.71054273576E-14  0.14210854715E-13  0.21335785189E+03  0.52072274008E+03  0.47500589373E+03 0.  0.
      99925    2    3    3    0    0  0.39099866242E+02  0.84724934538E+02  0.23272782122E+03  0.36346556891E+03  0.26313089318E+03 0.  0.
         25    1    3    3    0    0 -0.39099866242E+02 -0.84724934538E+02 -0.19369969328E+02  0.15725717117E+03  0.12509000000E+03 0.  0.
         25    1    4    4    0    0  0.36748880614E+02  0.64830144400E+02  0.84003070591E+02  0.16809952950E+03  0.12509000000E+03 0.  0.
         25    1    4    4    0    0  0.23509856277E+01  0.19894790137E+02  0.14872475063E+03  0.19536603941E+03  0.12509000000E+03 0.  0.
<mgrwt>
<rscale>  2 0.47500589E+03</rscale>
<asrwt>0</asrwt>
<pdfrwt beam="1">  1       21 0.53976514E-01 0.47500589E+03</pdfrwt>
<pdfrwt beam="2">  1       21 0.22600360E-01 0.47500589E+03</pdfrwt>
<totfact> 0.54634447E+04</totfact>
</mgrwt>
</event>
<event>
 7    0  0.4770865E-002  0.4931297E+03  0.7546771E-02  0.1015588E+00
         21   -1    0    0  502  501  0.00000000000E+00  0.00000000000E+00  0.16004211441E+03  0.16004211441E+03  0.00000000000E+00 0. -1.
         21   -1    0    0  501  502 -0.00000000000E+00 -0.00000000000E+00 -0.37986398765E+03  0.37986398765E+03  0.00000000000E+00 0. -1.
      99926    2    1    2    0    0  0.00000000000E+00  0.00000000000E+00 -0.21982187325E+03  0.53990610206E+03  0.49312974265E+03 0.  0.
      99925    2    3    3    0    0 -0.10248441148E+03 -0.72165676720E+02 -0.21612204204E+03  0.36278428989E+03  0.26304517567E+03 0.  0.
         25    1    3    3    0    0  0.10248441148E+03  0.72165676720E+02 -0.36998312077E+01  0.17712181216E+03  0.12509000000E+03 0.  0.
         25    1    4    4    0    0 -0.57365011609E+02 -0.56370816574E+01 -0.13736361825E+03  0.19452196011E+03  0.12509000000E+03 0.  0.
         25    1    4    4    0    0 -0.45119399874E+02 -0.66528595062E+02 -0.78758423785E+02  0.16826232978E+03  0.12509000000E+03 0.  0.
<mgrwt>
<rscale>  2 0.49312974E+03</rscale>
<asrwt>0</asrwt>
<pdfrwt beam="1">  1       21 0.23535605E-01 0.49312974E+03</pdfrwt>
<pdfrwt beam="2">  1       21 0.55862351E-01 0.49312974E+03</pdfrwt>
<totfact> 0.46730313E+04</totfact>
</mgrwt>
</event>
<event>
 7    0  0.4770865E-002  0.4552640E+03  0.7546771E-02  0.1026164E+00
         21   -1    0    0  502  501  0.00000000000E+00  0.00000000000E+00  0.12725146643E+03  0.12725146643E+03  0.00000000000E+00 0.  1.
         21   -1    0    0  501  502 -0.00000000000E+00 -0.00000000000E+00 -0.40719624506E+03  0.40719624506E+03  0.00000000000E+00 0.  1.
      99926    2    1    2    0    0  0.00000000000E+00  0.00000000000E+00 -0.27994477863E+03  0.53444771149E+03  0.45526396436E+03 0.  0.
      99925    2    3    3    0    0 -0.42802400126E+01 -0.52734621524E+02 -0.29429110344E+03  0.39787324134E+03  0.26248162193E+03 0.  0.
         25    1    4    4    0    0  0.13732051051E+01 -0.37641110276E+02 -0.20594802615E+03  0.24388693374E+03  0.12509000000E+03 0.  0.
         25    1    4    4    0    0 -0.56534451178E+01 -0.15093511248E+02 -0.88343077286E+02  0.15398630760E+03  0.12509000000E+03 0.  0.
         25    1    3    3    0    0  0.42802400126E+01  0.52734621524E+02  0.14346324811E+02  0.13657447015E+03  0.12509000000E+03 0.  0.
<mgrwt>
<rscale>  2 0.45526396E+03</rscale>
<asrwt>0</asrwt>
<pdfrwt beam="1">  1       21 0.18713451E-01 0.45526396E+03</pdfrwt>
<pdfrwt beam="2">  1       21 0.59881800E-01 0.45526396E+03</pdfrwt>
<totfact> 0.62774807E+04</totfact>
</mgrwt>
</event>
<event>
 7    0  0.4770865E-002  0.4587012E+03  0.7546771E-02  0.1025159E+00
         21   -1    0    0  502  501  0.00000000000E+00  0.00000000000E+00  0.30678097616E+03  0.30678097616E+03  0.00000000000E+00 0. -1.
         21   -1    0    0  501  502 -0.00000000000E+00 -0.00000000000E+00 -0.17146338505E+03  0.17146338505E+03  0.00000000000E+00 0. -1.
      99926    2    1    2    0    0  0.00000000000E+00 -0.88817841970E-15  0.13531759111E+03  0.47824436122E+03  0.45870123018E+03 0.  0.
      99925    2    3    3    0    0  0.83514915447E+02 -0.50474121975E+01  0.18884713274E+00  0.27598832788E+03  0.26300057793E+03 0.  0.
         25    1    4    4    0    0  0.71001740685E+01 -0.21410874786E+02 -0.13690229777E+02  0.12784274920E+03  0.12509000000E+03 0.  0.
         25    1    3    3    0    0 -0.83514915447E+02  0.50474121975E+01  0.13512874398E+03  0.20225603334E+03  0.12509000000E+03 0.  0.
         25    1    4    4    0    0  0.76414741378E+02  0.16363462588E+02  0.13879076910E+02  0.14814557868E+03  0.12509000000E+03 0.  0.
<mgrwt>
<rscale>  2 0.45870123E+03</rscale>
<asrwt>0</asrwt>
<pdfrwt beam="1">  1       21 0.45114849E-01 0.45870123E+03</pdfrwt>
<pdfrwt beam="2">  1       21 0.25215204E-01 0.45870123E+03</pdfrwt>
<totfact> 0.64900687E+04</totfact>
</mgrwt>
</event>
<event>
 7    0  0.4770865E-002  0.4053520E+03  0.7546771E-02  0.1041942E+00
         21   -1    0    0  502  501  0.00000000000E+00  0.00000000000E+00  0.57399922988E+03  0.57399922988E+03  0.00000000000E+00 0.  1.
         21   -1    0    0  501  502 -0.00000000000E+00 -0.00000000000E+00 -0.71563805439E+02  0.71563805439E+02  0.00000000000E+00 0.  1.
      99926    2    1    2    0    0 -0.71054273576E-14  0.00000000000E+00  0.50243542444E+03  0.64556303532E+03  0.40535204062E+03 0.  0.
      99925    2    3    3    0    0 -0.46421230751E+02  0.19011821941E+02  0.29723235073E+03  0.40005908505E+03  0.26302817562E+03 0.  0.
         25    1    4    4    0    0  0.11377296819E+02  0.27002924842E+02  0.12394077760E+03  0.17851449601E+03  0.12509000000E+03 0.  0.
         25    1    4    4    0    0 -0.57798527570E+02 -0.79911029017E+01  0.17329157313E+03  0.22154458904E+03  0.12509000000E+03 0.  0.
         25    1    3    3    0    0  0.46421230751E+02 -0.19011821941E+02  0.20520307372E+03  0.24550395027E+03  0.12509000000E+03 0.  0.
<mgrwt>
<rscale>  2 0.40535204E+03</rscale>
<asrwt>0</asrwt>
<pdfrwt beam="1">  1       21 0.84411649E-01 0.40535204E+03</pdfrwt>
<pdfrwt beam="2">  1       21 0.10524089E-01 0.40535204E+03</pdfrwt>
<totfact> 0.84479412E+04</totfact>
</mgrwt>
</event>
<event>
 7    0  0.4770865E-002  0.4300200E+03  0.7546771E-02  0.1033854E+00
         21   -1    0    0  502  501  0.00000000000E+00  0.00000000000E+00  0.18318218248E+02  0.18318218248E+02  0.00000000000E+00 0.  1.
         21   -1    0    0  501  502 -0.00000000000E+00 -0.00000000000E+00 -0.25236784831E+04  0.25236784831E+04  0.00000000000E+00 0.  1.
      99926    2    1    2    0    0 -0.35527136788E-14  0.00000000000E+00 -0.25053602649E+04  0.25419967014E+04  0.43001996811E+03 0.  0.
      99925    2    3    3    0    0  0.14343446135E+02 -0.80608706252E+02 -0.14297507193E+04  0.14560469325E+04  0.26302481292E+03 0.  0.
         25    1    4    4    0    0  0.43718730359E+02 -0.49633426877E+02 -0.82194875601E+03  0.83403960940E+03  0.12509000000E+03 0.  0.
         25    1    3    3    0    0 -0.14343446135E+02  0.80608706252E+02 -0.10756095455E+04  0.10859497689E+04  0.12509000000E+03 0.  0.
         25    1    4    4    0    0 -0.29375284224E+02 -0.30975279375E+02 -0.60780196333E+03  0.62200732309E+03  0.12509000000E+03 0.  0.
<mgrwt>
<rscale>  2 0.43001997E+03</rscale>
<asrwt>0</asrwt>
<pdfrwt beam="1">  1       21 0.26938560E-02 0.43001997E+03</pdfrwt>
<pdfrwt beam="2">  1       21 0.37112914E+00 0.43001997E+03</pdfrwt>
<totfact> 0.81902953E+03</totfact>
</mgrwt>
</event>
<event>
 7    0  0.4770865E-002  0.4505289E+03  0.7546771E-02  0.1027564E+00
         21   -1    0    0  502  501  0.00000000000E+00  0.00000000000E+00  0.12677963503E+03  0.12677963503E+03  0.00000000000E+00 0.  1.
         21   -1    0    0  501  502 -0.00000000000E+00 -0.00000000000E+00 -0.40025405349E+03  0.40025405349E+03  0.00000000000E+00 0.  1.
      99926    2    1    2    0    0  0.00000000000E+00  0.00000000000E+00 -0.27347441846E+03  0.52703368852E+03  0.45052885732E+03 0.  0.
      99925    2    3    3    0    0  0.76872590060E+02 -0.76907158624E+02 -0.17754431421E+03  0.33552859942E+03  0.26312231256E+03 0.  0.
         25    1    4    4    0    0  0.63117512885E+02 -0.19749110347E+02 -0.58498668537E+02  0.15311254068E+03  0.12509000000E+03 0.  0.
         25    1    4    4    0    0  0.13755077175E+02 -0.57158048277E+02 -0.11904564568E+03  0.18241605874E+03  0.12509000000E+03 0.  0.
         25    1    3    3    0    0 -0.76872590060E+02  0.76907158624E+02 -0.95930104247E+02  0.19150508910E+03  0.12509000000E+03 0.  0.
<mgrwt>
<rscale>  2 0.45052886E+03</rscale>
<asrwt>0</asrwt>
<pdfrwt beam="1">  1       21 0.18644064E-01 0.45052886E+03</pdfrwt>
<pdfrwt beam="2">  1       21 0.58860890E-01 0.45052886E+03</pdfrwt>
<totfact> 0.65705104E+04</totfact>
</mgrwt>
</event>
<event>
 7    0  0.4770865E-002  0.4365382E+03  0.7546771E-02  0.1031814E+00
         21   -1    0    0  502  501  0.00000000000E+00  0.00000000000E+00  0.32400000003E+03  0.32400000003E+03  0.00000000000E+00 0. -1.
         21   -1    0    0  501  502 -0.00000000000E+00 -0.00000000000E+00 -0.14704136911E+03  0.14704136911E+03  0.00000000000E+00 0. -1.
      99926    2    1    2    0    0  0.00000000000E+00 -0.71054273576E-14  0.17695863092E+03  0.47104136914E+03  0.43653821641E+03 0.  0.
      99925    2    3    3    0    0  0.66815049117E+02 -0.56457275235E+02  0.15291464912E+03  0.31651856864E+03  0.26296281042E+03 0.  0.
         25    1    4    4    0    0  0.51214213792E+02  0.66304386025E+01  0.62632834871E+02  0.14912155617E+03  0.12509000000E+03 0.  0.
         25    1    3    3    0    0 -0.66815049117E+02  0.56457275235E+02  0.24043981803E+02  0.15452280051E+03  0.12509000000E+03 0.  0.
         25    1    4    4    0    0  0.15600835325E+02 -0.63087713837E+02  0.90281814245E+02  0.16739701247E+03  0.12509000000E+03 0.  0.
<mgrwt>
<rscale>  2 0.43653822E+03</rscale>
<asrwt>0</asrwt>
<pdfrwt beam="1">  1       21 0.47647059E-01 0.43653822E+03</pdfrwt>
<pdfrwt beam="2">  1       21 0.21623731E-01 0.43653822E+03</pdfrwt>
<totfact> 0.78205443E+04</totfact>
</mgrwt>
</event>
<event>
 7    0  0.4770865E-002  0.4549127E+03  0.7546771E-02  0.1026267E+00
         21   -1    0    0  502  501  0.00000000000E+00  0.00000000000E+00  0.10424803737E+03  0.10424803737E+03  0.00000000000E+00 0.  1.
         21   -1    0    0  501  502 -0.00000000000E+00 -0.00000000000E+00 -0.49628176324E+03  0.49628176324E+03  0.00000000000E+00 0.  1.
      99926    2    1    2    0    0 -0.14210854715E-13  0.17763568394E-14 -0.39203372587E+03  0.60052980061E+03  0.45491273801E+03 0.  0.
      99925    2    3    3    0    0 -0.10521518401E+03  0.14042420965E+02 -0.29819558000E+03  0.41153104333E+03  0.26300146608E+03 0.  0.
         25    1    4    4    0    0 -0.18866257615E+02  0.18255140896E+01 -0.17245069892E+03  0.21388319203E+03  0.12509000000E+03 0.  0.
         25    1    4    4    0    0 -0.86348926399E+02  0.12216906875E+02 -0.12574488108E+03  0.19764785130E+03  0.12509000000E+03 0.  0.
         25    1    3    3    0    0  0.10521518401E+03 -0.14042420965E+02 -0.93838145871E+02  0.18899875728E+03  0.12509000000E+03 0.  0.
<mgrwt>
<rscale>  2 0.45491274E+03</rscale>
<asrwt>0</asrwt>
<pdfrwt beam="1">  1       21 0.15330594E-01 0.45491274E+03</pdfrwt>
<pdfrwt beam="2">  1       21 0.72982613E-01 0.45491274E+03</pdfrwt>
<totfact> 0.58686120E+04</totfact>
</mgrwt>
</event>
<event>
 7    0  0.4770865E-002  0.4523321E+03  0.7546771E-02  0.1027029E+00
         21   -1    0    0  502  501  0.00000000000E+00  0.00000000000E+00  0.66450456150E+02  0.66450456150E+02  0.00000000000E+00 0.  1.
         21   -1    0    0  501  502 -0.00000000000E+00 -0.00000000000E+00 -0.76976272559E+03  0.76976272559E+03  0.00000000000E+00 0.  1.
      99926    2    1    2    0    0  0.00000000000E+00  0.71054273576E-14 -0.70331226943E+03  0.83621318174E+03  0.45233210915E+03 0.  0.
      99925    2    3    3    0    0 -0.70244405664E+02  0.49064999767E+02 -0.57335036080E+03  0.63651526856E+03  0.26282960289E+03 0.  0.
         25    1    3    3    0    0  0.70244405664E+02 -0.49064999767E+02 -0.12996190864E+03  0.19969791317E+03  0.12509000000E+03 0.  0.
         25    1    4    4    0    0 -0.20463070251E+02 -0.53615489263E+01 -0.21176442765E+03  0.24685859185E+03  0.12509000000E+03 0.  0.
         25    1    4    4    0    0 -0.49781335412E+02  0.54426548693E+02 -0.36158593314E+03  0.38965667671E+03  0.12509000000E+03 0.  0.
<mgrwt>
<rscale>  2 0.45233211E+03</rscale>
<asrwt>0</asrwt>
<pdfrwt beam="1">  1       21 0.97721256E-02 0.45233211E+03</pdfrwt>
<pdfrwt beam="2">  1       21 0.11320040E+00 0.45233211E+03</pdfrwt>
<totfact> 0.47039439E+04</totfact>
</mgrwt>
</event>
<event>
 7    0  0.4770865E-002  0.4456193E+03  0.7546771E-02  0.1029037E+00
         21   -1    0    0  502  501  0.00000000000E+00  0.00000000000E+00  0.19495883178E+02  0.19495883178E+02  0.00000000000E+00 0.  1.
         21   -1    0    0  501  502 -0.00000000000E+00 -0.00000000000E+00 -0.25463907962E+04  0.25463907962E+04  0.00000000000E+00 0.  1.
      99926    2    1    2    0    0  0.00000000000E+00  0.71054273576E-14 -0.25268949130E+04  0.25658866794E+04  0.44561928813E+03 0.  0.
      99925    2    3    3    0    0 -0.78230181635E+02  0.52468441040E+02 -0.18459786351E+04  0.18671969168E+04  0.26441313587E+03 0.  0.
         25    1    3    3    0    0  0.78230181635E+02 -0.52468441040E+02 -0.68091627792E+03  0.69868976253E+03  0.12509000000E+03 0.  0.
         25    1    4    4    0    0 -0.36240734391E+02  0.64436007140E+02 -0.10983277961E+04  0.11078974888E+04  0.12509000000E+03 0.  0.
         25    1    4    4    0    0 -0.41989447244E+02 -0.11967566100E+02 -0.74765083893E+03  0.75929942801E+03  0.12509000000E+03 0.  0.
<mgrwt>
<rscale>  2 0.44561929E+03</rscale>
<asrwt>0</asrwt>
<pdfrwt beam="1">  1       21 0.28670444E-02 0.44561929E+03</pdfrwt>
<pdfrwt beam="2">  1       21 0.37446888E+00 0.44561929E+03</pdfrwt>
<totfact> 0.69760866E+03</totfact>
</mgrwt>
</event>
<event>
 7    0  0.4770865E-002  0.4449103E+03  0.7546771E-02  0.1029251E+00
         21   -1    0    0  502  501  0.00000000000E+00  0.00000000000E+00  0.37483564409E+03  0.37483564409E+03  0.00000000000E+00 0.  1.
         21   -1    0    0  501  502 -0.00000000000E+00 -0.00000000000E+00 -0.13202129398E+03  0.13202129398E+03  0.00000000000E+00 0.  1.
      99926    2    1    2    0    0  0.00000000000E+00  0.35527136788E-14  0.24281435011E+03  0.50685693806E+03  0.44491026853E+03 0.  0.
      99925    2    3    3    0    0 -0.56219529030E+02 -0.10271911839E+02  0.56168304285E+02  0.27501560840E+03  0.26308279845E+03 0.  0.
         25    1    4    4    0    0 -0.58368929785E+01 -0.36330039760E+02  0.41752931375E+02  0.13691149144E+03  0.12509000000E+03 0.  0.
         25    1    3    3    0    0  0.56219529030E+02  0.10271911839E+02  0.18664604583E+03  0.23184132966E+03  0.12509000000E+03 0.  0.
         25    1    4    4    0    0 -0.50382636051E+02  0.26058127921E+02  0.14415372910E+02  0.13810411696E+03  0.12509000000E+03 0.  0.
<mgrwt>
<rscale>  2 0.44491027E+03</rscale>
<asrwt>0</asrwt>
<pdfrwt beam="1">  1       21 0.55122889E-01 0.44491027E+03</pdfrwt>
<pdfrwt beam="2">  1       21 0.19414896E-01 0.44491027E+03</pdfrwt>
<totfact> 0.70250117E+04</totfact>
</mgrwt>
</event>
<event>
 7    0  0.4770865E-002  0.4515832E+03  0.7546771E-02  0.1027251E+00
         21   -1    0    0  502  501  0.00000000000E+00  0.00000000000E+00  0.12921109808E+03  0.12921109808E+03  0.00000000000E+00 0.  1.
         21   -1    0    0  501  502 -0.00000000000E+00 -0.00000000000E+00 -0.39456248216E+03  0.39456248216E+03  0.00000000000E+00 0.  1.
      99926    2    1    2    0    0  0.00000000000E+00 -0.44408920985E-15 -0.26535138408E+03  0.52377358024E+03  0.45158322192E+03 0.  0.
      99925    2    3    3    0    0 -0.10356688688E+03  0.36329746319E+01 -0.12502666009E+03  0.30911609766E+03  0.26302432879E+03 0.  0.
         25    1    3    3    0    0  0.10356688688E+03 -0.36329746319E+01 -0.14032472399E+03  0.21465748258E+03  0.12509000000E+03 0.  0.
         25    1    4    4    0    0 -0.11162421555E+02  0.12055547155E+02 -0.67488901197E+02  0.14308108106E+03  0.12509000000E+03 0.  0.
         25    1    4    4    0    0 -0.92404465323E+02 -0.84225725227E+01 -0.57537758891E+02  0.16603501660E+03  0.12509000000E+03 0.  0.
<mgrwt>
<rscale>  2 0.45158322E+03</rscale>
<asrwt>0</asrwt>
<pdfrwt beam="1">  1       21 0.19001632E-01 0.45158322E+03</pdfrwt>
<pdfrwt beam="2">  1       21 0.58023895E-01 0.45158322E+03</pdfrwt>
<totfact> 0.65383015E+04</totfact>
</mgrwt>
</event>
<event>
 7    0  0.4770865E-002  0.4676278E+03  0.7546771E-02  0.1022592E+00
         21   -1    0    0  502  501  0.00000000000E+00  0.00000000000E+00  0.17686771290E+03  0.17686771290E+03  0.00000000000E+00 0. -1.
         21   -1    0    0  501  502 -0.00000000000E+00 -0.00000000000E+00 -0.30909503626E+03  0.30909503626E+03  0.00000000000E+00 0. -1.
      99926    2    1    2    0    0  0.00000000000E+00 -0.26645352591E-14 -0.13222732336E+03  0.48596274917E+03  0.46762776707E+03 0.  0.
      99925    2    3    3    0    0 -0.12208409826E+03  0.75674587613E+01 -0.10680744838E+03  0.30917057846E+03  0.26309090078E+03 0.  0.
         25    1    3    3    0    0  0.12208409826E+03 -0.75674587613E+01 -0.25419874978E+02  0.17679217071E+03  0.12509000000E+03 0.  0.
         25    1    4    4    0    0 -0.27610009917E+02 -0.18864728417E+02 -0.64547174824E+02  0.14467908109E+03  0.12509000000E+03 0.  0.
         25    1    4    4    0    0 -0.94474088342E+02  0.26432187179E+02 -0.42260273559E+02  0.16449149737E+03  0.12509000000E+03 0.  0.
<mgrwt>
<rscale>  2 0.46762777E+03</rscale>
<asrwt>0</asrwt>
<pdfrwt beam="1">  1       21 0.26009958E-01 0.46762777E+03</pdfrwt>
<pdfrwt beam="2">  1       21 0.45455152E-01 0.46762777E+03</pdfrwt>
<totfact> 0.60023289E+04</totfact>
</mgrwt>
</event>
<event>
 7    0  0.4770865E-002  0.4572944E+03  0.7546771E-02  0.1025569E+00
         21   -1    0    0  502  501  0.00000000000E+00  0.00000000000E+00  0.38820634447E+03  0.38820634447E+03  0.00000000000E+00 0. -1.
         21   -1    0    0  501  502 -0.00000000000E+00 -0.00000000000E+00 -0.13466948074E+03  0.13466948074E+03  0.00000000000E+00 0. -1.
      99926    2    1    2    0    0 -0.44408920985E-15  0.00000000000E+00  0.25353686373E+03  0.52287582521E+03  0.45729442082E+03 0.  0.
      99925    2    3    3    0    0 -0.26357960002E+01  0.11515631148E+03  0.16304242060E+03  0.33025008489E+03  0.26308622952E+03 0.  0.
         25    1    4    4    0    0 -0.26868052240E+02  0.28423300766E+02  0.94413394301E+02  0.16152762420E+03  0.12509000000E+03 0.  0.
         25    1    4    4    0    0  0.24232256240E+02  0.86733010714E+02  0.68629026297E+02  0.16872246069E+03  0.12509000000E+03 0.  0.
         25    1    3    3    0    0  0.26357960002E+01 -0.11515631148E+03  0.90494443129E+02  0.19262574031E+03  0.12509000000E+03 0.  0.
<mgrwt>
<rscale>  2 0.45729442E+03</rscale>
<asrwt>0</asrwt>
<pdfrwt beam="1">  1       21 0.57089168E-01 0.45729442E+03</pdfrwt>
<pdfrwt beam="2">  1       21 0.19804336E-01 0.45729442E+03</pdfrwt>
<totfact> 0.62545470E+04</totfact>
</mgrwt>
</event>
<event>
 7    0  0.4770865E-002  0.4532274E+03  0.7546771E-02  0.1026764E+00
         21   -1    0    0  502  501  0.00000000000E+00  0.00000000000E+00  0.12717081660E+03  0.12717081660E+03  0.00000000000E+00 0.  1.
         21   -1    0    0  501  502 -0.00000000000E+00 -0.00000000000E+00 -0.40381720568E+03  0.40381720568E+03  0.00000000000E+00 0.  1.
      99926    2    1    2    0    0 -0.71054273576E-14  0.00000000000E+00 -0.27664638908E+03  0.53098802227E+03  0.45322737694E+03 0.  0.
      99925    2    3    3    0    0  0.46533799448E+02 -0.85516738565E+02 -0.23844413550E+03  0.36793763943E+03  0.26276223795E+03 0.  0.
         25    1    3    3    0    0 -0.46533799448E+02  0.85516738565E+02 -0.38202253583E+02  0.16305038284E+03  0.12509000000E+03 0.  0.
         25    1    4    4    0    0  0.19180915474E+02 -0.47855223795E+02 -0.67915201865E+02  0.15138696347E+03  0.12509000000E+03 0.  0.
         25    1    4    4    0    0  0.27352883975E+02 -0.37661514770E+02 -0.17052893363E+03  0.21655067597E+03  0.12509000000E+03 0.  0.
<mgrwt>
<rscale>  2 0.45322738E+03</rscale>
<asrwt>0</asrwt>
<pdfrwt beam="1">  1       21 0.18701591E-01 0.45322738E+03</pdfrwt>
<pdfrwt beam="2">  1       21 0.59384883E-01 0.45322738E+03</pdfrwt>
<totfact> 0.64034373E+04</totfact>
</mgrwt>
</event>
<event>
 7    0  0.4770865E-002  0.4622487E+03  0.7546771E-02  0.1024131E+00
         21   -1    0    0  502  501  0.00000000000E+00  0.00000000000E+00  0.26514432351E+03  0.26514432351E+03  0.00000000000E+00 0. -1.
         21   -1    0    0  501  502 -0.00000000000E+00 -0.00000000000E+00 -0.20146940920E+03  0.20146940920E+03  0.00000000000E+00 0. -1.
      99926    2    1    2    0    0  0.71054273576E-14  0.88817841970E-15  0.63674914315E+02  0.46661373270E+03  0.46224872183E+03 0.  0.
      99925    2    3    3    0    0 -0.36746809447E+02  0.40963674205E+01 -0.75160087046E+02  0.27611498223E+03  0.26310328104E+03 0.  0.
         25    1    3    3    0    0  0.36746809447E+02 -0.40963674205E+01  0.13883500136E+03  0.19049875048E+03  0.12509000000E+03 0.  0.
         25    1    4    4    0    0 -0.30453281224E+02 -0.35796952104E+02 -0.28515370673E+02  0.13663622719E+03  0.12509000000E+03 0.  0.
         25    1    4    4    0    0 -0.62935282225E+01  0.39893319525E+02 -0.46644716373E+02  0.13947875503E+03  0.12509000000E+03 0.  0.
<mgrwt>
<rscale>  2 0.46224872E+03</rscale>
<asrwt>0</asrwt>
<pdfrwt beam="1">  1       21 0.38991812E-01 0.46224872E+03</pdfrwt>
<pdfrwt beam="2">  1       21 0.29627854E-01 0.46224872E+03</pdfrwt>
<totfact> 0.63925219E+04</totfact>
</mgrwt>
</event>
<event>
 7    0  0.4770865E-002  0.4539801E+03  0.7546771E-02  0.1026542E+00
         21   -1    0    0  502  501  0.00000000000E+00  0.00000000000E+00  0.47410983764E+03  0.47410983764E+03  0.00000000000E+00 0.  1.
         21   -1    0    0  501  502 -0.00000000000E+00 -0.00000000000E+00 -0.10867625210E+03  0.10867625210E+03  0.00000000000E+00 0.  1.
      99926    2    1    2    0    0  0.00000000000E+00  0.35527136788E-14  0.36543358555E+03  0.58278608974E+03  0.45398008871E+03 0.  0.
      99925    2    3    3    0    0  0.64345766400E+02 -0.16810164322E+02  0.11389846433E+03  0.29409874228E+03  0.26286546132E+03 0.  0.
         25    1    4    4    0    0  0.27616026118E+02 -0.43900036141E+02  0.77642941387E+02  0.15609545964E+03  0.12509000000E+03 0.  0.
         25    1    3    3    0    0 -0.64345766400E+02  0.16810164322E+02  0.25153512122E+03  0.28868734746E+03  0.12509000000E+03 0.  0.
         25    1    4    4    0    0  0.36729740283E+02  0.27089871820E+02  0.36255522941E+02  0.13800328264E+03  0.12509000000E+03 0.  0.
<mgrwt>
<rscale>  2 0.45398009E+03</rscale>
<asrwt>0</asrwt>
<pdfrwt beam="1">  1       21 0.69722034E-01 0.45398009E+03</pdfrwt>
<pdfrwt beam="2">  1       21 0.15981802E-01 0.45398009E+03</pdfrwt>
<totfact> 0.60234711E+04</totfact>
</mgrwt>
</event>
<event>
 7    0  0.4770865E-002  0.4572715E+03  0.7546771E-02  0.1025576E+00
         21   -1    0    0  502  501  0.00000000000E+00  0.00000000000E+00  0.86792112604E+02  0.86792112604E+02  0.00000000000E+00 0. -1.
         21   -1    0    0  501  502 -0.00000000000E+00 -0.00000000000E+00 -0.60229334731E+03  0.60229334731E+03  0.00000000000E+00 0. -1.
      99926    2    1    2    0    0  0.00000000000E+00  0.14210854715E-13 -0.51550123471E+03  0.68908545991E+03  0.45727152555E+03 0.  0.
      99925    2    3    3    0    0  0.23359954530E+02 -0.10993534238E+03 -0.36245420932E+03  0.46170391480E+03  0.26299426630E+03 0.  0.
         25    1    3    3    0    0 -0.23359954530E+02  0.10993534238E+03 -0.15304702538E+03  0.22738154511E+03  0.12509000000E+03 0.  0.
         25    1    4    4    0    0  0.25258931575E+02 -0.95645296243E+02 -0.21736015639E+03  0.26959039672E+03  0.12509000000E+03 0.  0.
         25    1    4    4    0    0 -0.18989770448E+01 -0.14290046136E+02 -0.14509405293E+03  0.19211351808E+03  0.12509000000E+03 0.  0.
<mgrwt>
<rscale>  2 0.45727153E+03</rscale>
<asrwt>0</asrwt>
<pdfrwt beam="1">  1       21 0.12763546E-01 0.45727153E+03</pdfrwt>
<pdfrwt beam="2">  1       21 0.88572552E-01 0.45727153E+03</pdfrwt>
<totfact> 0.52553598E+04</totfact>
</mgrwt>
</event>
<event>
 7    0  0.4770865E-002  0.4584237E+03  0.7546771E-02  0.1025239E+00
         21   -1    0    0  502  501  0.00000000000E+00  0.00000000000E+00  0.13477926186E+04  0.13477926186E+04  0.00000000000E+00 0. -1.
         21   -1    0    0  501  502 -0.00000000000E+00 -0.00000000000E+00 -0.38980825339E+02  0.38980825339E+02  0.00000000000E+00 0. -1.
      99926    2    1    2    0    0  0.00000000000E+00  0.00000000000E+00  0.13088117932E+04  0.13867734439E+04  0.45842368463E+03 0.  0.
      99925    2    3    3    0    0 -0.81928564658E+02  0.75008818267E+02  0.92551113573E+03  0.96855637747E+03  0.26304368733E+03 0.  0.
         25    1    4    4    0    0 -0.39090913474E+02  0.68258632700E+02  0.58059136287E+03  0.59910030812E+03  0.12509000000E+03 0.  0.
         25    1    4    4    0    0 -0.42837651184E+02  0.67501855663E+01  0.34491977287E+03  0.36945606935E+03  0.12509000000E+03 0.  0.
         25    1    3    3    0    0  0.81928564658E+02 -0.75008818267E+02  0.38330065752E+03  0.41821706646E+03  0.12509000000E+03 0.  0.
<mgrwt>
<rscale>  2 0.45842368E+03</rscale>
<asrwt>0</asrwt>
<pdfrwt beam="1">  1       21 0.19820477E+00 0.45842368E+03</pdfrwt>
<pdfrwt beam="2">  1       21 0.57324752E-02 0.45842368E+03</pdfrwt>
<totfact> 0.25988217E+04</totfact>
</mgrwt>
</event>
<event>
 7    0  0.4770865E-002  0.4575452E+03  0.7546771E-02  0.1025496E+00
         21   -1    0    0  502  501  0.00000000000E+00  0.00000000000E+00  0.84219924148E+03  0.84219924148E+03  0.00000000000E+00 0. -1.
         21   -1    0    0  501  502 -0.00000000000E+00 -0.00000000000E+00 -0.62143148758E+02  0.62143148758E+02  0.00000000000E+00 0. -1.
      99926    2    1    2    0    0  0.14210854715E-13  0.00000000000E+00  0.78005609272E+03  0.90434239024E+03  0.45754524474E+03 0.  0.
      99925    2    3    3    0    0 -0.10611579981E+03 -0.33175691503E+02  0.55317138334E+03  0.62241089336E+03  0.26274617287E+03 0.  0.
         25    1    3    3    0    0  0.10611579981E+03  0.33175691503E+02  0.22688470938E+03  0.28193149687E+03  0.12509000000E+03 0.  0.
         25    1    4    4    0    0 -0.54503281467E+02 -0.92196264388E+01  0.36199742327E+03  0.38696931630E+03  0.12509000000E+03 0.  0.
         25    1    4    4    0    0 -0.51612518347E+02 -0.23956065064E+02  0.19117396007E+03  0.23544157707E+03  0.12509000000E+03 0.  0.
<mgrwt>
<rscale>  2 0.45754524E+03</rscale>
<asrwt>0</asrwt>
<pdfrwt beam="1">  1       21 0.12385282E+00 0.45754524E+03</pdfrwt>
<pdfrwt beam="2">  1       21 0.91386989E-02 0.45754524E+03</pdfrwt>
<totfact> 0.42199285E+04</totfact>
</mgrwt>
</event>
<event>
 7    0  0.4770865E-002  0.4574150E+03  0.7546771E-02  0.1025534E+00
         21   -1    0    0  502  501  0.00000000000E+00  0.00000000000E+00  0.95335335690E+02  0.95335335690E+02  0.00000000000E+00 0.  1.
         21   -1    0    0  501  502 -0.00000000000E+00 -0.00000000000E+00 -0.54866454452E+03  0.54866454452E+03  0.00000000000E+00 0.  1.
      99926    2    1    2    0    0  0.00000000000E+00  0.00000000000E+00 -0.45332920883E+03  0.64399988021E+03  0.45741499115E+03 0.  0.
      99925    2    3    3    0    0  0.44468264742E+02 -0.78540332064E+02 -0.18323653451E+03  0.33296359430E+03  0.26295078859E+03 0.  0.
         25    1    4    4    0    0  0.10294141044E+02 -0.65263702199E+00 -0.98726447726E+02  0.15968974562E+03  0.12509000000E+03 0.  0.
         25    1    3    3    0    0 -0.44468264742E+02  0.78540332064E+02 -0.27009267432E+03  0.31103628591E+03  0.12509000000E+03 0.  0.
         25    1    4    4    0    0  0.34174123698E+02 -0.77887695042E+02 -0.84510086783E+02  0.17327384868E+03  0.12509000000E+03 0.  0.
<mgrwt>
<rscale>  2 0.45741499E+03</rscale>
<asrwt>0</asrwt>
<pdfrwt beam="1">  1       21 0.14019902E-01 0.45741499E+03</pdfrwt>
<pdfrwt beam="2">  1       21 0.80685964E-01 0.45741499E+03</pdfrwt>
<totfact> 0.54993026E+04</totfact>
</mgrwt>
</event>
<event>
 7    0  0.4770865E-002  0.4648606E+03  0.7546771E-02  0.1023381E+00
         21   -1    0    0  502  501  0.00000000000E+00  0.00000000000E+00  0.12307312585E+03  0.12307312585E+03  0.00000000000E+00 0.  1.
         21   -1    0    0  501  502 -0.00000000000E+00 -0.00000000000E+00 -0.43895724517E+03  0.43895724517E+03  0.00000000000E+00 0.  1.
      99926    2    1    2    0    0  0.00000000000E+00  0.00000000000E+00 -0.31588411931E+03  0.56203037102E+03  0.46486058245E+03 0.  0.
      99925    2    3    3    0    0 -0.20873163403E+01 -0.56508667340E+02 -0.32798710879E+03  0.42422044094E+03  0.26303964075E+03 0.  0.
         25    1    3    3    0    0  0.20873163403E+01  0.56508667340E+02  0.12102989475E+02  0.13780993008E+03  0.12509000000E+03 0.  0.
         25    1    4    4    0    0  0.21267387840E+02 -0.90670825451E+01 -0.11422590437E+03  0.17096660230E+03  0.12509000000E+03 0.  0.
         25    1    4    4    0    0 -0.23354704180E+02 -0.47441584795E+02 -0.21376120442E+03  0.25325383865E+03  0.12509000000E+03 0.  0.
<mgrwt>
<rscale>  2 0.46486058E+03</rscale>
<asrwt>0</asrwt>
<pdfrwt beam="1">  1       21 0.18098989E-01 0.46486058E+03</pdfrwt>
<pdfrwt beam="2">  1       21 0.64552536E-01 0.46486058E+03</pdfrwt>
<totfact> 0.56538094E+04</totfact>
</mgrwt>
</event>
<event>
 7    0  0.4770865E-002  0.4545261E+03  0.7546771E-02  0.1026381E+00
         21   -1    0    0  502  501  0.00000000000E+00  0.00000000000E+00  0.46048535892E+03  0.46048535892E+03  0.00000000000E+00 0.  1.
         21   -1    0    0  501  502 -0.00000000000E+00 -0.00000000000E+00 -0.11216100499E+03  0.11216100499E+03  0.00000000000E+00 0.  1.
      99926    2    1    2    0    0  0.00000000000E+00  0.14210854715E-13  0.34832435394E+03  0.57264636391E+03  0.45452612967E+03 0.  0.
      99925    2    3    3    0    0  0.25698459953E+02 -0.10803860349E+03  0.19551056516E+03  0.34608000977E+03  0.26308599618E+03 0.  0.
         25    1    4    4    0    0  0.72394327144E+01 -0.15858365637E+02  0.11150751428E+03  0.16847946756E+03  0.12509000000E+03 0.  0.
         25    1    3    3    0    0 -0.25698459953E+02  0.10803860349E+03  0.15281378878E+03  0.22656635414E+03  0.12509000000E+03 0.  0.
         25    1    4    4    0    0  0.18459027239E+02 -0.92180237852E+02  0.84003050879E+02  0.17760054221E+03  0.12509000000E+03 0.  0.
<mgrwt>
<rscale>  2 0.45452613E+03</rscale>
<asrwt>0</asrwt>
<pdfrwt beam="1">  1       21 0.67718434E-01 0.45452613E+03</pdfrwt>
<pdfrwt beam="2">  1       21 0.16494266E-01 0.45452613E+03</pdfrwt>
<totfact> 0.60621189E+04</totfact>
</mgrwt>
</event>
<event>
 7    0  0.4770865E-002  0.4525464E+03  0.7546771E-02  0.1026965E+00
         21   -1    0    0  502  501  0.00000000000E+00  0.00000000000E+00  0.11316979261E+04  0.11316979261E+04  0.00000000000E+00 0. -1.
         21   -1    0    0  501  502 -0.00000000000E+00 -0.00000000000E+00 -0.45241371965E+02  0.45241371965E+02  0.00000000000E+00 0. -1.
      99926    2    1    2    0    0  0.71054273576E-14  0.00000000000E+00  0.10864565541E+04  0.11769392980E+04  0.45254642558E+03 0.  0.
      99925    2    3    3    0    0 -0.40679533230E+02 -0.10101540306E+03  0.63153556330E+03  0.69272906265E+03  0.26301606499E+03 0.  0.
         25    1    4    4    0    0  0.84771945714E+01 -0.26555938954E+02  0.33656378325E+03  0.36013854142E+03  0.12509000000E+03 0.  0.
         25    1    4    4    0    0 -0.49156727801E+02 -0.74459464108E+02  0.29497178006E+03  0.33259052123E+03  0.12509000000E+03 0.  0.
         25    1    3    3    0    0  0.40679533230E+02  0.10101540306E+03  0.45492099079E+03  0.48421023537E+03  0.12509000000E+03 0.  0.
<mgrwt>
<rscale>  2 0.45254643E+03</rscale>
<asrwt>0</asrwt>
<pdfrwt beam="1">  1       21 0.16642615E+00 0.45254643E+03</pdfrwt>
<pdfrwt beam="2">  1       21 0.66531437E-02 0.45254643E+03</pdfrwt>
<totfact> 0.33532014E+04</totfact>
</mgrwt>
</event>
<event>
 7    0  0.4770865E-002  0.4556796E+03  0.7546771E-02  0.1026042E+00
         21   -1    0    0  502  501  0.00000000000E+00  0.00000000000E+00  0.98827973902E+02  0.98827973902E+02  0.00000000000E+00 0. -1.
         21   -1    0    0  501  502 -0.00000000000E+00 -0.00000000000E+00 -0.52526596375E+03  0.52526596375E+03  0.00000000000E+00 0. -1.
      99926    2    1    2    0    0 -0.26645352591E-14  0.35527136788E-14 -0.42643798985E+03  0.62409393765E+03  0.45567958461E+03 0.  0.
      99925    2    3    3    0    0 -0.64250565817E+01  0.30385462310E+02 -0.11817403860E+03  0.28997011418E+03  0.26296959149E+03 0.  0.
         25    1    4    4    0    0 -0.18375765835E+02  0.37585076698E+02 -0.93577343955E+02  0.16172363514E+03  0.12509000000E+03 0.  0.
         25    1    3    3    0    0  0.64250565817E+01 -0.30385462310E+02 -0.30826395125E+03  0.33412382347E+03  0.12509000000E+03 0.  0.
         25    1    4    4    0    0  0.11950709253E+02 -0.71996143878E+01 -0.24596694641E+02  0.12824647904E+03  0.12509000000E+03 0.  0.
<mgrwt>
<rscale>  2 0.45567958E+03</rscale>
<asrwt>0</asrwt>
<pdfrwt beam="1">  1       21 0.14533526E-01 0.45567958E+03</pdfrwt>
<pdfrwt beam="2">  1       21 0.77244994E-01 0.45567958E+03</pdfrwt>
<totfact> 0.56913207E+04</totfact>
</mgrwt>
</event>
<event>
 7    0  0.4770865E-002  0.4578600E+03  0.7546771E-02  0.1025404E+00
         21   -1    0    0  502  501  0.00000000000E+00  0.00000000000E+00  0.28026816142E+03  0.28026816142E+03  0.00000000000E+00 0.  1.
         21   -1    0    0  501  502 -0.00000000000E+00 -0.00000000000E+00 -0.18699574995E+03  0.18699574995E+03  0.00000000000E+00 0.  1.
      99926    2    1    2    0    0  0.00000000000E+00  0.00000000000E+00  0.93272411475E+02  0.46726391137E+03  0.45786004426E+03 0.  0.
      99925    2    3    3    0    0  0.62985031113E+02  0.96685655467E+02  0.68366973167E+02  0.29526676292E+03  0.26304598106E+03 0.  0.
         25    1    4    4    0    0  0.33489058290E+02  0.59956739147E+01  0.24044885843E+02  0.13184509762E+03  0.12509000000E+03 0.  0.
         25    1    4    4    0    0  0.29495972823E+02  0.90689981552E+02  0.44322087324E+02  0.16342166531E+03  0.12509000000E+03 0.  0.
         25    1    3    3    0    0 -0.62985031113E+02 -0.96685655467E+02  0.24905438308E+02  0.17199714845E+03  0.12509000000E+03 0.  0.
<mgrwt>
<rscale>  2 0.45786004E+03</rscale>
<asrwt>0</asrwt>
<pdfrwt beam="1">  1       21 0.41215906E-01 0.45786004E+03</pdfrwt>
<pdfrwt beam="2">  1       21 0.27499375E-01 0.45786004E+03</pdfrwt>
<totfact> 0.66126324E+04</totfact>
</mgrwt>
</event>
<event>
 7    0  0.4770865E-002  0.4448468E+03  0.7546771E-02  0.1029270E+00
         21   -1    0    0  502  501  0.00000000000E+00  0.00000000000E+00  0.54517104102E+02  0.54517104102E+02  0.00000000000E+00 0.  1.
         21   -1    0    0  501  502 -0.00000000000E+00 -0.00000000000E+00 -0.90746150748E+03  0.90746150748E+03  0.00000000000E+00 0.  1.
      99926    2    1    2    0    0 -0.14210854715E-13  0.29976021665E-14 -0.85294440338E+03  0.96197861158E+03  0.44484682070E+03 0.  0.
      99925    2    3    3    0    0  0.10279291287E+03 -0.94423920035E+00 -0.51779400278E+03  0.58976822263E+03  0.26296131386E+03 0.  0.
         25    1    4    4    0    0  0.33578732320E+02 -0.28327863288E+02 -0.29778541184E+03  0.32596573241E+03  0.12509000000E+03 0.  0.
         25    1    4    4    0    0  0.69214180550E+02  0.27383624087E+02 -0.22000859094E+03  0.26380249022E+03  0.12509000000E+03 0.  0.
         25    1    3    3    0    0 -0.10279291287E+03  0.94423920035E+00 -0.33515040060E+03  0.37221038896E+03  0.12509000000E+03 0.  0.
<mgrwt>
<rscale>  2 0.44484682E+03</rscale>
<asrwt>0</asrwt>
<pdfrwt beam="1">  1       21 0.80172222E-02 0.44484682E+03</pdfrwt>
<pdfrwt beam="2">  1       21 0.13345020E+00 0.44484682E+03</pdfrwt>
<totfact> 0.44054140E+04</totfact>
</mgrwt>
</event>
<event>
 7    0  0.4770865E-002  0.4466952E+03  0.7546771E-02  0.1028712E+00
         21   -1    0    0  502  501  0.00000000000E+00  0.00000000000E+00  0.27910880604E+03  0.27910880604E+03  0.00000000000E+00 0.  1.
         21   -1    0    0  501  502 -0.00000000000E+00 -0.00000000000E+00 -0.17872651586E+03  0.17872651586E+03  0.00000000000E+00 0.  1.
      99926    2    1    2    0    0  0.00000000000E+00 -0.35527136788E-14  0.10038229018E+03  0.45783532190E+03  0.44669517324E+03 0.  0.
      99925    2    3    3    0    0  0.55325710735E+02  0.30158422895E+02 -0.22703164050E+02  0.27137352452E+03  0.26297849990E+03 0.  0.
         25    1    4    4    0    0 -0.99174524517E+00  0.41535059325E+02 -0.22522381679E+02  0.13371952172E+03  0.12509000000E+03 0.  0.
         25    1    4    4    0    0  0.56317455980E+02 -0.11376636431E+02 -0.18078237107E+00  0.13765400280E+03  0.12509000000E+03 0.  0.
         25    1    3    3    0    0 -0.55325710735E+02 -0.30158422895E+02  0.12308545423E+03  0.18646179738E+03  0.12509000000E+03 0.  0.
<mgrwt>
<rscale>  2 0.44669517E+03</rscale>
<asrwt>0</asrwt>
<pdfrwt beam="1">  1       21 0.41045413E-01 0.44669517E+03</pdfrwt>
<pdfrwt beam="2">  1       21 0.26283311E-01 0.44669517E+03</pdfrwt>
<totfact> 0.73046081E+04</totfact>
</mgrwt>
</event>
<event>
 7    0  0.4770865E-002  0.4644763E+03  0.7546771E-02  0.1023491E+00
         21   -1    0    0  502  501  0.00000000000E+00  0.00000000000E+00  0.25621304068E+03  0.25621304068E+03  0.00000000000E+00 0.  1.
         21   -1    0    0  501  502 -0.00000000000E+00 -0.00000000000E+00 -0.21050666806E+03  0.21050666806E+03  0.00000000000E+00 0.  1.
      99926    2    1    2    0    0 -0.71054273576E-14  0.00000000000E+00  0.45706372627E+02  0.46671970874E+03  0.46447627929E+03 0.  0.
      99925    2    3    3    0    0 -0.58295838469E+02  0.10022448656E+03  0.65976014467E+02  0.29495906433E+03  0.26306779099E+03 0.  0.
         25    1    4    4    0    0 -0.54326649408E+02  0.65740305499E+02  0.65964092257E+02  0.16514218774E+03  0.12509000000E+03 0.  0.
         25    1    4    4    0    0 -0.39691890617E+01  0.34484181060E+02  0.11922209893E-01  0.12981687659E+03  0.12509000000E+03 0.  0.
         25    1    3    3    0    0  0.58295838469E+02 -0.10022448656E+03 -0.20269641840E+02  0.17176064441E+03  0.12509000000E+03 0.  0.
<mgrwt>
<rscale>  2 0.46447628E+03</rscale>
<asrwt>0</asrwt>
<pdfrwt beam="1">  1       21 0.37678389E-01 0.46447628E+03</pdfrwt>
<pdfrwt beam="2">  1       21 0.30956863E-01 0.46447628E+03</pdfrwt>
<totfact> 0.62810619E+04</totfact>
</mgrwt>
</event>
<event>
 7    0  0.4770865E-002  0.4560136E+03  0.7546771E-02  0.1025944E+00
         21   -1    0    0  502  501  0.00000000000E+00  0.00000000000E+00  0.43838489199E+03  0.43838489199E+03  0.00000000000E+00 0.  1.
         21   -1    0    0  501  502 -0.00000000000E+00 -0.00000000000E+00 -0.11858780060E+03  0.11858780060E+03  0.00000000000E+00 0.  1.
      99926    2    1    2    0    0  0.00000000000E+00  0.00000000000E+00  0.31979709139E+03  0.55697269259E+03  0.45601359698E+03 0.  0.
      99925    2    3    3    0    0  0.20757714976E+02  0.85362768311E+02  0.28912714936E+03  0.40106939439E+03  0.26371284701E+03 0.  0.
         25    1    4    4    0    0  0.78998557897E+01  0.62863647757E+02  0.97581226068E+02  0.17083281216E+03  0.12509000000E+03 0.  0.
         25    1    4    4    0    0  0.12857859186E+02  0.22499120554E+02  0.19154592329E+03  0.23023658223E+03  0.12509000000E+03 0.  0.
         25    1    3    3    0    0 -0.20757714976E+02 -0.85362768311E+02  0.30669942031E+02  0.15590329820E+03  0.12509000000E+03 0.  0.
<mgrwt>
<rscale>  2 0.45601360E+03</rscale>
<asrwt>0</asrwt>
<pdfrwt beam="1">  1       21 0.64468366E-01 0.45601360E+03</pdfrwt>
<pdfrwt beam="2">  1       21 0.17439383E-01 0.45601360E+03</pdfrwt>
<totfact> 0.60918172E+04</totfact>
</mgrwt>
</event>
<event>
 7    0  0.4770865E-002  0.4485630E+03  0.7546771E-02  0.1028151E+00
         21   -1    0    0  502  501  0.00000000000E+00  0.00000000000E+00  0.10525944180E+04  0.10525944180E+04  0.00000000000E+00 0. -1.
         21   -1    0    0  501  502 -0.00000000000E+00 -0.00000000000E+00 -0.47788766001E+02  0.47788766001E+02  0.00000000000E+00 0. -1.
      99926    2    1    2    0    0  0.00000000000E+00  0.00000000000E+00  0.10048056520E+04  0.11003831840E+04  0.44856298705E+03 0.  0.
      99925    2    3    3    0    0 -0.68207999751E+02  0.20400400794E+02  0.83222662828E+03  0.87566216783E+03  0.26289648870E+03 0.  0.
         25    1    4    4    0    0 -0.74602854054E+02  0.15756664061E+01  0.43676481453E+03  0.46041185896E+03  0.12509000000E+03 0.  0.
         25    1    3    3    0    0  0.68207999751E+02 -0.20400400794E+02  0.17257902375E+03  0.22472101620E+03  0.12509000000E+03 0.  0.
         25    1    4    4    0    0  0.63948543024E+01  0.18824734388E+02  0.39546181375E+03  0.41525030887E+03  0.12509000000E+03 0.  0.
<mgrwt>
<rscale>  2 0.44856299E+03</rscale>
<asrwt>0</asrwt>
<pdfrwt beam="1">  1       21 0.15479328E+00 0.44856299E+03</pdfrwt>
<pdfrwt beam="2">  1       21 0.70277603E-02 0.44856299E+03</pdfrwt>
<totfact> 0.37320024E+04</totfact>
</mgrwt>
</event>
<event>
 7    0  0.4770865E-002  0.4475081E+03  0.7546771E-02  0.1028468E+00
         21   -1    0    0  502  501  0.00000000000E+00  0.00000000000E+00  0.17197804011E+03  0.17197804011E+03  0.00000000000E+00 0. -1.
         21   -1    0    0  501  502 -0.00000000000E+00 -0.00000000000E+00 -0.29111785060E+03  0.29111785060E+03  0.00000000000E+00 0. -1.
      99926    2    1    2    0    0  0.14210854715E-13  0.00000000000E+00 -0.11913981049E+03  0.46309589072E+03  0.44750811116E+03 0.  0.
      99925    2    3    3    0    0 -0.95241208816E+02  0.20481102407E+02 -0.32281684043E+02  0.28231368572E+03  0.26299913804E+03 0.  0.
         25    1    4    4    0    0 -0.33972730449E+02  0.43752544334E+02 -0.34452495982E+02  0.14107768828E+03  0.12509000000E+03 0.  0.
         25    1    4    4    0    0 -0.61268478367E+02 -0.23271441927E+02  0.21708119399E+01  0.14123599745E+03  0.12509000000E+03 0.  0.
         25    1    3    3    0    0  0.95241208816E+02 -0.20481102407E+02 -0.86858126444E+02  0.18078220499E+03  0.12509000000E+03 0.  0.
<mgrwt>
<rscale>  2 0.44750811E+03</rscale>
<asrwt>0</asrwt>
<pdfrwt beam="1">  1       21 0.25290888E-01 0.44750811E+03</pdfrwt>
<pdfrwt beam="2">  1       21 0.42811448E-01 0.44750811E+03</pdfrwt>
<totfact> 0.72145992E+04</totfact>
</mgrwt>
</event>
<event>
 7    0  0.4770865E-002  0.5168460E+03  0.7546771E-02  0.1009473E+00
         21   -1    0    0  502  501  0.00000000000E+00  0.00000000000E+00  0.22240342082E+03  0.22240342082E+03  0.00000000000E+00 0. -1.
         21   -1    0    0  501  502 -0.00000000000E+00 -0.00000000000E+00 -0.30027620926E+03  0.30027620926E+03  0.00000000000E+00 0. -1.
      99926    2    1    2    0    0  0.00000000000E+00  0.00000000000E+00 -0.77872788443E+02  0.52267963008E+03  0.51684603561E+03 0.  0.
      99925    2    3    3    0    0  0.11428306299E+03  0.10200180716E+03  0.14466393642E+02  0.30441598264E+03  0.26266866351E+03 0.  0.
         25    1    3    3    0    0 -0.11428306299E+03 -0.10200180716E+03 -0.92339182084E+02  0.21826364745E+03  0.12509000000E+03 0.  0.
         25    1    4    4    0    0  0.97726363557E+02  0.65767571196E+02 -0.38331331118E+01  0.17186627524E+03  0.12509000000E+03 0.  0.
         25    1    4    4    0    0  0.16556699429E+02  0.36234235962E+02  0.18299526753E+02  0.13254970740E+03  0.12509000000E+03 0.  0.
<mgrwt>
<rscale>  2 0.51684604E+03</rscale>
<asrwt>0</asrwt>
<pdfrwt beam="1">  1       21 0.32706385E-01 0.51684604E+03</pdfrwt>
<pdfrwt beam="2">  1       21 0.44158266E-01 0.51684604E+03</pdfrwt>
<totfact> 0.40090352E+04</totfact>
</mgrwt>
</event>
<event>
 7    0  0.4770865E-002  0.4555703E+03  0.7546771E-02  0.1026074E+00
         21   -1    0    0  502  501  0.00000000000E+00  0.00000000000E+00  0.69654661866E+03  0.69654661866E+03  0.00000000000E+00 0. -1.
         21   -1    0    0  501  502 -0.00000000000E+00 -0.00000000000E+00 -0.74490465016E+02  0.74490465016E+02  0.00000000000E+00 0. -1.
      99926    2    1    2    0    0  0.00000000000E+00  0.00000000000E+00  0.62205615365E+03  0.77103708368E+03  0.45557033059E+03 0.  0.
      99925    2    3    3    0    0  0.67175600342E+02 -0.90308358083E+02  0.36183729367E+03  0.46115077548E+03  0.26280344331E+03 0.  0.
         25    1    4    4    0    0  0.12641911153E+02 -0.11956053574E+02  0.13276701259E+03  0.18324124227E+03  0.12509000000E+03 0.  0.
         25    1    4    4    0    0  0.54533689188E+02 -0.78352304508E+02  0.22907028108E+03  0.27790953321E+03  0.12509000000E+03 0.  0.
         25    1    3    3    0    0 -0.67175600342E+02  0.90308358083E+02  0.26021885998E+03  0.30988630820E+03  0.12509000000E+03 0.  0.
<mgrwt>
<rscale>  2 0.45557033E+03</rscale>
<asrwt>0</asrwt>
<pdfrwt beam="1">  1       21 0.10243332E+00 0.45557033E+03</pdfrwt>
<pdfrwt beam="2">  1       21 0.10954481E-01 0.45557033E+03</pdfrwt>
<totfact> 0.48977935E+04</totfact>
</mgrwt>
</event>
<event>
 7    0  0.4770865E-002  0.4520103E+03  0.7546771E-02  0.1027124E+00
         21   -1    0    0  502  501  0.00000000000E+00  0.00000000000E+00  0.69956193390E+03  0.69956193390E+03  0.00000000000E+00 0.  1.
         21   -1    0    0  501  502 -0.00000000000E+00 -0.00000000000E+00 -0.73014717663E+02  0.73014717663E+02  0.00000000000E+00 0.  1.
      99926    2    1    2    0    0  0.00000000000E+00 -0.71054273576E-14  0.62654721624E+03  0.77257665156E+03  0.45201025250E+03 0.  0.
      99925    2    3    3    0    0 -0.90630380896E+02 -0.62918576849E+02  0.39138915582E+03  0.48427223825E+03  0.26298577185E+03 0.  0.
         25    1    4    4    0    0 -0.19937439145E+02 -0.56891020327E+02  0.22445958638E+03  0.26393882566E+03  0.12509000000E+03 0.  0.
         25    1    3    3    0    0  0.90630380896E+02  0.62918576849E+02  0.23515806042E+03  0.28830441331E+03  0.12509000000E+03 0.  0.
         25    1    4    4    0    0 -0.70692941751E+02 -0.60275565214E+01  0.16692956944E+03  0.22033341259E+03  0.12509000000E+03 0.  0.
<mgrwt>
<rscale>  2 0.45201025E+03</rscale>
<asrwt>0</asrwt>
<pdfrwt beam="1">  1       21 0.10287675E+00 0.45201025E+03</pdfrwt>
<pdfrwt beam="2">  1       21 0.10737459E-01 0.45201025E+03</pdfrwt>
<totfact> 0.50289754E+04</totfact>
</mgrwt>
</event>
<event>
 7    0  0.4770865E-002  0.4596611E+03  0.7546771E-02  0.1024880E+00
         21   -1    0    0  502  501  0.00000000000E+00  0.00000000000E+00  0.76821700218E+03  0.76821700218E+03  0.00000000000E+00 0.  1.
         21   -1    0    0  501  502 -0.00000000000E+00 -0.00000000000E+00 -0.68759317980E+02  0.68759317980E+02  0.00000000000E+00 0.  1.
      99926    2    1    2    0    0  0.00000000000E+00  0.00000000000E+00  0.69945768420E+03  0.83697632016E+03  0.45966108006E+03 0.  0.
      99925    2    3    3    0    0  0.41736153573E+02 -0.85039945985E+02  0.31191891932E+03  0.41887645014E+03  0.26304062295E+03 0.  0.
         25    1    4    4    0    0  0.72183637165E+00 -0.36858983365E+02  0.20332516066E+03  0.24155275771E+03  0.12509000000E+03 0.  0.
         25    1    3    3    0    0 -0.41736153573E+02  0.85039945985E+02  0.38753876488E+03  0.41809987002E+03  0.12509000000E+03 0.  0.
         25    1    4    4    0    0  0.41014317201E+02 -0.48180962620E+02  0.10859375866E+03  0.17732369242E+03  0.12509000000E+03 0.  0.
<mgrwt>
<rscale>  2 0.45966108E+03</rscale>
<asrwt>0</asrwt>
<pdfrwt beam="1">  1       21 0.11297308E+00 0.45966108E+03</pdfrwt>
<pdfrwt beam="2">  1       21 0.10111665E-01 0.45966108E+03</pdfrwt>
<totfact> 0.44382290E+04</totfact>
</mgrwt>
</event>
<event>
 7    0  0.4770865E-002  0.4632422E+03  0.7546771E-02  0.1023845E+00
         21   -1    0    0  502  501  0.00000000000E+00  0.00000000000E+00  0.36732935572E+02  0.36732935572E+02  0.00000000000E+00 0.  1.
         21   -1    0    0  501  502 -0.00000000000E+00 -0.00000000000E+00 -0.14604967470E+04  0.14604967470E+04  0.00000000000E+00 0.  1.
      99926    2    1    2    0    0  0.00000000000E+00 -0.71054273576E-14 -0.14237638114E+04  0.14972296826E+04  0.46324219544E+03 0.  0.
      99925    2    3    3    0    0  0.94720977928E+02 -0.58160062943E+02 -0.10416966373E+04  0.10801235927E+04  0.26302173809E+03 0.  0.
         25    1    3    3    0    0 -0.94720977928E+02  0.58160062943E+02 -0.38206717407E+03  0.41710608984E+03  0.12509000000E+03 0.  0.
         25    1    4    4    0    0  0.84601307389E+02 -0.15339026136E+02 -0.60402928476E+03  0.62280940253E+03  0.12509000000E+03 0.  0.
         25    1    4    4    0    0  0.10119670539E+02 -0.42821036807E+02 -0.43766735258E+03  0.45731419018E+03  0.12509000000E+03 0.  0.
<mgrwt>
<rscale>  2 0.46324220E+03</rscale>
<asrwt>0</asrwt>
<pdfrwt beam="1">  1       21 0.54019048E-02 0.46324220E+03</pdfrwt>
<pdfrwt beam="2">  1       21 0.21477883E+00 0.46324220E+03</pdfrwt>
<totfact> 0.22379725E+04</totfact>
</mgrwt>
</event>
<event>
 7    0  0.4770865E-002  0.4523571E+03  0.7546771E-02  0.1027021E+00
         21   -1    0    0  502  501  0.00000000000E+00  0.00000000000E+00  0.90381339149E+03  0.90381339149E+03  0.00000000000E+00 0. -1.
         21   -1    0    0  501  502 -0.00000000000E+00 -0.00000000000E+00 -0.56600988047E+02  0.56600988047E+02  0.00000000000E+00 0. -1.
      99926    2    1    2    0    0  0.00000000000E+00 -0.35527136788E-14  0.84721240345E+03  0.96041437954E+03  0.45235707563E+03 0.  0.
      99925    2    3    3    0    0  0.77289875256E+02 -0.30012581252E+02  0.69002842551E+03  0.74309251946E+03  0.26300719498E+03 0.  0.
         25    1    4    4    0    0  0.56247940301E+02 -0.48452091213E+02  0.41241148113E+03  0.43731244414E+03  0.12509000000E+03 0.  0.
         25    1    4    4    0    0  0.21041934955E+02  0.18439509961E+02  0.27761694438E+03  0.30578007532E+03  0.12509000000E+03 0.  0.
         25    1    3    3    0    0 -0.77289875256E+02  0.30012581252E+02  0.15718397794E+03  0.21732186009E+03  0.12509000000E+03 0.  0.
<mgrwt>
<rscale>  2 0.45235708E+03</rscale>
<asrwt>0</asrwt>
<pdfrwt beam="1">  1       21 0.13291373E+00 0.45235708E+03</pdfrwt>
<pdfrwt beam="2">  1       21 0.83236753E-02 0.45235708E+03</pdfrwt>
<totfact> 0.41574471E+04</totfact>
</mgrwt>
</event>
<event>
 7    0  0.4770865E-002  0.4543332E+03  0.7546771E-02  0.1026438E+00
         21   -1    0    0  502  501  0.00000000000E+00  0.00000000000E+00  0.72598246682E+03  0.72598246682E+03  0.00000000000E+00 0.  1.
         21   -1    0    0  501  502 -0.00000000000E+00 -0.00000000000E+00 -0.71082518118E+02  0.71082518118E+02  0.00000000000E+00 0.  1.
      99926    2    1    2    0    0  0.00000000000E+00  0.00000000000E+00  0.65489994870E+03  0.79706498494E+03  0.45433318985E+03 0.  0.
      99925    2    3    3    0    0 -0.65513135907E+02 -0.80173175510E+02  0.33511878010E+03  0.43841862299E+03  0.26303342593E+03 0.  0.
         25    1    3    3    0    0  0.65513135907E+02  0.80173175510E+02  0.31978116860E+03  0.35864636195E+03  0.12509000000E+03 0.  0.
         25    1    4    4    0    0 -0.25187277031E+00 -0.62916193993E+02  0.17951167454E+03  0.22766304114E+03  0.12509000000E+03 0.  0.
         25    1    4    4    0    0 -0.65261263137E+02 -0.17256981517E+02  0.15560710556E+03  0.21075558184E+03  0.12509000000E+03 0.  0.
<mgrwt>
<rscale>  2 0.45433319E+03</rscale>
<asrwt>0</asrwt>
<pdfrwt beam="1">  1       21 0.10676212E+00 0.45433319E+03</pdfrwt>
<pdfrwt beam="2">  1       21 0.10453312E-01 0.45433319E+03</pdfrwt>
<totfact> 0.48158629E+04</totfact>
</mgrwt>
</event>
<event>
 7    0  0.4770865E-002  0.4480331E+03  0.7546771E-02  0.1028310E+00
         21   -1    0    0  502  501  0.00000000000E+00  0.00000000000E+00  0.11989677891E+03  0.11989677891E+03  0.00000000000E+00 0. -1.
         21   -1    0    0  501  502 -0.00000000000E+00 -0.00000000000E+00 -0.41855515913E+03  0.41855515913E+03  0.00000000000E+00 0. -1.
      99926    2    1    2    0    0  0.00000000000E+00  0.00000000000E+00 -0.29865838023E+03  0.53845193804E+03  0.44803310313E+03 0.  0.
      99925    2    3    3    0    0  0.29449723534E+02 -0.57454798504E+02 -0.28995020337E+03  0.39741406890E+03  0.26400470003E+03 0.  0.
         25    1    3    3    0    0 -0.29449723534E+02  0.57454798504E+02 -0.87081768578E+01  0.14103786914E+03  0.12509000000E+03 0.  0.
         25    1    4    4    0    0  0.39856872735E+02  0.37813768461E+01 -0.12550194066E+03  0.18166208830E+03  0.12509000000E+03 0.  0.
         25    1    4    4    0    0 -0.10407149200E+02 -0.61236175350E+02 -0.16444826271E+03  0.21575198060E+03  0.12509000000E+03 0.  0.
<mgrwt>
<rscale>  2 0.44803310E+03</rscale>
<asrwt>0</asrwt>
<pdfrwt beam="1">  1       21 0.17631879E-01 0.44803310E+03</pdfrwt>
<pdfrwt beam="2">  1       21 0.61552230E-01 0.44803310E+03</pdfrwt>
<totfact> 0.66212035E+04</totfact>
</mgrwt>
</event>
<event>
 7    0  0.4770865E-002  0.4579934E+03  0.7546771E-02  0.1025365E+00
         21   -1    0    0  502  501  0.00000000000E+00  0.00000000000E+00  0.15103633922E+03  0.15103633922E+03  0.00000000000E+00 0.  1.
         21   -1    0    0  501  502 -0.00000000000E+00 -0.00000000000E+00 -0.34719784629E+03  0.34719784629E+03  0.00000000000E+00 0.  1.
      99926    2    1    2    0    0 -0.14210854715E-13 -0.44408920985E-15 -0.19616150707E+03  0.49823418552E+03  0.45799341345E+03 0.  0.
      99925    2    3    3    0    0  0.10946966885E+03 -0.26871760140E+01 -0.16480475797E+03  0.32905504045E+03  0.26291782382E+03 0.  0.
         25    1    3    3    0    0 -0.10946966885E+03  0.26871760140E+01 -0.31356749102E+02  0.16917914507E+03  0.12509000000E+03 0.  0.
         25    1    4    4    0    0  0.58745672316E+02 -0.35372215246E+02 -0.10835038448E+03  0.17913559541E+03  0.12509000000E+03 0.  0.
         25    1    4    4    0    0  0.50723996531E+02  0.32685039232E+02 -0.56454373492E+02  0.14991944504E+03  0.12509000000E+03 0.  0.
<mgrwt>
<rscale>  2 0.45799341E+03</rscale>
<asrwt>0</asrwt>
<pdfrwt beam="1">  1       21 0.22211227E-01 0.45799341E+03</pdfrwt>
<pdfrwt beam="2">  1       21 0.51058506E-01 0.45799341E+03</pdfrwt>
<totfact> 0.63863755E+04</totfact>
</mgrwt>
</event>
<event>
 7    0  0.4770865E-002  0.4987824E+03  0.7546771E-02  0.1014097E+00
         21   -1    0    0  502  501  0.00000000000E+00  0.00000000000E+00  0.21425535211E+03  0.21425535211E+03  0.00000000000E+00 0.  1.
         21   -1    0    0  501  502 -0.00000000000E+00 -0.00000000000E+00 -0.29028893631E+03  0.29028893631E+03  0.00000000000E+00 0.  1.
      99926    2    1    2    0    0  0.00000000000E+00 -0.71054273576E-14 -0.76033584207E+02  0.50454428842E+03  0.49878235038E+03 0.  0.
      99925    2    3    3    0    0 -0.17522533579E+02 -0.46870020425E+02  0.97510923208E+02  0.28484212150E+03  0.26291218313E+03 0.  0.
         25    1    3    3    0    0  0.17522533579E+02  0.46870020425E+02 -0.17354450741E+03  0.21970216692E+03  0.12509000000E+03 0.  0.
         25    1    4    4    0    0  0.20547690276E+02 -0.42527255116E+02  0.27679416241E+02  0.13654461977E+03  0.12509000000E+03 0.  0.
         25    1    4    4    0    0 -0.38070223855E+02 -0.43427653086E+01  0.69831506966E+02  0.14829750173E+03  0.12509000000E+03 0.  0.
<mgrwt>
<rscale>  2 0.49878235E+03</rscale>
<asrwt>0</asrwt>
<pdfrwt beam="1">  1       21 0.31508140E-01 0.49878235E+03</pdfrwt>
<pdfrwt beam="2">  1       21 0.42689550E-01 0.49878235E+03</pdfrwt>
<totfact> 0.46539589E+04</totfact>
</mgrwt>
</event>
<event>
 7    0  0.4770865E-002  0.4466404E+03  0.7546771E-02  0.1028729E+00
         21   -1    0    0  502  501  0.00000000000E+00  0.00000000000E+00  0.66509638614E+03  0.66509638614E+03  0.00000000000E+00 0. -1.
         21   -1    0    0  501  502 -0.00000000000E+00 -0.00000000000E+00 -0.74984489584E+02  0.74984489584E+02  0.00000000000E+00 0. -1.
      99926    2    1    2    0    0  0.00000000000E+00  0.00000000000E+00  0.59011189656E+03  0.74008087573E+03  0.44664040587E+03 0.  0.
      99925    2    3    3    0    0  0.99205195437E+02  0.34358331011E+02  0.36772676506E+03  0.46417360774E+03  0.26308173383E+03 0.  0.
         25    1    3    3    0    0 -0.99205195437E+02 -0.34358331011E+02  0.22238513150E+03  0.27590726798E+03  0.12509000000E+03 0.  0.
         25    1    4    4    0    0  0.52796837281E+02  0.14451320956E+02  0.25121765710E+03  0.28592685436E+03  0.12509000000E+03 0.  0.
         25    1    4    4    0    0  0.46408358156E+02  0.19907010056E+02  0.11650910795E+03  0.17824675338E+03  0.12509000000E+03 0.  0.
<mgrwt>
<rscale>  2 0.44664041E+03</rscale>
<asrwt>0</asrwt>
<pdfrwt beam="1">  1       21 0.97808289E-01 0.44664041E+03</pdfrwt>
<pdfrwt beam="2">  1       21 0.11027131E-01 0.44664041E+03</pdfrwt>
<totfact> 0.54259116E+04</totfact>
</mgrwt>
</event>
<event>
 7    0  0.4770865E-002  0.4567469E+03  0.7546771E-02  0.1025729E+00
         21   -1    0    0  502  501  0.00000000000E+00  0.00000000000E+00  0.70965636955E+02  0.70965636955E+02  0.00000000000E+00 0.  1.
         21   -1    0    0  501  502 -0.00000000000E+00 -0.00000000000E+00 -0.73492506869E+03  0.73492506869E+03  0.00000000000E+00 0.  1.
      99926    2    1    2    0    0  0.00000000000E+00 -0.35527136788E-14 -0.66395943174E+03  0.80589070565E+03  0.45674686912E+03 0.  0.
      99925    2    3    3    0    0  0.11180577270E+03  0.23587652395E+02 -0.39675311169E+03  0.48949912275E+03  0.26294381792E+03 0.  0.
         25    1    3    3    0    0 -0.11180577270E+03 -0.23587652395E+02 -0.26720632005E+03  0.31639158290E+03  0.12509000000E+03 0.  0.
         25    1    4    4    0    0  0.59642049640E+02  0.35010217820E+02 -0.25955425654E+03  0.29630863914E+03  0.12509000000E+03 0.  0.
         25    1    4    4    0    0  0.52163723064E+02 -0.11422565425E+02 -0.13719885515E+03  0.19319048361E+03  0.12509000000E+03 0.  0.
<mgrwt>
<rscale>  2 0.45674687E+03</rscale>
<asrwt>0</asrwt>
<pdfrwt beam="1">  1       21 0.10436123E-01 0.45674687E+03</pdfrwt>
<pdfrwt beam="2">  1       21 0.10807722E+00 0.45674687E+03</pdfrwt>
<totfact> 0.46835841E+04</totfact>
</mgrwt>
</event>
<event>
 7    0  0.4770865E-002  0.4488651E+03  0.7546771E-02  0.1028061E+00
         21   -1    0    0  502  501  0.00000000000E+00  0.00000000000E+00  0.14488056711E+03  0.14488056711E+03  0.00000000000E+00 0.  1.
         21   -1    0    0  501  502 -0.00000000000E+00 -0.00000000000E+00 -0.34766546514E+03  0.34766546514E+03  0.00000000000E+00 0.  1.
      99926    2    1    2    0    0  0.00000000000E+00  0.00000000000E+00 -0.20278489804E+03  0.49254603225E+03  0.44886510113E+03 0.  0.
      99925    2    3    3    0    0  0.75505754080E+02  0.73469634632E+02 -0.10588687725E+03  0.30245226422E+03  0.26299512399E+03 0.  0.
         25    1    4    4    0    0  0.32568528444E+02  0.77036722141E+02 -0.47073215391E+02  0.15766661444E+03  0.12509000000E+03 0.  0.
         25    1    4    4    0    0  0.42937225636E+02 -0.35670875090E+01 -0.58813661859E+02  0.14478564977E+03  0.12509000000E+03 0.  0.
         25    1    3    3    0    0 -0.75505754080E+02 -0.73469634632E+02 -0.96898020789E+02  0.19009376803E+03  0.12509000000E+03 0.  0.
<mgrwt>
<rscale>  2 0.44886510E+03</rscale>
<asrwt>0</asrwt>
<pdfrwt beam="1">  1       21 0.21305966E-01 0.44886510E+03</pdfrwt>
<pdfrwt beam="2">  1       21 0.51127273E-01 0.44886510E+03</pdfrwt>
<totfact> 0.69102118E+04</totfact>
</mgrwt>
</event>
<event>
 7    0  0.4770865E-002  0.4531957E+03  0.7546771E-02  0.1026773E+00
         21   -1    0    0  502  501  0.00000000000E+00  0.00000000000E+00  0.29502524731E+02  0.29502524731E+02  0.00000000000E+00 0.  1.
         21   -1    0    0  501  502 -0.00000000000E+00 -0.00000000000E+00 -0.17404133248E+04  0.17404133248E+04  0.00000000000E+00 0.  1.
      99926    2    1    2    0    0 -0.55511151231E-15  0.00000000000E+00 -0.17109108000E+04  0.17699158495E+04  0.45319570676E+03 0.  0.
      99925    2    3    3    0    0  0.56918674446E+00  0.83227549172E+02 -0.78905540303E+03  0.83589656168E+03  0.26303513809E+03 0.  0.
         25    1    4    4    0    0 -0.16440976494E+02  0.80392419120E+02 -0.43204212866E+03  0.45721018777E+03  0.12509000000E+03 0.  0.
         25    1    3    3    0    0 -0.56918674446E+00 -0.83227549172E+02 -0.92185539701E+03  0.93401928781E+03  0.12509000000E+03 0.  0.
         25    1    4    4    0    0  0.17010163238E+02  0.28351300510E+01 -0.35701327436E+03  0.37868637391E+03  0.12509000000E+03 0.  0.
<mgrwt>
<rscale>  2 0.45319571E+03</rscale>
<asrwt>0</asrwt>
<pdfrwt beam="1">  1       21 0.43386065E-02 0.45319571E+03</pdfrwt>
<pdfrwt beam="2">  1       21 0.25594314E+00 0.45319571E+03</pdfrwt>
<totfact> 0.18096903E+04</totfact>
</mgrwt>
</event>
<event>
 7    0  0.4770865E-002  0.4466461E+03  0.7546771E-02  0.1028727E+00
         21   -1    0    0  502  501  0.00000000000E+00  0.00000000000E+00  0.18608148577E+03  0.18608148577E+03  0.00000000000E+00 0.  1.
         21   -1    0    0  501  502 -0.00000000000E+00 -0.00000000000E+00 -0.26801800354E+03  0.26801800354E+03  0.00000000000E+00 0.  1.
      99926    2    1    2    0    0  0.00000000000E+00 -0.44408920985E-15 -0.81936517766E+02  0.45409948930E+03  0.44664611634E+03 0.  0.
      99925    2    3    3    0    0 -0.39496737614E+02 -0.61826730849E+00 -0.15101736879E+03  0.30584279767E+03  0.26300797835E+03 0.  0.
         25    1    4    4    0    0 -0.14881244643E+02 -0.12835864772E+02 -0.31089452465E+02  0.13038509509E+03  0.12509000000E+03 0.  0.
         25    1    4    4    0    0 -0.24615492971E+02  0.12217597463E+02 -0.11992791632E+03  0.17545770258E+03  0.12509000000E+03 0.  0.
         25    1    3    3    0    0  0.39496737614E+02  0.61826730849E+00  0.69080851021E+02  0.14825669163E+03  0.12509000000E+03 0.  0.
<mgrwt>
<rscale>  2 0.44664612E+03</rscale>
<asrwt>0</asrwt>
<pdfrwt beam="1">  1       21 0.27364924E-01 0.44664612E+03</pdfrwt>
<pdfrwt beam="2">  1       21 0.39414412E-01 0.44664612E+03</pdfrwt>
<totfact> 0.73380258E+04</totfact>
</mgrwt>
</event>
<event>
 7    0  0.4770865E-002  0.4568930E+03  0.7546771E-02  0.1025686E+00
         21   -1    0    0  502  501  0.00000000000E+00  0.00000000000E+00  0.57698051095E+03  0.57698051095E+03  0.00000000000E+00 0.  1.
         21   -1    0    0  501  502 -0.00000000000E+00 -0.00000000000E+00 -0.90449873373E+02  0.90449873373E+02  0.00000000000E+00 0.  1.
      99926    2    1    2    0    0  0.00000000000E+00  0.00000000000E+00  0.48653063757E+03  0.66743038432E+03  0.45689304724E+03 0.  0.
      99925    2    3    3    0    0  0.10399768109E+03  0.36995677514E+02  0.25930638276E+03  0.38553932752E+03  0.26309043140E+03 0.  0.
         25    1    4    4    0    0  0.47446812946E+02 -0.10918272697E+02  0.86444086964E+02  0.15965743643E+03  0.12509000000E+03 0.  0.
         25    1    3    3    0    0 -0.10399768109E+03 -0.36995677514E+02  0.22722425482E+03  0.28189105680E+03  0.12509000000E+03 0.  0.
         25    1    4    4    0    0  0.56550868149E+02  0.47913950210E+02  0.17286229579E+03  0.22588189109E+03  0.12509000000E+03 0.  0.
<mgrwt>
<rscale>  2 0.45689305E+03</rscale>
<asrwt>0</asrwt>
<pdfrwt beam="1">  1       21 0.84850073E-01 0.45689305E+03</pdfrwt>
<pdfrwt beam="2">  1       21 0.13301452E-01 0.45689305E+03</pdfrwt>
<totfact> 0.53898218E+04</totfact>
</mgrwt>
</event>
<event>
 7    0  0.4770865E-002  0.4609994E+03  0.7546771E-02  0.1024492E+00
         21   -1    0    0  502  501  0.00000000000E+00  0.00000000000E+00  0.30921446601E+03  0.30921446601E+03  0.00000000000E+00 0.  1.
         21   -1    0    0  501  502 -0.00000000000E+00 -0.00000000000E+00 -0.17182284306E+03  0.17182284306E+03  0.00000000000E+00 0.  1.
      99926    2    1    2    0    0  0.00000000000E+00  0.00000000000E+00  0.13739162295E+03  0.48103730907E+03  0.46099938683E+03 0.  0.
      99925    2    3    3    0    0  0.11633501146E+03 -0.26524213390E+02  0.89084272136E+02  0.30154224777E+03  0.26221050868E+03 0.  0.
         25    1    4    4    0    0  0.71070372232E+02 -0.75500644726E+01  0.73341070397E+01  0.14425428420E+03  0.12509000000E+03 0.  0.
         25    1    4    4    0    0  0.45264639230E+02 -0.18974148917E+02  0.81750165097E+02  0.15728796357E+03  0.12509000000E+03 0.  0.
         25    1    3    3    0    0 -0.11633501146E+03  0.26524213390E+02  0.48307350816E+02  0.17949506130E+03  0.12509000000E+03 0.  0.
<mgrwt>
<rscale>  2 0.46099939E+03</rscale>
<asrwt>0</asrwt>
<pdfrwt beam="1">  1       21 0.45472716E-01 0.46099939E+03</pdfrwt>
<pdfrwt beam="2">  1       21 0.25268065E-01 0.46099939E+03</pdfrwt>
<totfact> 0.63544631E+04</totfact>
</mgrwt>
</event>
<event>
 7    0  0.4770865E-002  0.4541397E+03  0.7546771E-02  0.1026495E+00
         21   -1    0    0  502  501  0.00000000000E+00  0.00000000000E+00  0.35982174391E+03  0.35982174391E+03  0.00000000000E+00 0.  1.
         21   -1    0    0  501  502 -0.00000000000E+00 -0.00000000000E+00 -0.14329515607E+03  0.14329515607E+03  0.00000000000E+00 0.  1.
      99926    2    1    2    0    0  0.35527136788E-14 -0.14210854715E-13  0.21652658783E+03  0.50311689998E+03  0.45413968314E+03 0.  0.
      99925    2    3    3    0    0  0.26376878231E+02 -0.10919934288E+03  0.13585772400E+03  0.31663577524E+03  0.26302216029E+03 0.  0.
         25    1    3    3    0    0 -0.26376878231E+02  0.10919934288E+03  0.80668863835E+02  0.18648112474E+03  0.12509000000E+03 0.  0.
         25    1    4    4    0    0  0.39199162707E+02 -0.46945760217E+02  0.10112791248E+03  0.17208963229E+03  0.12509000000E+03 0.  0.
         25    1    4    4    0    0 -0.12822284475E+02 -0.62253582662E+02  0.34729811516E+02  0.14454614295E+03  0.12509000000E+03 0.  0.
<mgrwt>
<rscale>  2 0.45413968E+03</rscale>
<asrwt>0</asrwt>
<pdfrwt beam="1">  1       21 0.52914962E-01 0.45413968E+03</pdfrwt>
<pdfrwt beam="2">  1       21 0.21072817E-01 0.45413968E+03</pdfrwt>
<totfact> 0.65498374E+04</totfact>
</mgrwt>
</event>
<event>
 7    0  0.4770865E-002  0.4847974E+03  0.7546771E-02  0.1017825E+00
         21   -1    0    0  502  501  0.00000000000E+00  0.00000000000E+00  0.62343329558E+03  0.62343329558E+03  0.00000000000E+00 0. -1.
         21   -1    0    0  501  502 -0.00000000000E+00 -0.00000000000E+00 -0.94247654532E+02  0.94247654532E+02  0.00000000000E+00 0. -1.
      99926    2    1    2    0    0  0.14210854715E-13  0.00000000000E+00  0.52918564104E+03  0.71768095011E+03  0.48479738393E+03 0.  0.
      99925    2    3    3    0    0  0.93798774061E+02  0.64197283644E+02  0.44404697231E+03  0.52843084507E+03  0.26294855612E+03 0.  0.
         25    1    4    4    0    0  0.16255264167E+02  0.56244645856E+02  0.23646914688E+03  0.27384824142E+03  0.12509000000E+03 0.  0.
         25    1    4    4    0    0  0.77543509894E+02  0.79526377879E+01  0.20757782543E+03  0.25458260365E+03  0.12509000000E+03 0.  0.
         25    1    3    3    0    0 -0.93798774061E+02 -0.64197283644E+02  0.85138668737E+02  0.18925010504E+03  0.12509000000E+03 0.  0.
<mgrwt>
<rscale>  2 0.48479738E+03</rscale>
<asrwt>0</asrwt>
<pdfrwt beam="1">  1       21 0.91681365E-01 0.48479738E+03</pdfrwt>
<pdfrwt beam="2">  1       21 0.13859949E-01 0.48479738E+03</pdfrwt>
<totfact> 0.41364998E+04</totfact>
</mgrwt>
</event>
<event>
 7    0  0.4770865E-002  0.4542450E+03  0.7546771E-02  0.1026464E+00
         21   -1    0    0  502  501  0.00000000000E+00  0.00000000000E+00  0.91237072252E+02  0.91237072252E+02  0.00000000000E+00 0. -1.
         21   -1    0    0  501  502 -0.00000000000E+00 -0.00000000000E+00 -0.56539107721E+03  0.56539107721E+03  0.00000000000E+00 0. -1.
      99926    2    1    2    0    0 -0.14210854715E-13  0.00000000000E+00 -0.47415400496E+03  0.65662814946E+03  0.45424498484E+03 0.  0.
      99925    2    3    3    0    0 -0.47351267769E+02  0.10193649620E+03 -0.30047173947E+03  0.41487159988E+03  0.26306270423E+03 0.  0.
         25    1    4    4    0    0 -0.64571897068E+02  0.57546807422E+02 -0.16633639089E+03  0.22538071783E+03  0.12509000000E+03 0.  0.
         25    1    4    4    0    0  0.17220629299E+02  0.44389688782E+02 -0.13413534858E+03  0.18949088205E+03  0.12509000000E+03 0.  0.
         25    1    3    3    0    0  0.47351267769E+02 -0.10193649620E+03 -0.17368226549E+03  0.24175654958E+03  0.12509000000E+03 0.  0.
<mgrwt>
<rscale>  2 0.45424498E+03</rscale>
<asrwt>0</asrwt>
<pdfrwt beam="1">  1       21 0.13417216E-01 0.45424498E+03</pdfrwt>
<pdfrwt beam="2">  1       21 0.83145749E-01 0.45424498E+03</pdfrwt>
<totfact> 0.55651836E+04</totfact>
</mgrwt>
</event>
<event>
 7    0  0.4770865E-002  0.4588513E+03  0.7546771E-02  0.1025115E+00
         21   -1    0    0  502  501  0.00000000000E+00  0.00000000000E+00  0.37367162068E+03  0.37367162068E+03  0.00000000000E+00 0. -1.
         21   -1    0    0  501  502 -0.00000000000E+00 -0.00000000000E+00 -0.14086196616E+03  0.14086196616E+03  0.00000000000E+00 0. -1.
      99926    2    1    2    0    0  0.00000000000E+00  0.14210854715E-13  0.23280965452E+03  0.51453358684E+03  0.45885125776E+03 0.  0.
      99925    2    3    3    0    0 -0.52328490733E+02 -0.98640765003E+02  0.10830391964E+03  0.30568565752E+03  0.26314579750E+03 0.  0.
         25    1    3    3    0    0  0.52328490733E+02  0.98640765003E+02  0.12450573488E+03  0.20884792932E+03  0.12509000000E+03 0.  0.
         25    1    4    4    0    0  0.14602572175E+02 -0.50128706009E+02  0.43649531829E+02  0.14240404492E+03  0.12509000000E+03 0.  0.
         25    1    4    4    0    0 -0.66931062908E+02 -0.48512058994E+02  0.64654387811E+02  0.16328161260E+03  0.12509000000E+03 0.  0.
<mgrwt>
<rscale>  2 0.45885126E+03</rscale>
<asrwt>0</asrwt>
<pdfrwt beam="1">  1       21 0.54951709E-01 0.45885126E+03</pdfrwt>
<pdfrwt beam="2">  1       21 0.20714995E-01 0.45885126E+03</pdfrwt>
<totfact> 0.62334233E+04</totfact>
</mgrwt>
</event>
<event>
 7    0  0.4770865E-002  0.4512786E+03  0.7546771E-02  0.1027341E+00
         21   -1    0    0  502  501  0.00000000000E+00  0.00000000000E+00  0.11283732327E+03  0.11283732327E+03  0.00000000000E+00 0.  1.
         21   -1    0    0  501  502 -0.00000000000E+00 -0.00000000000E+00 -0.45120785708E+03  0.45120785708E+03  0.00000000000E+00 0.  1.
      99926    2    1    2    0    0  0.00000000000E+00 -0.35527136788E-14 -0.33837053381E+03  0.56404518035E+03  0.45127856954E+03 0.  0.
      99925    2    3    3    0    0 -0.17753860938E+02  0.27796344536E+02 -0.34431934577E+03  0.43454331623E+03  0.26302898216E+03 0.  0.
         25    1    4    4    0    0  0.35888094920E+01  0.47368937670E+02 -0.20758935851E+03  0.24697681202E+03  0.12509000000E+03 0.  0.
         25    1    3    3    0    0  0.17753860938E+02 -0.27796344536E+02  0.59488119609E+01  0.12950186412E+03  0.12509000000E+03 0.  0.
         25    1    4    4    0    0 -0.21342670430E+02 -0.19572593134E+02 -0.13672998726E+03  0.18756650420E+03  0.12509000000E+03 0.  0.
<mgrwt>
<rscale>  2 0.45127857E+03</rscale>
<asrwt>0</asrwt>
<pdfrwt beam="1">  1       21 0.16593724E-01 0.45127857E+03</pdfrwt>
<pdfrwt beam="2">  1       21 0.66354097E-01 0.45127857E+03</pdfrwt>
<totfact> 0.62775170E+04</totfact>
</mgrwt>
</event>
<event>
 7    0  0.4770865E-002  0.4406610E+03  0.7546771E-02  0.1030544E+00
         21   -1    0    0  502  501  0.00000000000E+00  0.00000000000E+00  0.15725305229E+04  0.15725305229E+04  0.00000000000E+00 0.  1.
         21   -1    0    0  501  502 -0.00000000000E+00 -0.00000000000E+00 -0.30870968009E+02  0.30870968009E+02  0.00000000000E+00 0.  1.
      99926    2    1    2    0    0  0.00000000000E+00  0.00000000000E+00  0.15416595549E+04  0.16034014909E+04  0.44066104645E+03 0.  0.
      99925    2    3    3    0    0  0.72061560107E+02  0.49602335183E+02  0.81372216654E+03  0.85963162761E+03  0.26300097102E+03 0.  0.
         25    1    3    3    0    0 -0.72061560107E+02 -0.49602335183E+02  0.72793738836E+03  0.74376986331E+03  0.12509000000E+03 0.  0.
         25    1    4    4    0    0  0.62063935320E+02  0.30399188900E+02  0.33178344641E+03  0.36125310541E+03  0.12509000000E+03 0.  0.
         25    1    4    4    0    0  0.99976247866E+01  0.19203146283E+02  0.48193872013E+03  0.49837852220E+03  0.12509000000E+03 0.  0.
<mgrwt>
<rscale>  2 0.44066105E+03</rscale>
<asrwt>0</asrwt>
<pdfrwt beam="1">  1       21 0.23125443E+00 0.44066105E+03</pdfrwt>
<pdfrwt beam="2">  1       21 0.45398493E-02 0.44066105E+03</pdfrwt>
<totfact> 0.23906106E+04</totfact>
</mgrwt>
</event>
<event>
 7    0  0.4770865E-002  0.4433017E+03  0.7546771E-02  0.1029739E+00
         21   -1    0    0  502  501  0.00000000000E+00  0.00000000000E+00  0.21259426397E+03  0.21259426397E+03  0.00000000000E+00 0. -1.
         21   -1    0    0  501  502 -0.00000000000E+00 -0.00000000000E+00 -0.23109321863E+03  0.23109321863E+03  0.00000000000E+00 0. -1.
      99926    2    1    2    0    0  0.00000000000E+00  0.00000000000E+00 -0.18498954664E+02  0.44368748260E+03  0.44330167030E+03 0.  0.
      99925    2    3    3    0    0 -0.46366049410E+02  0.67804835586E+02  0.48322946663E+02  0.27979733383E+03  0.26306678729E+03 0.  0.
         25    1    4    4    0    0 -0.10015603978E+02  0.67876424321E+02  0.44599284269E+02  0.14947951552E+03  0.12509000000E+03 0.  0.
         25    1    4    4    0    0 -0.36350445432E+02 -0.71588734701E-01  0.37236623937E+01  0.13031781831E+03  0.12509000000E+03 0.  0.
         25    1    3    3    0    0  0.46366049410E+02 -0.67804835586E+02 -0.66821901327E+02  0.16389014877E+03  0.12509000000E+03 0.  0.
<mgrwt>
<rscale>  2 0.44330167E+03</rscale>
<asrwt>0</asrwt>
<pdfrwt beam="1">  1       21 0.31263862E-01 0.44330167E+03</pdfrwt>
<pdfrwt beam="2">  1       21 0.33984297E-01 0.44330167E+03</pdfrwt>
<totfact> 0.76255593E+04</totfact>
</mgrwt>
</event>
<event>
 6    0  0.4770865E-002  0.4456147E+03  0.7546771E-02  0.1029038E+00
         21   -1    0    0  502  501  0.00000000000E+00  0.00000000000E+00  0.47754888587E+03  0.47754888587E+03  0.00000000000E+00 0.  1.
         21   -1    0    0  501  502 -0.00000000000E+00 -0.00000000000E+00 -0.10395399071E+03  0.10395399071E+03  0.00000000000E+00 0.  1.
      99926    2    1    2    0    0 -0.35527136788E-14 -0.14210854715E-13  0.37359489516E+03  0.58150287658E+03  0.44561468758E+03 0.  0.
         25    1    3    3    0    0 -0.15233616002E+02 -0.94862547134E+02  0.13059014026E+03  0.20477367687E+03  0.12509000000E+03 0.  0.
         25    1    3    3    0    0  0.25796427889E+02  0.93825590604E+02  0.16574977330E+03  0.22932333634E+03  0.12509000000E+03 0.  0.
         25    1    3    3    0    0 -0.10562811887E+02  0.10369565300E+01  0.77254981598E+02  0.14740586337E+03  0.12509000000E+03 0.  0.
<mgrwt>
<rscale>  2 0.44561469E+03</rscale>
<asrwt>0</asrwt>
<pdfrwt beam="1">  1       21 0.70227776E-01 0.44561469E+03</pdfrwt>
<pdfrwt beam="2">  1       21 0.15287352E-01 0.44561469E+03</pdfrwt>
<totfact> 0.64484209E+04</totfact>
</mgrwt>
</event>
<event>
 7    0  0.4770865E-002  0.4535879E+03  0.7546771E-02  0.1026657E+00
         21   -1    0    0  502  501  0.00000000000E+00  0.00000000000E+00  0.98799272896E+03  0.98799272896E+03  0.00000000000E+00 0.  1.
         21   -1    0    0  501  502 -0.00000000000E+00 -0.00000000000E+00 -0.52060601903E+02  0.52060601903E+02  0.00000000000E+00 0.  1.
      99926    2    1    2    0    0  0.00000000000E+00  0.71054273576E-14  0.93593212705E+03  0.10400533309E+04  0.45358790171E+03 0.  0.
      99925    2    3    3    0    0 -0.82898621440E+02  0.63621687186E+02  0.49533389641E+03  0.57027230798E+03  0.26255463392E+03 0.  0.
         25    1    3    3    0    0  0.82898621440E+02 -0.63621687186E+02  0.44059823064E+03  0.46978102288E+03  0.12509000000E+03 0.  0.
         25    1    4    4    0    0 -0.57036748667E+02  0.60473108521E+02  0.21580907003E+03  0.26292822283E+03  0.12509000000E+03 0.  0.
         25    1    4    4    0    0 -0.25861872774E+02  0.31485786647E+01  0.27952482639E+03  0.30734408515E+03  0.12509000000E+03 0.  0.
<mgrwt>
<rscale>  2 0.45358790E+03</rscale>
<asrwt>0</asrwt>
<pdfrwt beam="1">  1       21 0.14529304E+00 0.45358790E+03</pdfrwt>
<pdfrwt beam="2">  1       21 0.76559715E-02 0.45358790E+03</pdfrwt>
<totfact> 0.38062328E+04</totfact>
</mgrwt>
</event>
<event>
 7    0  0.4770865E-002  0.4484959E+03  0.7546771E-02  0.1028172E+00
         21   -1    0    0  502  501  0.00000000000E+00  0.00000000000E+00  0.47874744105E+03  0.47874744105E+03  0.00000000000E+00 0.  1.
         21   -1    0    0  501  502 -0.00000000000E+00 -0.00000000000E+00 -0.10503896590E+03  0.10503896590E+03  0.00000000000E+00 0.  1.
      99926    2    1    2    0    0  0.71054273576E-14  0.00000000000E+00  0.37370847514E+03  0.58378640695E+03  0.44849586904E+03 0.  0.
      99925    2    3    3    0    0  0.35751103414E+02 -0.92477330564E+02  0.18418059510E+03  0.33599915248E+03  0.26295007282E+03 0.  0.
         25    1    3    3    0    0 -0.35751103414E+02  0.92477330564E+02  0.18952788004E+03  0.24778725447E+03  0.12509000000E+03 0.  0.
         25    1    4    4    0    0 -0.16788669711E+02 -0.43892885323E+02  0.11427955169E+03  0.17582880551E+03  0.12509000000E+03 0.  0.
         25    1    4    4    0    0  0.52539773125E+02 -0.48584445242E+02  0.69901043414E+02  0.16017034697E+03  0.12509000000E+03 0.  0.
<mgrwt>
<rscale>  2 0.44849587E+03</rscale>
<asrwt>0</asrwt>
<pdfrwt beam="1">  1       21 0.70404034E-01 0.44849587E+03</pdfrwt>
<pdfrwt beam="2">  1       21 0.15446907E-01 0.44849587E+03</pdfrwt>
<totfact> 0.62857423E+04</totfact>
</mgrwt>
</event>
<event>
 7    0  0.4770865E-002  0.4483490E+03  0.7546771E-02  0.1028216E+00
         21   -1    0    0  502  501  0.00000000000E+00  0.00000000000E+00  0.14416698847E+03  0.14416698847E+03  0.00000000000E+00 0.  1.
         21   -1    0    0  501  502 -0.00000000000E+00 -0.00000000000E+00 -0.34858332024E+03  0.34858332024E+03  0.00000000000E+00 0.  1.
      99926    2    1    2    0    0  0.00000000000E+00  0.00000000000E+00 -0.20441633177E+03  0.49275030871E+03  0.44834900472E+03 0.  0.
      99925    2    3    3    0    0 -0.10222239521E+03  0.14503754014E+02 -0.99572096092E+02  0.29961926817E+03  0.26305384729E+03 0.  0.
         25    1    4    4    0    0 -0.41534503925E+02  0.46677999964E+02 -0.52233273074E+02  0.14926410691E+03  0.12509000000E+03 0.  0.
         25    1    4    4    0    0 -0.60687891290E+02 -0.32174245950E+02 -0.47338823018E+02  0.15035516126E+03  0.12509000000E+03 0.  0.
         25    1    3    3    0    0  0.10222239521E+03 -0.14503754014E+02 -0.10484423568E+03  0.19313104054E+03  0.12509000000E+03 0.  0.
<mgrwt>
<rscale>  2 0.44834900E+03</rscale>
<asrwt>0</asrwt>
<pdfrwt beam="1">  1       21 0.21201028E-01 0.44834900E+03</pdfrwt>
<pdfrwt beam="2">  1       21 0.51262253E-01 0.44834900E+03</pdfrwt>
<totfact> 0.69374148E+04</totfact>
</mgrwt>
</event>
<event>
 7    0  0.4770865E-002  0.4656797E+03  0.7546771E-02  0.1023147E+00
         21   -1    0    0  502  501  0.00000000000E+00  0.00000000000E+00  0.84006263153E+02  0.84006263153E+02  0.00000000000E+00 0. -1.
         21   -1    0    0  501  502 -0.00000000000E+00 -0.00000000000E+00 -0.64536140910E+03  0.64536140910E+03  0.00000000000E+00 0. -1.
      99926    2    1    2    0    0  0.71054273576E-14  0.14210854715E-13 -0.56135514595E+03  0.72936767226E+03  0.46567971982E+03 0.  0.
      99925    2    3    3    0    0  0.61055982249E+02  0.10524739107E+03 -0.37775316343E+03  0.47606539753E+03  0.26293718633E+03 0.  0.
         25    1    4    4    0    0  0.41194551167E+02  0.71839992325E+02 -0.25873807991E+03  0.29908339579E+03  0.12509000000E+03 0.  0.
         25    1    3    3    0    0 -0.61055982249E+02 -0.10524739107E+03 -0.18360198252E+03  0.25330227472E+03  0.12509000000E+03 0.  0.
         25    1    4    4    0    0  0.19861431082E+02  0.33407398740E+02 -0.11901508352E+03  0.17698200174E+03  0.12509000000E+03 0.  0.
<mgrwt>
<rscale>  2 0.46567972E+03</rscale>
<asrwt>0</asrwt>
<pdfrwt beam="1">  1       21 0.12353862E-01 0.46567972E+03</pdfrwt>
<pdfrwt beam="2">  1       21 0.94906091E-01 0.46567972E+03</pdfrwt>
<totfact> 0.47242920E+04</totfact>
</mgrwt>
</event>
<event>
 7    0  0.4770865E-002  0.4554817E+03  0.7546771E-02  0.1026100E+00
         21   -1    0    0  502  501  0.00000000000E+00  0.00000000000E+00  0.61545893104E+02  0.61545893104E+02  0.00000000000E+00 0.  1.
         21   -1    0    0  501  502 -0.00000000000E+00 -0.00000000000E+00 -0.84271909305E+03  0.84271909305E+03  0.00000000000E+00 0.  1.
      99926    2    1    2    0    0  0.00000000000E+00  0.00000000000E+00 -0.78117319995E+03  0.90426498615E+03  0.45548171958E+03 0.  0.
      99925    2    3    3    0    0  0.92631085878E+01  0.62119910814E+02 -0.67930451887E+03  0.73114819094E+03  0.26301779267E+03 0.  0.
         25    1    4    4    0    0  0.15221613369E+02 -0.32953713846E+01 -0.26590018494E+03  0.29426684053E+03  0.12509000000E+03 0.  0.
         25    1    3    3    0    0 -0.92631085878E+01 -0.62119910814E+02 -0.10186868108E+03  0.17311679521E+03  0.12509000000E+03 0.  0.
         25    1    4    4    0    0 -0.59585047812E+01  0.65415282198E+02 -0.41340433392E+03  0.43688135041E+03  0.12509000000E+03 0.  0.
<mgrwt>
<rscale>  2 0.45548172E+03</rscale>
<asrwt>0</asrwt>
<pdfrwt beam="1">  1       21 0.90508669E-02 0.45548172E+03</pdfrwt>
<pdfrwt beam="2">  1       21 0.12392927E+00 0.45548172E+03</pdfrwt>
<totfact> 0.42887838E+04</totfact>
</mgrwt>
</event>
<event>
 7    0  0.4770865E-002  0.4708868E+03  0.7546771E-02  0.1021670E+00
         21   -1    0    0  502  501  0.00000000000E+00  0.00000000000E+00  0.60401540594E+03  0.60401540594E+03  0.00000000000E+00 0.  1.
         21   -1    0    0  501  502 -0.00000000000E+00 -0.00000000000E+00 -0.91775123398E+02  0.91775123398E+02  0.00000000000E+00 0.  1.
      99926    2    1    2    0    0  0.00000000000E+00 -0.14210854715E-13  0.51224028254E+03  0.69579052934E+03  0.47088677371E+03 0.  0.
      99925    2    3    3    0    0 -0.37374096658E+02 -0.12137664633E+03  0.30253081225E+03  0.42055484232E+03  0.26308243892E+03 0.  0.
         25    1    4    4    0    0  0.15128438975E+01 -0.97144045144E+02  0.15169639123E+03  0.21931383316E+03  0.12509000000E+03 0.  0.
         25    1    3    3    0    0  0.37374096658E+02  0.12137664633E+03  0.20970947030E+03  0.27523568701E+03  0.12509000000E+03 0.  0.
         25    1    4    4    0    0 -0.38886940556E+02 -0.24232601182E+02  0.15083442101E+03  0.20124100916E+03  0.12509000000E+03 0.  0.
<mgrwt>
<rscale>  2 0.47088677E+03</rscale>
<asrwt>0</asrwt>
<pdfrwt beam="1">  1       21 0.88825793E-01 0.47088677E+03</pdfrwt>
<pdfrwt beam="2">  1       21 0.13496342E-01 0.47088677E+03</pdfrwt>
<totfact> 0.46973679E+04</totfact>
</mgrwt>
</event>
<event>
 7    0  0.4770865E-002  0.4566992E+03  0.7546771E-02  0.1025743E+00
         21   -1    0    0  502  501  0.00000000000E+00  0.00000000000E+00  0.44002369301E+03  0.44002369301E+03  0.00000000000E+00 0. -1.
         21   -1    0    0  501  502 -0.00000000000E+00 -0.00000000000E+00 -0.11850167736E+03  0.11850167736E+03  0.00000000000E+00 0. -1.
      99926    2    1    2    0    0  0.00000000000E+00  0.00000000000E+00  0.32152201564E+03  0.55852537037E+03  0.45669922576E+03 0.  0.
      99925    2    3    3    0    0  0.71620769433E+02 -0.87262276455E+02  0.22729313902E+03  0.36546882737E+03  0.26298489163E+03 0.  0.
         25    1    3    3    0    0 -0.71620769433E+02  0.87262276455E+02  0.94228876619E+02  0.19305654300E+03  0.12509000000E+03 0.  0.
         25    1    4    4    0    0  0.69847330315E+02 -0.70052778073E+02  0.11684907108E+03  0.19770496903E+03  0.12509000000E+03 0.  0.
         25    1    4    4    0    0  0.17734391177E+01 -0.17209498382E+02  0.11044406795E+03  0.16776385834E+03  0.12509000000E+03 0.  0.
<mgrwt>
<rscale>  2 0.45669923E+03</rscale>
<asrwt>0</asrwt>
<pdfrwt beam="1">  1       21 0.64709366E-01 0.45669923E+03</pdfrwt>
<pdfrwt beam="2">  1       21 0.17426717E-01 0.45669923E+03</pdfrwt>
<totfact> 0.60489477E+04</totfact>
</mgrwt>
</event>
<event>
 7    0  0.4770865E-002  0.4538613E+03  0.7546771E-02  0.1026577E+00
         21   -1    0    0  502  501  0.00000000000E+00  0.00000000000E+00  0.88762189558E+02  0.88762189558E+02  0.00000000000E+00 0. -1.
         21   -1    0    0  501  502 -0.00000000000E+00 -0.00000000000E+00 -0.58017405014E+03  0.58017405014E+03  0.00000000000E+00 0. -1.
      99926    2    1    2    0    0  0.00000000000E+00 -0.11102230246E-14 -0.49141186058E+03  0.66893623970E+03  0.45386129606E+03 0.  0.
      99925    2    3    3    0    0 -0.10119202302E+03  0.12673081973E+01 -0.23829362254E+03  0.36900661108E+03  0.26294599614E+03 0.  0.
         25    1    4    4    0    0 -0.40062892502E+02  0.36135178298E+02 -0.94187694978E+02  0.16561888917E+03  0.12509000000E+03 0.  0.
         25    1    4    4    0    0 -0.61129130519E+02 -0.34867870101E+02 -0.14410592756E+03  0.20338772190E+03  0.12509000000E+03 0.  0.
         25    1    3    3    0    0  0.10119202302E+03 -0.12673081973E+01 -0.25311823805E+03  0.29992962862E+03  0.12509000000E+03 0.  0.
<mgrwt>
<rscale>  2 0.45386130E+03</rscale>
<asrwt>0</asrwt>
<pdfrwt beam="1">  1       21 0.13053262E-01 0.45386130E+03</pdfrwt>
<pdfrwt beam="2">  1       21 0.85319718E-01 0.45386130E+03</pdfrwt>
<totfact> 0.55115282E+04</totfact>
</mgrwt>
</event>
<event>
 7    0  0.4770865E-002  0.4547898E+03  0.7546771E-02  0.1026303E+00
         21   -1    0    0  502  501  0.00000000000E+00  0.00000000000E+00  0.12070916565E+03  0.12070916565E+03  0.00000000000E+00 0.  1.
         21   -1    0    0  501  502 -0.00000000000E+00 -0.00000000000E+00 -0.42837204196E+03  0.42837204196E+03  0.00000000000E+00 0.  1.
      99926    2    1    2    0    0  0.00000000000E+00  0.00000000000E+00 -0.30766287631E+03  0.54908120760E+03  0.45478976141E+03 0.  0.
      99925    2    3    3    0    0  0.10149279821E+02  0.99189555151E+02 -0.12963175955E+03  0.30974010715E+03  0.26304555720E+03 0.  0.
         25    1    3    3    0    0 -0.10149279821E+02 -0.99189555151E+02 -0.17803111676E+03  0.23934110046E+03  0.12509000000E+03 0.  0.
         25    1    4    4    0    0  0.25908571056E+02  0.41690674151E+02 -0.26403628899E+02  0.13694533977E+03  0.12509000000E+03 0.  0.
         25    1    4    4    0    0 -0.15759291235E+02  0.57498881000E+02 -0.10322813065E+03  0.17279476738E+03  0.12509000000E+03 0.  0.
<mgrwt>
<rscale>  2 0.45478976E+03</rscale>
<asrwt>0</asrwt>
<pdfrwt beam="1">  1       21 0.17751348E-01 0.45478976E+03</pdfrwt>
<pdfrwt beam="2">  1       21 0.62995889E-01 0.45478976E+03</pdfrwt>
<totfact> 0.62030386E+04</totfact>
</mgrwt>
</event>
<event>
 7    0  0.4770865E-002  0.4515711E+03  0.7546771E-02  0.1027255E+00
         21   -1    0    0  502  501  0.00000000000E+00  0.00000000000E+00  0.15742881278E+03  0.15742881278E+03  0.00000000000E+00 0. -1.
         21   -1    0    0  501  502 -0.00000000000E+00 -0.00000000000E+00 -0.32382333490E+03  0.32382333490E+03  0.00000000000E+00 0. -1.
      99926    2    1    2    0    0  0.00000000000E+00  0.00000000000E+00 -0.16639452213E+03  0.48125214768E+03  0.45157113798E+03 0.  0.
      99925    2    3    3    0    0 -0.10049388067E+03 -0.44352636883E+02 -0.11074136997E+03  0.30572164351E+03  0.26293705679E+03 0.  0.
         25    1    3    3    0    0  0.10049388067E+03  0.44352636883E+02 -0.55653152154E+02  0.17553050417E+03  0.12509000000E+03 0.  0.
         25    1    4    4    0    0 -0.80073308955E+02 -0.23592493675E+02 -0.91009660728E+02  0.17577999605E+03  0.12509000000E+03 0.  0.
         25    1    4    4    0    0 -0.20420571713E+02 -0.20760143208E+02 -0.19731709247E+02  0.12994164746E+03  0.12509000000E+03 0.  0.
<mgrwt>
<rscale>  2 0.45157114E+03</rscale>
<asrwt>0</asrwt>
<pdfrwt beam="1">  1       21 0.23151296E-01 0.45157114E+03</pdfrwt>
<pdfrwt beam="2">  1       21 0.47621078E-01 0.45157114E+03</pdfrwt>
<totfact> 0.68453389E+04</totfact>
</mgrwt>
</event>
<event>
 7    0  0.4770865E-002  0.4233196E+03  0.7546771E-02  0.1035991E+00
         21   -1    0    0  502  501  0.00000000000E+00  0.00000000000E+00  0.25128853658E+03  0.25128853658E+03  0.00000000000E+00 0.  1.
         21   -1    0    0  501  502 -0.00000000000E+00 -0.00000000000E+00 -0.17828061234E+03  0.17828061234E+03  0.00000000000E+00 0.  1.
      99926    2    1    2    0    0  0.00000000000E+00  0.88817841970E-15  0.73007924240E+02  0.42956914891E+03  0.42331961530E+03 0.  0.
      99925    2    3    3    0    0  0.79088675071E+02 -0.76653150312E+01  0.44443817564E+02  0.27864800437E+03  0.26335466930E+03 0.  0.
         25    1    4    4    0    0  0.25432886804E+01 -0.22950454588E+02  0.12810757999E+02  0.12784684315E+03  0.12509000000E+03 0.  0.
         25    1    3    3    0    0 -0.79088675071E+02  0.76653150312E+01  0.28564106677E+02  0.15092114454E+03  0.12509000000E+03 0.  0.
         25    1    4    4    0    0  0.76545386391E+02  0.15285139557E+02  0.31633059565E+02  0.15080116122E+03  0.12509000000E+03 0.  0.
<mgrwt>
<rscale>  2 0.42331962E+03</rscale>
<asrwt>0</asrwt>
<pdfrwt beam="1">  1       21 0.36954197E-01 0.42331962E+03</pdfrwt>
<pdfrwt beam="2">  1       21 0.26217737E-01 0.42331962E+03</pdfrwt>
<totfact> 0.91467021E+04</totfact>
</mgrwt>
</event>
<event>
 7    0  0.4770865E-002  0.4602219E+03  0.7546771E-02  0.1024717E+00
         21   -1    0    0  502  501  0.00000000000E+00  0.00000000000E+00  0.55975391144E+02  0.55975391144E+02  0.00000000000E+00 0.  1.
         21   -1    0    0  501  502 -0.00000000000E+00 -0.00000000000E+00 -0.94597014591E+03  0.94597014591E+03  0.00000000000E+00 0.  1.
      99926    2    1    2    0    0 -0.22204460493E-14 -0.35527136788E-14 -0.88999475477E+03  0.10019455371E+04  0.46022189834E+03 0.  0.
      99925    2    3    3    0    0 -0.36870914300E+01 -0.21274036879E+02 -0.81004744496E+03  0.85192800564E+03  0.26294159885E+03 0.  0.
         25    1    4    4    0    0  0.31400593757E+02 -0.27424315519E+02 -0.35660811842E+03  0.38020382506E+03  0.12509000000E+03 0.  0.
         25    1    3    3    0    0  0.36870914300E+01  0.21274036879E+02 -0.79947309803E+02  0.15001753142E+03  0.12509000000E+03 0.  0.
         25    1    4    4    0    0 -0.35087685187E+02  0.61502786399E+01 -0.45343932654E+03  0.47172418057E+03  0.12509000000E+03 0.  0.
<mgrwt>
<rscale>  2 0.46022190E+03</rscale>
<asrwt>0</asrwt>
<pdfrwt beam="1">  1       21 0.82316755E-02 0.46022190E+03</pdfrwt>
<pdfrwt beam="2">  1       21 0.13911325E+00 0.46022190E+03</pdfrwt>
<totfact> 0.37536888E+04</totfact>
</mgrwt>
</event>
<event>
 7    0  0.4770865E-002  0.4588636E+03  0.7546771E-02  0.1025111E+00
         21   -1    0    0  502  501  0.00000000000E+00  0.00000000000E+00  0.35494904614E+03  0.35494904614E+03  0.00000000000E+00 0.  1.
         21   -1    0    0  501  502 -0.00000000000E+00 -0.00000000000E+00 -0.14830004131E+03  0.14830004131E+03  0.00000000000E+00 0.  1.
      99926    2    1    2    0    0 -0.17763568394E-14  0.14210854715E-13  0.20664900483E+03  0.50324908745E+03  0.45886363206E+03 0.  0.
      99925    2    3    3    0    0 -0.83590765757E+01  0.11595158471E+03  0.14147514895E+03  0.32046565344E+03  0.26299880818E+03 0.  0.
         25    1    3    3    0    0  0.83590765757E+01 -0.11595158471E+03  0.65173855883E+02  0.18278343401E+03  0.12509000000E+03 0.  0.
         25    1    4    4    0    0 -0.27746631136E+02  0.60128059855E+02  0.34758247475E+02  0.14574259154E+03  0.12509000000E+03 0.  0.
         25    1    4    4    0    0  0.19387554560E+02  0.55823524859E+02  0.10671690147E+03  0.17472306190E+03  0.12509000000E+03 0.  0.
<mgrwt>
<rscale>  2 0.45886363E+03</rscale>
<asrwt>0</asrwt>
<pdfrwt beam="1">  1       21 0.52198389E-01 0.45886363E+03</pdfrwt>
<pdfrwt beam="2">  1       21 0.21808830E-01 0.45886363E+03</pdfrwt>
<totfact> 0.63085897E+04</totfact>
</mgrwt>
</event>
<event>
 7    0  0.4770865E-002  0.4517935E+03  0.7546771E-02  0.1027189E+00
         21   -1    0    0  502  501  0.00000000000E+00  0.00000000000E+00  0.15396306970E+03  0.15396306970E+03  0.00000000000E+00 0. -1.
         21   -1    0    0  501  502 -0.00000000000E+00 -0.00000000000E+00 -0.33143891380E+03  0.33143891380E+03  0.00000000000E+00 0. -1.
      99926    2    1    2    0    0 -0.35527136788E-14  0.00000000000E+00 -0.17747584410E+03  0.48540198350E+03  0.45179354837E+03 0.  0.
      99925    2    3    3    0    0  0.26786874895E+02  0.10543670062E+03 -0.94721903302E+02  0.30011799250E+03  0.26318080468E+03 0.  0.
         25    1    4    4    0    0 -0.19655342316E+02  0.70777178847E+02 -0.65641106683E+02  0.15922312807E+03  0.12509000000E+03 0.  0.
         25    1    3    3    0    0 -0.26786874895E+02 -0.10543670062E+03 -0.82753940800E+02  0.18528399101E+03  0.12509000000E+03 0.  0.
         25    1    4    4    0    0  0.46442217211E+02  0.34659521776E+02 -0.29080796619E+02  0.14089486442E+03  0.12509000000E+03 0.  0.
<mgrwt>
<rscale>  2 0.45179355E+03</rscale>
<asrwt>0</asrwt>
<pdfrwt beam="1">  1       21 0.22641628E-01 0.45179355E+03</pdfrwt>
<pdfrwt beam="2">  1       21 0.48741016E-01 0.45179355E+03</pdfrwt>
<totfact> 0.68024038E+04</totfact>
</mgrwt>
</event>
<event>
 7    0  0.4770865E-002  0.4528407E+03  0.7546771E-02  0.1026878E+00
         21   -1    0    0  502  501  0.00000000000E+00  0.00000000000E+00  0.10805081402E+03  0.10805081402E+03  0.00000000000E+00 0.  1.
         21   -1    0    0  501  502 -0.00000000000E+00 -0.00000000000E+00 -0.47446363985E+03  0.47446363985E+03  0.00000000000E+00 0.  1.
      99926    2    1    2    0    0 -0.35527136788E-14  0.00000000000E+00 -0.36641282583E+03  0.58251445386E+03  0.45284073362E+03 0.  0.
      99925    2    3    3    0    0 -0.17526094452E+02 -0.10276813709E+03 -0.28046482017E+03  0.39838672167E+03  0.26302663488E+03 0.  0.
         25    1    3    3    0    0  0.17526094452E+02  0.10276813709E+03 -0.85948005657E+02  0.18412773219E+03  0.12509000000E+03 0.  0.
         25    1    4    4    0    0  0.17506259120E+02 -0.21984110700E+02 -0.10598308605E+03  0.16634209588E+03  0.12509000000E+03 0.  0.
         25    1    4    4    0    0 -0.35032353572E+02 -0.80784026385E+02 -0.17448173412E+03  0.23204462579E+03  0.12509000000E+03 0.  0.
<mgrwt>
<rscale>  2 0.45284073E+03</rscale>
<asrwt>0</asrwt>
<pdfrwt beam="1">  1       21 0.15889826E-01 0.45284073E+03</pdfrwt>
<pdfrwt beam="2">  1       21 0.69774063E-01 0.45284073E+03</pdfrwt>
<totfact> 0.60798827E+04</totfact>
</mgrwt>
</event>
<event>
 7    0  0.4770865E-002  0.4594971E+03  0.7546771E-02  0.1024927E+00
         21   -1    0    0  502  501  0.00000000000E+00  0.00000000000E+00  0.19894347690E+03  0.19894347690E+03  0.00000000000E+00 0. -1.
         21   -1    0    0  501  502 -0.00000000000E+00 -0.00000000000E+00 -0.26532361322E+03  0.26532361322E+03  0.00000000000E+00 0. -1.
      99926    2    1    2    0    0  0.00000000000E+00  0.00000000000E+00 -0.66380136321E+02  0.46426709011E+03  0.45949712563E+03 0.  0.
      99925    2    3    3    0    0  0.61439819263E+02 -0.63824633060E+02 -0.11932851933E+03  0.30209596278E+03  0.26300996184E+03 0.  0.
         25    1    4    4    0    0  0.65708698629E+02 -0.47551105247E+02 -0.45502482284E+02  0.15587406673E+03  0.12509000000E+03 0.  0.
         25    1    3    3    0    0 -0.61439819263E+02  0.63824633060E+02  0.52948383008E+02  0.16217112733E+03  0.12509000000E+03 0.  0.
         25    1    4    4    0    0 -0.42688793665E+01 -0.16273527813E+02 -0.73826037046E+02  0.14622189605E+03  0.12509000000E+03 0.  0.
<mgrwt>
<rscale>  2 0.45949713E+03</rscale>
<asrwt>0</asrwt>
<pdfrwt beam="1">  1       21 0.29256394E-01 0.45949713E+03</pdfrwt>
<pdfrwt beam="2">  1       21 0.39018179E-01 0.45949713E+03</pdfrwt>
<totfact> 0.65490309E+04</totfact>
</mgrwt>
</event>
<event>
 7    0  0.4770865E-002  0.4574626E+03  0.7546771E-02  0.1025520E+00
         21   -1    0    0  502  501  0.00000000000E+00  0.00000000000E+00  0.29379363065E+02  0.29379363065E+02  0.00000000000E+00 0.  1.
         21   -1    0    0  501  502 -0.00000000000E+00 -0.00000000000E+00 -0.17807736728E+04  0.17807736728E+04  0.00000000000E+00 0.  1.
      99926    2    1    2    0    0 -0.14210854715E-13  0.00000000000E+00 -0.17513943097E+04  0.18101530358E+04  0.45746255046E+03 0.  0.
      99925    2    3    3    0    0  0.70586047395E+02 -0.31000818245E+02 -0.14396754242E+04  0.14655378700E+04  0.26304463623E+03 0.  0.
         25    1    3    3    0    0 -0.70586047395E+02  0.31000818245E+02 -0.31171888552E+03  0.34461516581E+03  0.12509000000E+03 0.  0.
         25    1    4    4    0    0  0.75026791820E+02 -0.74944279930E+01 -0.82085834469E+03  0.83375123154E+03  0.12509000000E+03 0.  0.
         25    1    4    4    0    0 -0.44407444254E+01 -0.23506390252E+02 -0.61881707948E+03  0.63178663847E+03  0.12509000000E+03 0.  0.
<mgrwt>
<rscale>  2 0.45746255E+03</rscale>
<asrwt>0</asrwt>
<pdfrwt beam="1">  1       21 0.43204940E-02 0.45746255E+03</pdfrwt>
<pdfrwt beam="2">  1       21 0.26187851E+00 0.45746255E+03</pdfrwt>
<totfact> 0.16742800E+04</totfact>
</mgrwt>
</event>
<event>
 7    0  0.4770865E-002  0.4512758E+03  0.7546771E-02  0.1027342E+00
         21   -1    0    0  502  501  0.00000000000E+00  0.00000000000E+00  0.22893456179E+03  0.22893456179E+03  0.00000000000E+00 0.  1.
         21   -1    0    0  501  502 -0.00000000000E+00 -0.00000000000E+00 -0.22238868091E+03  0.22238868091E+03  0.00000000000E+00 0.  1.
      99926    2    1    2    0    0  0.00000000000E+00  0.00000000000E+00  0.65458808816E+01  0.45132324270E+03  0.45127577028E+03 0.  0.
      99925    2    3    3    0    0 -0.33065507333E+02  0.16645880147E+02 -0.99030410111E+02  0.28350109154E+03  0.26305024934E+03 0.  0.
         25    1    3    3    0    0  0.33065507333E+02 -0.16645880147E+02  0.10557629099E+03  0.16782215116E+03  0.12509000000E+03 0.  0.
         25    1    4    4    0    0 -0.14831574908E+02  0.40853731495E+01 -0.62401674534E+01  0.12618682054E+03  0.12509000000E+03 0.  0.
         25    1    4    4    0    0 -0.18233932425E+02  0.12560506997E+02 -0.92790242658E+02  0.15731427100E+03  0.12509000000E+03 0.  0.
<mgrwt>
<rscale>  2 0.45127577E+03</rscale>
<asrwt>0</asrwt>
<pdfrwt beam="1">  1       21 0.33666848E-01 0.45127577E+03</pdfrwt>
<pdfrwt beam="2">  1       21 0.32704218E-01 0.45127577E+03</pdfrwt>
<totfact> 0.70899496E+04</totfact>
</mgrwt>
</event>
<event>
 7    0  0.4770865E-002  0.4588608E+03  0.7546771E-02  0.1025112E+00
         21   -1    0    0  502  501  0.00000000000E+00  0.00000000000E+00  0.80651473900E+02  0.80651473900E+02  0.00000000000E+00 0. -1.
         21   -1    0    0  501  502 -0.00000000000E+00 -0.00000000000E+00 -0.65266386766E+03  0.65266386766E+03  0.00000000000E+00 0. -1.
      99926    2    1    2    0    0  0.00000000000E+00  0.17763568394E-14 -0.57201239376E+03  0.73331534156E+03  0.45886077578E+03 0.  0.
      99925    2    3    3    0    0 -0.11634466115E+03 -0.87854264343E+01 -0.35202599587E+03  0.45464925598E+03  0.26300262413E+03 0.  0.
         25    1    3    3    0    0  0.11634466115E+03  0.87854264343E+01 -0.21998639789E+03  0.27866608558E+03  0.12509000000E+03 0.  0.
         25    1    4    4    0    0 -0.88951591207E+02  0.10818382033E+02 -0.15164810944E+03  0.21604184818E+03  0.12509000000E+03 0.  0.
         25    1    4    4    0    0 -0.27393069943E+02 -0.19603808467E+02 -0.20037788642E+03  0.23860740780E+03  0.12509000000E+03 0.  0.
<mgrwt>
<rscale>  2 0.45886078E+03</rscale>
<asrwt>0</asrwt>
<pdfrwt beam="1">  1       21 0.11860511E-01 0.45886078E+03</pdfrwt>
<pdfrwt beam="2">  1       21 0.95979977E-01 0.45886078E+03</pdfrwt>
<totfact> 0.49608037E+04</totfact>
</mgrwt>
</event>
<event>
 7    0  0.4770865E-002  0.4519572E+03  0.7546771E-02  0.1027140E+00
         21   -1    0    0  502  501  0.00000000000E+00  0.00000000000E+00  0.27608605419E+02  0.27608605419E+02  0.00000000000E+00 0.  1.
         21   -1    0    0  501  502 -0.00000000000E+00 -0.00000000000E+00 -0.18496524698E+04  0.18496524698E+04  0.00000000000E+00 0.  1.
      99926    2    1    2    0    0  0.00000000000E+00  0.00000000000E+00 -0.18220438643E+04  0.18772610752E+04  0.45195718912E+03 0.  0.
      99925    2    3    3    0    0  0.75758309381E+02  0.37639061943E+02 -0.14435769965E+04  0.14697801571E+04  0.26302689033E+03 0.  0.
         25    1    3    3    0    0 -0.75758309381E+02 -0.37639061943E+02 -0.37846686787E+03  0.40748091808E+03  0.12509000000E+03 0.  0.
         25    1    4    4    0    0  0.63713218666E+00  0.60597043330E+01 -0.74198651308E+03  0.75248164073E+03  0.12509000000E+03 0.  0.
         25    1    4    4    0    0  0.75121177194E+02  0.31579357610E+02 -0.70159048340E+03  0.71729851637E+03  0.12509000000E+03 0.  0.
<mgrwt>
<rscale>  2 0.45195719E+03</rscale>
<asrwt>0</asrwt>
<pdfrwt beam="1">  1       21 0.40600898E-02 0.45195719E+03</pdfrwt>
<pdfrwt beam="2">  1       21 0.27200766E+00 0.45195719E+03</pdfrwt>
<totfact> 0.16198134E+04</totfact>
</mgrwt>
</event>
<event>
 7    0  0.4770865E-002  0.4452342E+03  0.7546771E-02  0.1029153E+00
         21   -1    0    0  502  501  0.00000000000E+00  0.00000000000E+00  0.34919126035E+03  0.34919126035E+03  0.00000000000E+00 0.  1.
         21   -1    0    0  501  502 -0.00000000000E+00 -0.00000000000E+00 -0.14192330309E+03  0.14192330309E+03  0.00000000000E+00 0.  1.
      99926    2    1    2    0    0 -0.71054273576E-14  0.00000000000E+00  0.20726795725E+03  0.49111456344E+03  0.44523421737E+03 0.  0.
      99925    2    3    3    0    0  0.50802799253E+02  0.88934254443E+02  0.15288085128E+03  0.32053997149E+03  0.26245588697E+03 0.  0.
         25    1    4    4    0    0  0.58281139240E+02  0.57087610983E+02  0.10544460725E+03  0.18281619134E+03  0.12509000000E+03 0.  0.
         25    1    4    4    0    0 -0.74783399873E+01  0.31846643460E+02  0.47436244031E+02  0.13772378014E+03  0.12509000000E+03 0.  0.
         25    1    3    3    0    0 -0.50802799253E+02 -0.88934254443E+02  0.54387105968E+02  0.17057459196E+03  0.12509000000E+03 0.  0.
<mgrwt>
<rscale>  2 0.44523422E+03</rscale>
<asrwt>0</asrwt>
<pdfrwt beam="1">  1       21 0.51351656E-01 0.44523422E+03</pdfrwt>
<pdfrwt beam="2">  1       21 0.20871074E-01 0.44523422E+03</pdfrwt>
<totfact> 0.71266193E+04</totfact>
</mgrwt>
</event>
<event>
 7    0  0.4770865E-002  0.4551007E+03  0.7546771E-02  0.1026212E+00
         21   -1    0    0  502  501  0.00000000000E+00  0.00000000000E+00  0.87909895820E+03  0.87909895820E+03  0.00000000000E+00 0. -1.
         21   -1    0    0  501  502 -0.00000000000E+00 -0.00000000000E+00 -0.58900266164E+02  0.58900266164E+02  0.00000000000E+00 0. -1.
      99926    2    1    2    0    0  0.71054273576E-14  0.00000000000E+00  0.82019869204E+03  0.93799922437E+03  0.45510070368E+03 0.  0.
      99925    2    3    3    0    0  0.44630340019E+02  0.38689792114E+02  0.71511738395E+03  0.76428003523E+03  0.26313937783E+03 0.  0.
         25    1    3    3    0    0 -0.44630340019E+02 -0.38689792114E+02  0.10508130809E+03  0.17371918913E+03  0.12509000000E+03 0.  0.
         25    1    4    4    0    0 -0.85939616623E+01 -0.42018697523E+01  0.37758325710E+03  0.39787954965E+03  0.12509000000E+03 0.  0.
         25    1    4    4    0    0  0.53224301681E+02  0.42891661867E+02  0.33753412685E+03  0.36640048559E+03  0.12509000000E+03 0.  0.
<mgrwt>
<rscale>  2 0.45510070E+03</rscale>
<asrwt>0</asrwt>
<pdfrwt beam="1">  1       21 0.12927925E+00 0.45510070E+03</pdfrwt>
<pdfrwt beam="2">  1       21 0.86618044E-02 0.45510070E+03</pdfrwt>
<totfact> 0.41597839E+04</totfact>
</mgrwt>
</event>
<event>
 7    0  0.4770865E-002  0.4558661E+03  0.7546771E-02  0.1025987E+00
         21   -1    0    0  502  501  0.00000000000E+00  0.00000000000E+00  0.41999944569E+02  0.41999944569E+02  0.00000000000E+00 0. -1.
         21   -1    0    0  501  502 -0.00000000000E+00 -0.00000000000E+00 -0.12369892299E+04  0.12369892299E+04  0.00000000000E+00 0. -1.
      99926    2    1    2    0    0  0.00000000000E+00 -0.17763568394E-14 -0.11949892853E+04  0.12789891745E+04  0.45586611670E+03 0.  0.
      99925    2    3    3    0    0  0.10218636012E+03  0.97160246737E+01 -0.88990533701E+03  0.93364850650E+03  0.26311893037E+03 0.  0.
         25    1    4    4    0    0  0.78559924039E+02  0.33330265747E+02 -0.43093833591E+03  0.45676900698E+03  0.12509000000E+03 0.  0.
         25    1    3    3    0    0 -0.10218636012E+03 -0.97160246737E+01 -0.30508394832E+03  0.34534066797E+03  0.12509000000E+03 0.  0.
         25    1    4    4    0    0  0.23626436083E+02 -0.23614241073E+02 -0.45896700110E+03  0.47687949952E+03  0.12509000000E+03 0.  0.
<mgrwt>
<rscale>  2 0.45586612E+03</rscale>
<asrwt>0</asrwt>
<pdfrwt beam="1">  1       21 0.61764623E-02 0.45586612E+03</pdfrwt>
<pdfrwt beam="2">  1       21 0.18191019E+00 0.45586612E+03</pdfrwt>
<totfact> 0.29531572E+04</totfact>
</mgrwt>
</event>
<event>
 7    0  0.4770865E-002  0.4347292E+03  0.7546771E-02  0.1032376E+00
         21   -1    0    0  502  501  0.00000000000E+00  0.00000000000E+00  0.48713406258E+03  0.48713406258E+03  0.00000000000E+00 0. -1.
         21   -1    0    0  501  502 -0.00000000000E+00 -0.00000000000E+00 -0.96990488798E+02  0.96990488798E+02  0.00000000000E+00 0. -1.
      99926    2    1    2    0    0  0.00000000000E+00  0.00000000000E+00  0.39014357379E+03  0.58412455138E+03  0.43472920693E+03 0.  0.
      99925    2    3    3    0    0 -0.41934338560E+02 -0.80437324766E+02  0.22137062817E+03  0.35530045466E+03  0.26268765883E+03 0.  0.
         25    1    4    4    0    0 -0.52743147655E+02 -0.37955114649E+02  0.82510554400E+02  0.16333379944E+03  0.12509000000E+03 0.  0.
         25    1    3    3    0    0  0.41934338560E+02  0.80437324766E+02  0.16877294562E+03  0.22882409672E+03  0.12509000000E+03 0.  0.
         25    1    4    4    0    0  0.10808809095E+02 -0.42482210117E+02  0.13886007377E+03  0.19196665522E+03  0.12509000000E+03 0.  0.
<mgrwt>
<rscale>  2 0.43472921E+03</rscale>
<asrwt>0</asrwt>
<pdfrwt beam="1">  1       21 0.71637361E-01 0.43472921E+03</pdfrwt>
<pdfrwt beam="2">  1       21 0.14263307E-01 0.43472921E+03</pdfrwt>
<totfact> 0.70265831E+04</totfact>
</mgrwt>
</event>
<event>
 7    0  0.4770865E-002  0.4595641E+03  0.7546771E-02  0.1024908E+00
         21   -1    0    0  502  501  0.00000000000E+00  0.00000000000E+00  0.29233262595E+03  0.29233262595E+03  0.00000000000E+00 0.  1.
         21   -1    0    0  501  502 -0.00000000000E+00 -0.00000000000E+00 -0.18061542833E+03  0.18061542833E+03  0.00000000000E+00 0.  1.
      99926    2    1    2    0    0  0.00000000000E+00  0.00000000000E+00  0.11171719762E+03  0.47294805428E+03  0.45956406496E+03 0.  0.
      99925    2    3    3    0    0 -0.32060021978E+02 -0.83397279470E+02  0.14867238375E+03  0.31484636195E+03  0.26275806879E+03 0.  0.
         25    1    4    4    0    0  0.15170480708E+02 -0.33660190002E+02  0.43067672254E+02  0.13735168135E+03  0.12509000000E+03 0.  0.
         25    1    4    4    0    0 -0.47230502686E+02 -0.49737089468E+02  0.10560471150E+03  0.17749468061E+03  0.12509000000E+03 0.  0.
         25    1    3    3    0    0  0.32060021978E+02  0.83397279470E+02 -0.36955186137E+02  0.15810169232E+03  0.12509000000E+03 0.  0.
<mgrwt>
<rscale>  2 0.45956406E+03</rscale>
<asrwt>0</asrwt>
<pdfrwt beam="1">  1       21 0.42990092E-01 0.45956406E+03</pdfrwt>
<pdfrwt beam="2">  1       21 0.26561092E-01 0.45956406E+03</pdfrwt>
<totfact> 0.64837599E+04</totfact>
</mgrwt>
</event>
<event>
 7    0  0.4770865E-002  0.4564285E+03  0.7546771E-02  0.1025822E+00
         21   -1    0    0  502  501  0.00000000000E+00  0.00000000000E+00  0.20737459013E+03  0.20737459013E+03  0.00000000000E+00 0.  1.
         21   -1    0    0  501  502 -0.00000000000E+00 -0.00000000000E+00 -0.25114814477E+03  0.25114814477E+03  0.00000000000E+00 0.  1.
      99926    2    1    2    0    0  0.00000000000E+00  0.71054273576E-14 -0.43773554636E+02  0.45852273489E+03  0.45642849859E+03 0.  0.
      99925    2    3    3    0    0 -0.79453830940E+02 -0.34075657458E+02  0.47933164618E+02  0.28095108136E+03  0.26298642582E+03 0.  0.
         25    1    4    4    0    0 -0.45314561354E+02 -0.43621886201E+02  0.55740519859E+02  0.15070100225E+03  0.12509000000E+03 0.  0.
         25    1    3    3    0    0  0.79453830940E+02  0.34075657458E+02 -0.91706719255E+02  0.17757165353E+03  0.12509000000E+03 0.  0.
         25    1    4    4    0    0 -0.34139269587E+02  0.95462287428E+01 -0.78073552407E+01  0.13025007911E+03  0.12509000000E+03 0.  0.
<mgrwt>
<rscale>  2 0.45642850E+03</rscale>
<asrwt>0</asrwt>
<pdfrwt beam="1">  1       21 0.30496263E-01 0.45642850E+03</pdfrwt>
<pdfrwt beam="2">  1       21 0.36933550E-01 0.45642850E+03</pdfrwt>
<totfact> 0.67515699E+04</totfact>
</mgrwt>
</event>
<event>
 7    0  0.4770865E-002  0.4409569E+03  0.7546771E-02  0.1030454E+00
         21   -1    0    0  502  501  0.00000000000E+00  0.00000000000E+00  0.62340410331E+02  0.62340410331E+02  0.00000000000E+00 0.  1.
         21   -1    0    0  501  502 -0.00000000000E+00 -0.00000000000E+00 -0.77976319203E+03  0.77976319203E+03  0.00000000000E+00 0.  1.
      99926    2    1    2    0    0 -0.14210854715E-13  0.00000000000E+00 -0.71742278170E+03  0.84210360236E+03  0.44095694734E+03 0.  0.
      99925    2    3    3    0    0 -0.87708890195E+02 -0.45679925436E+02 -0.47763176270E+03  0.55413355895E+03  0.26296843045E+03 0.  0.
         25    1    3    3    0    0  0.87708890195E+02  0.45679925436E+02 -0.23979101900E+03  0.28797004341E+03  0.12509000000E+03 0.  0.
         25    1    4    4    0    0 -0.42860848385E+02 -0.47073846272E+02 -0.30936926756E+03  0.33972025424E+03  0.12509000000E+03 0.  0.
         25    1    4    4    0    0 -0.44848041810E+02  0.13939208357E+01 -0.16826249514E+03  0.21441330472E+03  0.12509000000E+03 0.  0.
<mgrwt>
<rscale>  2 0.44095695E+03</rscale>
<asrwt>0</asrwt>
<pdfrwt beam="1">  1       21 0.91677076E-02 0.44095695E+03</pdfrwt>
<pdfrwt beam="2">  1       21 0.11467106E+00 0.44095695E+03</pdfrwt>
<totfact> 0.51207277E+04</totfact>
</mgrwt>
</event>
<event>
 7    0  0.4770865E-002  0.4604444E+03  0.7546771E-02  0.1024652E+00
         21   -1    0    0  502  501  0.00000000000E+00  0.00000000000E+00  0.27563048714E+03  0.27563048714E+03  0.00000000000E+00 0. -1.
         21   -1    0    0  501  502 -0.00000000000E+00 -0.00000000000E+00 -0.19229459245E+03  0.19229459245E+03  0.00000000000E+00 0. -1.
      99926    2    1    2    0    0  0.00000000000E+00 -0.11102230246E-15  0.83335894693E+02  0.46792507959E+03  0.46044436012E+03 0.  0.
      99925    2    3    3    0    0 -0.11232782063E+03 -0.43465777526E+00  0.89598528346E+02  0.29968579495E+03  0.26299420373E+03 0.  0.
         25    1    4    4    0    0 -0.14037598563E+02  0.95562154355E+01  0.32341781121E+02  0.13031452081E+03  0.12509000000E+03 0.  0.
         25    1    3    3    0    0  0.11232782063E+03  0.43465777526E+00 -0.62626336525E+01  0.16823928464E+03  0.12509000000E+03 0.  0.
         25    1    4    4    0    0 -0.98290222070E+02 -0.99908732107E+01  0.57256747225E+02  0.16937127414E+03  0.12509000000E+03 0.  0.
<mgrwt>
<rscale>  2 0.46044436E+03</rscale>
<asrwt>0</asrwt>
<pdfrwt beam="1">  1       21 0.40533895E-01 0.46044436E+03</pdfrwt>
<pdfrwt beam="2">  1       21 0.28278616E-01 0.46044436E+03</pdfrwt>
<totfact> 0.64745734E+04</totfact>
</mgrwt>
</event>
<event>
 7    0  0.4770865E-002  0.4412592E+03  0.7546771E-02  0.1030361E+00
         21   -1    0    0  502  501  0.00000000000E+00  0.00000000000E+00  0.17737940453E+03  0.17737940453E+03  0.00000000000E+00 0.  1.
         21   -1    0    0  501  502 -0.00000000000E+00 -0.00000000000E+00 -0.27442538898E+03  0.27442538898E+03  0.00000000000E+00 0.  1.
      99926    2    1    2    0    0  0.00000000000E+00 -0.14210854715E-13 -0.97045984455E+02  0.45180479351E+03  0.44125916233E+03 0.  0.
      99925    2    3    3    0    0 -0.21136447223E+02  0.86715785945E+02 -0.10753531348E+03  0.29777911040E+03  0.26294900268E+03 0.  0.
         25    1    4    4    0    0 -0.35188481192E+02  0.10129485462E+02 -0.50706769883E+02  0.13985535491E+03  0.12509000000E+03 0.  0.
         25    1    3    3    0    0  0.21136447223E+02 -0.86715785945E+02  0.10489329029E+02  0.15402568311E+03  0.12509000000E+03 0.  0.
         25    1    4    4    0    0  0.14052033969E+02  0.76586300483E+02 -0.56828543601E+02  0.15792375549E+03  0.12509000000E+03 0.  0.
<mgrwt>
<rscale>  2 0.44125916E+03</rscale>
<asrwt>0</asrwt>
<pdfrwt beam="1">  1       21 0.26085207E-01 0.44125916E+03</pdfrwt>
<pdfrwt beam="2">  1       21 0.40356674E-01 0.44125916E+03</pdfrwt>
<totfact> 0.76854360E+04</totfact>
</mgrwt>
</event>
<event>
 7    0  0.4770865E-002  0.4430503E+03  0.7546771E-02  0.1029815E+00
         21   -1    0    0  502  501  0.00000000000E+00  0.00000000000E+00  0.14535515890E+03  0.14535515890E+03  0.00000000000E+00 0. -1.
         21   -1    0    0  501  502 -0.00000000000E+00 -0.00000000000E+00 -0.33761032814E+03  0.33761032814E+03  0.00000000000E+00 0. -1.
      99926    2    1    2    0    0  0.00000000000E+00  0.00000000000E+00 -0.19225516924E+03  0.48296548703E+03  0.44305034879E+03 0.  0.
      99925    2    3    3    0    0  0.57386132702E+02 -0.57362224599E+02 -0.18829328597E+03  0.33381188280E+03  0.26342440760E+03 0.  0.
         25    1    4    4    0    0  0.60523297595E+02 -0.54865651608E+02 -0.11711093431E+03  0.18983094667E+03  0.12509000000E+03 0.  0.
         25    1    4    4    0    0 -0.31371648933E+01 -0.24965729914E+01 -0.71182351658E+02  0.14398093613E+03  0.12509000000E+03 0.  0.
         25    1    3    3    0    0 -0.57386132702E+02  0.57362224599E+02 -0.39618832707E+01  0.14915360424E+03  0.12509000000E+03 0.  0.
<mgrwt>
<rscale>  2 0.44305035E+03</rscale>
<asrwt>0</asrwt>
<pdfrwt beam="1">  1       21 0.21375759E-01 0.44305035E+03</pdfrwt>
<pdfrwt beam="2">  1       21 0.49648577E-01 0.44305035E+03</pdfrwt>
<totfact> 0.73184914E+04</totfact>
</mgrwt>
</event>
<event>
 7    0  0.4770865E-002  0.4485697E+03  0.7546771E-02  0.1028149E+00
         21   -1    0    0  502  501  0.00000000000E+00  0.00000000000E+00  0.30095376996E+04  0.30095376996E+04  0.00000000000E+00 0. -1.
         21   -1    0    0  501  502 -0.00000000000E+00 -0.00000000000E+00 -0.16714754319E+02  0.16714754319E+02  0.00000000000E+00 0. -1.
      99926    2    1    2    0    0  0.00000000000E+00  0.00000000000E+00  0.29928229453E+04  0.30262524539E+04  0.44856965239E+03 0.  0.
      99925    2    3    3    0    0  0.18087027326E+02  0.10313389420E+03  0.20407057015E+04  0.20602615147E+04  0.26312356040E+03 0.  0.
         25    1    4    4    0    0 -0.23805593510E+01  0.29383299361E+02  0.71384437046E+03  0.72532085223E+03  0.12509000000E+03 0.  0.
         25    1    3    3    0    0 -0.18087027326E+02 -0.10313389420E+03  0.95211724382E+03  0.96599093928E+03  0.12509000000E+03 0.  0.
         25    1    4    4    0    0  0.20467586677E+02  0.73750594839E+02  0.13268613310E+04  0.13349406624E+04  0.12509000000E+03 0.  0.
<mgrwt>
<rscale>  2 0.44856965E+03</rscale>
<asrwt>0</asrwt>
<pdfrwt beam="1">  1       21 0.44257870E+00 0.44856965E+03</pdfrwt>
<pdfrwt beam="2">  1       21 0.24580542E-02 0.44856965E+03</pdfrwt>
<totfact> 0.32640855E+03</totfact>
</mgrwt>
</event>
<event>
 7    0  0.4770865E-002  0.4563289E+03  0.7546771E-02  0.1025851E+00
         21   -1    0    0  502  501  0.00000000000E+00  0.00000000000E+00  0.93282416566E+03  0.93282416566E+03  0.00000000000E+00 0.  1.
         21   -1    0    0  501  502 -0.00000000000E+00 -0.00000000000E+00 -0.55807965139E+02  0.55807965139E+02  0.00000000000E+00 0.  1.
      99926    2    1    2    0    0  0.71054273576E-14  0.17763568394E-14  0.87701620052E+03  0.98863213080E+03  0.45632890997E+03 0.  0.
      99925    2    3    3    0    0  0.40888537727E+02  0.38398605764E+01  0.78259437289E+03  0.82661482715E+03  0.26296673354E+03 0.  0.
         25    1    3    3    0    0 -0.40888537727E+02 -0.38398605764E+01  0.94421827631E+02  0.16201730364E+03  0.12509000000E+03 0.  0.
         25    1    4    4    0    0  0.29037218293E+01 -0.15713973576E+02  0.48232241494E+03  0.49853563625E+03  0.12509000000E+03 0.  0.
         25    1    4    4    0    0  0.37984815897E+02  0.19553834152E+02  0.30027195795E+03  0.32807919090E+03  0.12509000000E+03 0.  0.
<mgrwt>
<rscale>  2 0.45632891E+03</rscale>
<asrwt>0</asrwt>
<pdfrwt beam="1">  1       21 0.13718001E+00 0.45632891E+03</pdfrwt>
<pdfrwt beam="2">  1       21 0.82070543E-02 0.45632891E+03</pdfrwt>
<totfact> 0.39203286E+04</totfact>
</mgrwt>
</event>
<event>
 7    0  0.4770865E-002  0.5245410E+03  0.7546771E-02  0.1007565E+00
         21   -1    0    0  502  501  0.00000000000E+00  0.00000000000E+00  0.22085995284E+02  0.22085995284E+02  0.00000000000E+00 0.  1.
         21   -1    0    0  501  502 -0.00000000000E+00 -0.00000000000E+00 -0.31144542454E+04  0.31144542454E+04  0.00000000000E+00 0.  1.
      99926    2    1    2    0    0 -0.14210854715E-13  0.00000000000E+00 -0.30923682501E+04  0.31365402407E+04  0.52454102519E+03 0.  0.
      99925    2    3    3    0    0 -0.74511623056E+02  0.30508999799E+02 -0.94994013008E+03  0.98895356288E+03  0.26298311309E+03 0.  0.
         25    1    3    3    0    0  0.74511623056E+02 -0.30508999799E+02 -0.21424281201E+04  0.21475866778E+04  0.12509000000E+03 0.  0.
         25    1    4    4    0    0 -0.55666588042E+01  0.37093381896E+02 -0.40291431554E+03  0.42354971425E+03  0.12509000000E+03 0.  0.
         25    1    4    4    0    0 -0.68944964252E+02 -0.65843820973E+01 -0.54702581453E+03  0.56540384863E+03  0.12509000000E+03 0.  0.
<mgrwt>
<rscale>  2 0.52454103E+03</rscale>
<asrwt>0</asrwt>
<pdfrwt beam="1">  1       21 0.32479427E-02 0.52454103E+03</pdfrwt>
<pdfrwt beam="2">  1       21 0.45800766E+00 0.52454103E+03</pdfrwt>
<totfact> 0.15420207E+03</totfact>
</mgrwt>
</event>
<event>
 7    0  0.4770865E-002  0.4581572E+03  0.7546771E-02  0.1025317E+00
         21   -1    0    0  502  501  0.00000000000E+00  0.00000000000E+00  0.21520735741E+03  0.21520735741E+03  0.00000000000E+00 0.  1.
         21   -1    0    0  501  502 -0.00000000000E+00 -0.00000000000E+00 -0.24384393109E+03  0.24384393109E+03  0.00000000000E+00 0.  1.
      99926    2    1    2    0    0  0.00000000000E+00  0.00000000000E+00 -0.28636573672E+02  0.45905128850E+03  0.45815721333E+03 0.  0.
      99925    2    3    3    0    0 -0.17665729766E+02  0.56098410486E+02 -0.11825640272E+03  0.29431412959E+03  0.26301543762E+03 0.  0.
         25    1    3    3    0    0  0.17665729766E+02 -0.56098410486E+02  0.89619829047E+02  0.16473715891E+03  0.12509000000E+03 0.  0.
         25    1    4    4    0    0 -0.16519992282E+02  0.11567893805E+02 -0.18099360966E+02  0.12799148909E+03  0.12509000000E+03 0.  0.
         25    1    4    4    0    0 -0.11457374842E+01  0.44530516681E+02 -0.10015704175E+03  0.16632264050E+03  0.12509000000E+03 0.  0.
<mgrwt>
<rscale>  2 0.45815721E+03</rscale>
<asrwt>0</asrwt>
<pdfrwt beam="1">  1       21 0.31648141E-01 0.45815721E+03</pdfrwt>
<pdfrwt beam="2">  1       21 0.35859402E-01 0.45815721E+03</pdfrwt>
<totfact> 0.66557542E+04</totfact>
</mgrwt>
</event>
<event>
 7    0  0.4770865E-002  0.4528738E+03  0.7546771E-02  0.1026868E+00
         21   -1    0    0  502  501  0.00000000000E+00  0.00000000000E+00  0.24838946862E+03  0.24838946862E+03  0.00000000000E+00 0. -1.
         21   -1    0    0  501  502 -0.00000000000E+00 -0.00000000000E+00 -0.20642452210E+03  0.20642452210E+03  0.00000000000E+00 0. -1.
      99926    2    1    2    0    0  0.00000000000E+00  0.00000000000E+00  0.41964946516E+02  0.45481399072E+03  0.45287383389E+03 0.  0.
      99925    2    3    3    0    0 -0.23528746644E+02  0.83483090253E+02  0.96387777589E+02  0.29315886115E+03  0.26292296576E+03 0.  0.
         25    1    4    4    0    0 -0.43908448234E+02  0.19249632953E+02  0.35583188133E+02  0.13860797803E+03  0.12509000000E+03 0.  0.
         25    1    3    3    0    0  0.23528746644E+02 -0.83483090253E+02 -0.54422831073E+02  0.16165512958E+03  0.12509000000E+03 0.  0.
         25    1    4    4    0    0  0.20379701591E+02  0.64233457300E+02  0.60804589456E+02  0.15455088312E+03  0.12509000000E+03 0.  0.
<mgrwt>
<rscale>  2 0.45287383E+03</rscale>
<asrwt>0</asrwt>
<pdfrwt beam="1">  1       21 0.36527863E-01 0.45287383E+03</pdfrwt>
<pdfrwt beam="2">  1       21 0.30356547E-01 0.45287383E+03</pdfrwt>
<totfact> 0.69734920E+04</totfact>
</mgrwt>
</event>
<event>
 7    0  0.4770865E-002  0.4533769E+03  0.7546771E-02  0.1026720E+00
         21   -1    0    0  502  501  0.00000000000E+00  0.00000000000E+00  0.97613023961E+02  0.97613023961E+02  0.00000000000E+00 0. -1.
         21   -1    0    0  501  502 -0.00000000000E+00 -0.00000000000E+00 -0.52644250047E+03  0.52644250047E+03  0.00000000000E+00 0. -1.
      99926    2    1    2    0    0  0.00000000000E+00  0.00000000000E+00 -0.42882947651E+03  0.62405552443E+03  0.45337686051E+03 0.  0.
      99925    2    3    3    0    0  0.53881262455E+02  0.92739288848E+02 -0.31273581217E+03  0.42248912560E+03  0.26303917369E+03 0.  0.
         25    1    4    4    0    0 -0.20288419489E+00  0.13765859813E+02 -0.15381897310E+03  0.19873933844E+03  0.12509000000E+03 0.  0.
         25    1    4    4    0    0  0.54084146650E+02  0.78973429035E+02 -0.15891683907E+03  0.22374978716E+03  0.12509000000E+03 0.  0.
         25    1    3    3    0    0 -0.53881262455E+02 -0.92739288848E+02 -0.11609366434E+03  0.20156639884E+03  0.12509000000E+03 0.  0.
<mgrwt>
<rscale>  2 0.45337686E+03</rscale>
<asrwt>0</asrwt>
<pdfrwt beam="1">  1       21 0.14354856E-01 0.45337686E+03</pdfrwt>
<pdfrwt beam="2">  1       21 0.77418015E-01 0.45337686E+03</pdfrwt>
<totfact> 0.57960717E+04</totfact>
</mgrwt>
</event>
<event>
 7    0  0.4770865E-002  0.4563382E+03  0.7546771E-02  0.1025849E+00
         21   -1    0    0  502  501  0.00000000000E+00  0.00000000000E+00  0.54714821092E+02  0.54714821092E+02  0.00000000000E+00 0.  1.
         21   -1    0    0  501  502 -0.00000000000E+00 -0.00000000000E+00 -0.95149990477E+03  0.95149990477E+03  0.00000000000E+00 0.  1.
      99926    2    1    2    0    0  0.35527136788E-14 -0.35527136788E-14 -0.89678508368E+03  0.10062147259E+04  0.45633823885E+03 0.  0.
      99925    2    3    3    0    0 -0.23738877405E+02  0.17969559253E+02 -0.80727987494E+03  0.84954587174E+03  0.26294667207E+03 0.  0.
         25    1    3    3    0    0  0.23738877405E+02 -0.17969559253E+02 -0.89505208738E+02  0.15666885412E+03  0.12509000000E+03 0.  0.
         25    1    4    4    0    0  0.26791562072E+02 -0.31067994750E+00 -0.36361938986E+03  0.38546653954E+03  0.12509000000E+03 0.  0.
         25    1    4    4    0    0 -0.50530439477E+02  0.18280239201E+02 -0.44366048508E+03  0.46407933221E+03  0.12509000000E+03 0.  0.
<mgrwt>
<rscale>  2 0.45633824E+03</rscale>
<asrwt>0</asrwt>
<pdfrwt beam="1">  1       21 0.80462972E-02 0.45633824E+03</pdfrwt>
<pdfrwt beam="2">  1       21 0.13992646E+00 0.45633824E+03</pdfrwt>
<totfact> 0.38521783E+04</totfact>
</mgrwt>
</event>
<event>
 7    0  0.4770865E-002  0.4601230E+03  0.7546771E-02  0.1024746E+00
         21   -1    0    0  502  501  0.00000000000E+00  0.00000000000E+00  0.47936951715E+03  0.47936951715E+03  0.00000000000E+00 0.  1.
         21   -1    0    0  501  502 -0.00000000000E+00 -0.00000000000E+00 -0.11041232665E+03  0.11041232665E+03  0.00000000000E+00 0.  1.
      99926    2    1    2    0    0  0.28421709430E-13 -0.71054273576E-14  0.36895719051E+03  0.58978184380E+03  0.46012304316E+03 0.  0.
      99925    2    3    3    0    0 -0.95953894366E+02  0.43578111514E+02  0.29875055305E+03  0.41178554696E+03  0.26307649474E+03 0.  0.
         25    1    4    4    0    0 -0.81460364027E+02  0.40712893652E+00  0.17512995696E+03  0.23011728876E+03  0.12509000000E+03 0.  0.
         25    1    3    3    0    0  0.95953894366E+02 -0.43578111514E+02  0.70206637457E+02  0.17799629684E+03  0.12509000000E+03 0.  0.
         25    1    4    4    0    0 -0.14493530338E+02  0.43170982578E+02  0.12362059609E+03  0.18166825820E+03  0.12509000000E+03 0.  0.
<mgrwt>
<rscale>  2 0.46012304E+03</rscale>
<asrwt>0</asrwt>
<pdfrwt beam="1">  1       21 0.70495517E-01 0.46012304E+03</pdfrwt>
<pdfrwt beam="2">  1       21 0.16237107E-01 0.46012304E+03</pdfrwt>
<totfact> 0.56969622E+04</totfact>
</mgrwt>
</event>
<event>
 7    0  0.4770865E-002  0.4520419E+03  0.7546771E-02  0.1027115E+00
         21   -1    0    0  502  501  0.00000000000E+00  0.00000000000E+00  0.16583266531E+03  0.16583266531E+03  0.00000000000E+00 0. -1.
         21   -1    0    0  501  502 -0.00000000000E+00 -0.00000000000E+00 -0.30805430378E+03  0.30805430378E+03  0.00000000000E+00 0. -1.
      99926    2    1    2    0    0  0.00000000000E+00  0.71054273576E-14 -0.14222163847E+03  0.47388696908E+03  0.45204188414E+03 0.  0.
      99925    2    3    3    0    0 -0.71113339743E+02 -0.56423697291E+02 -0.15522750862E+03  0.31878248345E+03  0.26322224757E+03 0.  0.
         25    1    4    4    0    0 -0.55677146674E+02 -0.29466707862E+02 -0.12184737298E+03  0.18564084124E+03  0.12509000000E+03 0.  0.
         25    1    3    3    0    0  0.71113339743E+02  0.56423697291E+02  0.13005870150E+02  0.15510448563E+03  0.12509000000E+03 0.  0.
         25    1    4    4    0    0 -0.15436193069E+02 -0.26956989429E+02 -0.33380135645E+02  0.13314164221E+03  0.12509000000E+03 0.  0.
<mgrwt>
<rscale>  2 0.45204188E+03</rscale>
<asrwt>0</asrwt>
<pdfrwt beam="1">  1       21 0.24387157E-01 0.45204188E+03</pdfrwt>
<pdfrwt beam="2">  1       21 0.45302103E-01 0.45204188E+03</pdfrwt>
<totfact> 0.68747635E+04</totfact>
</mgrwt>
</event>
<event>
 7    0  0.4770865E-002  0.4544210E+03  0.7546771E-02  0.1026412E+00
         21   -1    0    0  502  501  0.00000000000E+00  0.00000000000E+00  0.27507970940E+03  0.27507970940E+03  0.00000000000E+00 0.  1.
         21   -1    0    0  501  502 -0.00000000000E+00 -0.00000000000E+00 -0.18767149549E+03  0.18767149549E+03  0.00000000000E+00 0.  1.
      99926    2    1    2    0    0  0.00000000000E+00  0.00000000000E+00  0.87408213912E+02  0.46275120488E+03  0.45442104018E+03 0.  0.
      99925    2    3    3    0    0  0.80375626031E+02  0.79005408454E+02  0.56165978018E+02  0.29150377796E+03  0.26290252880E+03 0.  0.
         25    1    4    4    0    0  0.49337970317E+02  0.78812683157E+02  0.44515465919E+02  0.16209506207E+03  0.12509000000E+03 0.  0.
         25    1    3    3    0    0 -0.80375626031E+02 -0.79005408454E+02  0.31242235894E+02  0.17124742693E+03  0.12509000000E+03 0.  0.
         25    1    4    4    0    0  0.31037655715E+02  0.19272529668E+00  0.11650512099E+02  0.12940871589E+03  0.12509000000E+03 0.  0.
<mgrwt>
<rscale>  2 0.45442104E+03</rscale>
<asrwt>0</asrwt>
<pdfrwt beam="1">  1       21 0.40452899E-01 0.45442104E+03</pdfrwt>
<pdfrwt beam="2">  1       21 0.27598749E-01 0.45442104E+03</pdfrwt>
<totfact> 0.68291200E+04</totfact>
</mgrwt>
</event>
<event>
 7    0  0.4770865E-002  0.4558020E+03  0.7546771E-02  0.1026006E+00
         21   -1    0    0  502  501  0.00000000000E+00  0.00000000000E+00  0.39685994300E+02  0.39685994300E+02  0.00000000000E+00 0. -1.
         21   -1    0    0  501  502 -0.00000000000E+00 -0.00000000000E+00 -0.13087453422E+04  0.13087453422E+04  0.00000000000E+00 0. -1.
      99926    2    1    2    0    0  0.35527136788E-14  0.00000000000E+00 -0.12690593479E+04  0.13484313365E+04  0.45580197538E+03 0.  0.
      99925    2    3    3    0    0 -0.22775557508E+02 -0.94602865330E+02 -0.97343241992E+03  0.10130044193E+04  0.26294267279E+03 0.  0.
         25    1    3    3    0    0  0.22775557508E+02  0.94602865330E+02 -0.29562692793E+03  0.33542691718E+03  0.12509000000E+03 0.  0.
         25    1    4    4    0    0 -0.46778553409E+02 -0.57035433880E+02 -0.44267685786E+03  0.46588795044E+03  0.12509000000E+03 0.  0.
         25    1    4    4    0    0  0.24002995902E+02 -0.37567431450E+02 -0.53075556206E+03  0.54711646884E+03  0.12509000000E+03 0.  0.
<mgrwt>
<rscale>  2 0.45580198E+03</rscale>
<asrwt>0</asrwt>
<pdfrwt beam="1">  1       21 0.58361751E-02 0.45580198E+03</pdfrwt>
<pdfrwt beam="2">  1       21 0.19246257E+00 0.45580198E+03</pdfrwt>
<totfact> 0.27566921E+04</totfact>
</mgrwt>
</event>
<event>
 7    0  0.4770865E-002  0.4619335E+03  0.7546771E-02  0.1024222E+00
         21   -1    0    0  502  501  0.00000000000E+00  0.00000000000E+00  0.36880494564E+03  0.36880494564E+03  0.00000000000E+00 0. -1.
         21   -1    0    0  501  502 -0.00000000000E+00 -0.00000000000E+00 -0.14464457212E+03  0.14464457212E+03  0.00000000000E+00 0. -1.
      99926    2    1    2    0    0  0.00000000000E+00  0.00000000000E+00  0.22416037352E+03  0.51344951775E+03  0.46193347381E+03 0.  0.
      99925    2    3    3    0    0 -0.68540313962E+02  0.56280232436E+02  0.22933065472E+03  0.36002370797E+03  0.26298152388E+03 0.  0.
         25    1    4    4    0    0  0.51941098010E+01  0.39929333319E+02  0.10853288425E+03  0.17043539978E+03  0.12509000000E+03 0.  0.
         25    1    4    4    0    0 -0.73734423763E+02  0.16350899117E+02  0.12079777047E+03  0.18958830818E+03  0.12509000000E+03 0.  0.
         25    1    3    3    0    0  0.68540313962E+02 -0.56280232436E+02 -0.51702811988E+01  0.15342580979E+03  0.12509000000E+03 0.  0.
<mgrwt>
<rscale>  2 0.46193347E+03</rscale>
<asrwt>0</asrwt>
<pdfrwt beam="1">  1       21 0.54236021E-01 0.46193347E+03</pdfrwt>
<pdfrwt beam="2">  1       21 0.21271261E-01 0.46193347E+03</pdfrwt>
<totfact> 0.60914192E+04</totfact>
</mgrwt>
</event>
<event>
 7    0  0.4770865E-002  0.4451935E+03  0.7546771E-02  0.1029165E+00
         21   -1    0    0  502  501  0.00000000000E+00  0.00000000000E+00  0.10191998186E+03  0.10191998186E+03  0.00000000000E+00 0.  1.
         21   -1    0    0  501  502 -0.00000000000E+00 -0.00000000000E+00 -0.48615887350E+03  0.48615887350E+03  0.00000000000E+00 0.  1.
      99926    2    1    2    0    0  0.17763568394E-14  0.00000000000E+00 -0.38423889164E+03  0.58807885537E+03  0.44519345714E+03 0.  0.
      99925    2    3    3    0    0 -0.11871333576E+02 -0.84982182873E+02 -0.32088592654E+03  0.42368905564E+03  0.26302421571E+03 0.  0.
         25    1    4    4    0    0 -0.27904897166E+02 -0.50272636315E+02 -0.21546372902E+03  0.25569150919E+03  0.12509000000E+03 0.  0.
         25    1    3    3    0    0  0.11871333576E+02  0.84982182873E+02 -0.63352965100E+02  0.16438979973E+03  0.12509000000E+03 0.  0.
         25    1    4    4    0    0  0.16033563590E+02 -0.34709546559E+02 -0.10542219752E+03  0.16799754645E+03  0.12509000000E+03 0.  0.
<mgrwt>
<rscale>  2 0.44519346E+03</rscale>
<asrwt>0</asrwt>
<pdfrwt beam="1">  1       21 0.14988233E-01 0.44519346E+03</pdfrwt>
<pdfrwt beam="2">  1       21 0.71493952E-01 0.44519346E+03</pdfrwt>
<totfact> 0.64255434E+04</totfact>
</mgrwt>
</event>
<event>
 7    0  0.4770865E-002  0.4373161E+03  0.7546771E-02  0.1031573E+00
         21   -1    0    0  502  501  0.00000000000E+00  0.00000000000E+00  0.31841043866E+03  0.31841043866E+03  0.00000000000E+00 0.  1.
         21   -1    0    0  501  502 -0.00000000000E+00 -0.00000000000E+00 -0.15015631846E+03  0.15015631846E+03  0.00000000000E+00 0.  1.
      99926    2    1    2    0    0  0.00000000000E+00  0.00000000000E+00  0.16825412020E+03  0.46856675712E+03  0.43731608353E+03 0.  0.
      99925    2    3    3    0    0  0.67827255370E+02 -0.58251601272E+02  0.70949436669E+02  0.28660660995E+03  0.26289872704E+03 0.  0.
         25    1    3    3    0    0 -0.67827255370E+02  0.58251601272E+02  0.97304683528E+02  0.18196014717E+03  0.12509000000E+03 0.  0.
         25    1    4    4    0    0  0.73679681608E+02 -0.34082469213E+02  0.25959973109E+02  0.15136623961E+03  0.12509000000E+03 0.  0.
         25    1    4    4    0    0 -0.58524262384E+01 -0.24169132059E+02  0.44989463560E+02  0.13524037034E+03  0.12509000000E+03 0.  0.
<mgrwt>
<rscale>  2 0.43731608E+03</rscale>
<asrwt>0</asrwt>
<pdfrwt beam="1">  1       21 0.46825064E-01 0.43731608E+03</pdfrwt>
<pdfrwt beam="2">  1       21 0.22081812E-01 0.43731608E+03</pdfrwt>
<totfact> 0.77917396E+04</totfact>
</mgrwt>
</event>
<event>
 7    0  0.4770865E-002  0.4330642E+03  0.7546771E-02  0.1032896E+00
         21   -1    0    0  502  501  0.00000000000E+00  0.00000000000E+00  0.81649066386E+02  0.81649066386E+02  0.00000000000E+00 0. -1.
         21   -1    0    0  501  502 -0.00000000000E+00 -0.00000000000E+00 -0.57423995560E+03  0.57423995560E+03  0.00000000000E+00 0. -1.
      99926    2    1    2    0    0  0.00000000000E+00  0.71054273576E-14 -0.49259088921E+03  0.65588902198E+03  0.43306422736E+03 0.  0.
      99925    2    3    3    0    0 -0.54306310761E+02 -0.51170550726E+02 -0.39577639457E+03  0.48099432474E+03  0.26296194646E+03 0.  0.
         25    1    4    4    0    0  0.73932143141E+01 -0.16363391251E+01 -0.18360298509E+03  0.22229462760E+03  0.12509000000E+03 0.  0.
         25    1    4    4    0    0 -0.61699525075E+02 -0.49534211601E+02 -0.21217340948E+03  0.25869969715E+03  0.12509000000E+03 0.  0.
         25    1    3    3    0    0  0.54306310761E+02  0.51170550726E+02 -0.96814494640E+02  0.17489469724E+03  0.12509000000E+03 0.  0.
<mgrwt>
<rscale>  2 0.43306423E+03</rscale>
<asrwt>0</asrwt>
<pdfrwt beam="1">  1       21 0.12007216E-01 0.43306423E+03</pdfrwt>
<pdfrwt beam="2">  1       21 0.84447050E-01 0.43306423E+03</pdfrwt>
<totfact> 0.66065925E+04</totfact>
</mgrwt>
</event>
<event>
 7    0  0.4770865E-002  0.4521525E+03  0.7546771E-02  0.1027082E+00
         21   -1    0    0  502  501  0.00000000000E+00  0.00000000000E+00  0.24277367572E+03  0.24277367572E+03  0.00000000000E+00 0.  1.
         21   -1    0    0  501  502 -0.00000000000E+00 -0.00000000000E+00 -0.21052722170E+03  0.21052722170E+03  0.00000000000E+00 0.  1.
      99926    2    1    2    0    0  0.71054273576E-14 -0.17763568394E-14  0.32246454024E+02  0.45330089742E+03  0.45215248513E+03 0.  0.
      99925    2    3    3    0    0  0.41277746892E+02 -0.77414858560E+01  0.12280065140E+03  0.29326542088E+03  0.26298445601E+03 0.  0.
         25    1    4    4    0    0  0.38886520781E+02 -0.39939033994E+02  0.68563367187E+02  0.15315264071E+03  0.12509000000E+03 0.  0.
         25    1    4    4    0    0  0.23912261108E+01  0.32197548138E+02  0.54237284211E+02  0.14011278017E+03  0.12509000000E+03 0.  0.
         25    1    3    3    0    0 -0.41277746892E+02  0.77414858560E+01 -0.90554197375E+02  0.16003547655E+03  0.12509000000E+03 0.  0.
<mgrwt>
<rscale>  2 0.45215249E+03</rscale>
<asrwt>0</asrwt>
<pdfrwt beam="1">  1       21 0.35702011E-01 0.45215249E+03</pdfrwt>
<pdfrwt beam="2">  1       21 0.30959886E-01 0.45215249E+03</pdfrwt>
<totfact> 0.70253091E+04</totfact>
</mgrwt>
</event>
<event>
 7    0  0.4770865E-002  0.4563351E+03  0.7546771E-02  0.1025850E+00
         21   -1    0    0  502  501  0.00000000000E+00  0.00000000000E+00  0.46161225955E+03  0.46161225955E+03  0.00000000000E+00 0.  1.
         21   -1    0    0  501  502 -0.00000000000E+00 -0.00000000000E+00 -0.11277958015E+03  0.11277958015E+03  0.00000000000E+00 0.  1.
      99926    2    1    2    0    0 -0.17763568394E-14  0.00000000000E+00  0.34883267940E+03  0.57439183970E+03  0.45633512609E+03 0.  0.
      99925    2    3    3    0    0  0.11461856778E+02  0.31938184289E+02  0.81719320987E+02  0.27749374924E+03  0.26300819696E+03 0.  0.
         25    1    4    4    0    0  0.16112242952E+02 -0.22078961804E+02  0.50434223700E+02  0.13761614712E+03  0.12509000000E+03 0.  0.
         25    1    3    3    0    0 -0.11461856778E+02 -0.31938184289E+02  0.26711335842E+03  0.29689809046E+03  0.12509000000E+03 0.  0.
         25    1    4    4    0    0 -0.46503861734E+01  0.54017146093E+02  0.31285097287E+02  0.13987760212E+03  0.12509000000E+03 0.  0.
<mgrwt>
<rscale>  2 0.45633513E+03</rscale>
<asrwt>0</asrwt>
<pdfrwt beam="1">  1       21 0.67884155E-01 0.45633513E+03</pdfrwt>
<pdfrwt beam="2">  1       21 0.16585232E-01 0.45633513E+03</pdfrwt>
<totfact> 0.59650654E+04</totfact>
</mgrwt>
</event>
<event>
 7    0  0.4770865E-002  0.4462187E+03  0.7546771E-02  0.1028856E+00
         21   -1    0    0  502  501  0.00000000000E+00  0.00000000000E+00  0.21135475112E+03  0.21135475112E+03  0.00000000000E+00 0. -1.
         21   -1    0    0  501  502 -0.00000000000E+00 -0.00000000000E+00 -0.23551766065E+03  0.23551766065E+03  0.00000000000E+00 0. -1.
      99926    2    1    2    0    0  0.14210854715E-13  0.00000000000E+00 -0.24162909529E+02  0.44687241178E+03  0.44621867533E+03 0.  0.
      99925    2    3    3    0    0  0.64727406993E+02  0.19921744761E+02  0.64927948340E+02  0.27902962168E+03  0.26278390014E+03 0.  0.
         25    1    4    4    0    0  0.13515649963E+02 -0.87451607249E+01  0.62678568643E+02  0.14083771404E+03  0.12509000000E+03 0.  0.
         25    1    4    4    0    0  0.51211757030E+02  0.28666905486E+02  0.22493796971E+01  0.13819190764E+03  0.12509000000E+03 0.  0.
         25    1    3    3    0    0 -0.64727406993E+02 -0.19921744761E+02 -0.89090857870E+02  0.16784279009E+03  0.12509000000E+03 0.  0.
<mgrwt>
<rscale>  2 0.44621868E+03</rscale>
<asrwt>0</asrwt>
<pdfrwt beam="1">  1       21 0.31081581E-01 0.44621868E+03</pdfrwt>
<pdfrwt beam="2">  1       21 0.34634950E-01 0.44621868E+03</pdfrwt>
<totfact> 0.74210201E+04</totfact>
</mgrwt>
</event>
<event>
 7    0  0.4770865E-002  0.4509222E+03  0.7546771E-02  0.1027447E+00
         21   -1    0    0  502  501  0.00000000000E+00  0.00000000000E+00  0.96364547050E+03  0.96364547050E+03  0.00000000000E+00 0. -1.
         21   -1    0    0  501  502 -0.00000000000E+00 -0.00000000000E+00 -0.52750423427E+02  0.52750423427E+02  0.00000000000E+00 0. -1.
      99926    2    1    2    0    0  0.14210854715E-13  0.71054273576E-14  0.91089504707E+03  0.10163958939E+04  0.45092219552E+03 0.  0.
      99925    2    3    3    0    0 -0.65323741433E+02 -0.52096393204E+02  0.73406072727E+03  0.78423407506E+03  0.26305267113E+03 0.  0.
         25    1    3    3    0    0  0.65323741433E+02  0.52096393204E+02  0.17683431981E+03  0.23216181887E+03  0.12509000000E+03 0.  0.
         25    1    4    4    0    0 -0.45954302782E+02 -0.27230927612E+02  0.48548381761E+03  0.50417791168E+03  0.12509000000E+03 0.  0.
         25    1    4    4    0    0 -0.19369438651E+02 -0.24865465592E+02  0.24857690966E+03  0.28005616338E+03  0.12509000000E+03 0.  0.
<mgrwt>
<rscale>  2 0.45092220E+03</rscale>
<asrwt>0</asrwt>
<pdfrwt beam="1">  1       21 0.14171256E+00 0.45092220E+03</pdfrwt>
<pdfrwt beam="2">  1       21 0.77574158E-02 0.45092220E+03</pdfrwt>
<totfact> 0.39786845E+04</totfact>
</mgrwt>
</event>
<event>
 7    0  0.4770865E-002  0.4512494E+03  0.7546771E-02  0.1027350E+00
         21   -1    0    0  502  501  0.00000000000E+00  0.00000000000E+00  0.19438417796E+03  0.19438417796E+03  0.00000000000E+00 0.  1.
         21   -1    0    0  501  502 -0.00000000000E+00 -0.00000000000E+00 -0.26188602004E+03  0.26188602004E+03  0.00000000000E+00 0.  1.
      99926    2    1    2    0    0  0.00000000000E+00  0.00000000000E+00 -0.67501842085E+02  0.45627019800E+03  0.45124937108E+03 0.  0.
      99925    2    3    3    0    0 -0.52427780168E+02 -0.96069377090E+02 -0.49921964206E+02  0.28913385379E+03  0.26292239454E+03 0.  0.
         25    1    4    4    0    0 -0.15687142913E+02 -0.42234293770E+02 -0.63667399540E+02  0.14741393383E+03  0.12509000000E+03 0.  0.
         25    1    3    3    0    0  0.52427780168E+02  0.96069377090E+02 -0.17579877879E+02  0.16713634420E+03  0.12509000000E+03 0.  0.
         25    1    4    4    0    0 -0.36740637254E+02 -0.53835083320E+02  0.13745435333E+02  0.14171991996E+03  0.12509000000E+03 0.  0.
<mgrwt>
<rscale>  2 0.45124937E+03</rscale>
<asrwt>0</asrwt>
<pdfrwt beam="1">  1       21 0.28585909E-01 0.45124937E+03</pdfrwt>
<pdfrwt beam="2">  1       21 0.38512650E-01 0.45124937E+03</pdfrwt>
<totfact> 0.70539588E+04</totfact>
</mgrwt>
</event>
<event>
 7    0  0.4770865E-002  0.4539649E+03  0.7546771E-02  0.1026546E+00
         21   -1    0    0  502  501  0.00000000000E+00  0.00000000000E+00  0.53704439990E+02  0.53704439990E+02  0.00000000000E+00 0.  1.
         21   -1    0    0  501  502 -0.00000000000E+00 -0.00000000000E+00 -0.95934389772E+03  0.95934389772E+03  0.00000000000E+00 0.  1.
      99926    2    1    2    0    0  0.71054273576E-14 -0.71054273576E-14 -0.90563945773E+03  0.10130483377E+04  0.45396487434E+03 0.  0.
      99925    2    3    3    0    0 -0.45678664370E+02  0.47981388175E+02 -0.77201779509E+03  0.81839220291E+03  0.26337343801E+03 0.  0.
         25    1    3    3    0    0  0.45678664370E+02 -0.47981388175E+02 -0.13362166263E+03  0.19465613480E+03  0.12509000000E+03 0.  0.
         25    1    4    4    0    0 -0.29343942154E+02  0.77893347086E+01 -0.26854190950E+03  0.29779859961E+03  0.12509000000E+03 0.  0.
         25    1    4    4    0    0 -0.16334722216E+02  0.40192053467E+02 -0.50347588560E+03  0.52059360329E+03  0.12509000000E+03 0.  0.
<mgrwt>
<rscale>  2 0.45396487E+03</rscale>
<asrwt>0</asrwt>
<pdfrwt beam="1">  1       21 0.78977120E-02 0.45396487E+03</pdfrwt>
<pdfrwt beam="2">  1       21 0.14107998E+00 0.45396487E+03</pdfrwt>
<totfact> 0.38977152E+04</totfact>
</mgrwt>
</event>
<event>
 7    0  0.4770865E-002  0.4956669E+03  0.7546771E-02  0.1014916E+00
         21   -1    0    0  502  501  0.00000000000E+00  0.00000000000E+00  0.18915504429E+03  0.18915504429E+03  0.00000000000E+00 0. -1.
         21   -1    0    0  501  502 -0.00000000000E+00 -0.00000000000E+00 -0.32471466445E+03  0.32471466445E+03  0.00000000000E+00 0. -1.
      99926    2    1    2    0    0  0.00000000000E+00  0.00000000000E+00 -0.13555962016E+03  0.51386970874E+03  0.49566689111E+03 0.  0.
      99925    2    3    3    0    0 -0.11632872227E+03  0.90714164889E+02 -0.70730487621E+02  0.30988011131E+03  0.26317570209E+03 0.  0.
         25    1    4    4    0    0 -0.91036994102E+02  0.76019198219E+02 -0.52047619309E+02  0.18006419846E+03  0.12509000000E+03 0.  0.
         25    1    3    3    0    0  0.11632872227E+03 -0.90714164889E+02 -0.64829132537E+02  0.20398959743E+03  0.12509000000E+03 0.  0.
         25    1    4    4    0    0 -0.25291728166E+02  0.14694966670E+02 -0.18682868312E+02  0.12981591284E+03  0.12509000000E+03 0.  0.
<mgrwt>
<rscale>  2 0.49566689E+03</rscale>
<asrwt>0</asrwt>
<pdfrwt beam="1">  1       21 0.27816918E-01 0.49566689E+03</pdfrwt>
<pdfrwt beam="2">  1       21 0.47752156E-01 0.49566689E+03</pdfrwt>
<totfact> 0.47146189E+04</totfact>
</mgrwt>
</event>
<event>
 7    0  0.4770865E-002  0.4535715E+03  0.7546771E-02  0.1026662E+00
         21   -1    0    0  502  501  0.00000000000E+00  0.00000000000E+00  0.37640189133E+03  0.37640189133E+03  0.00000000000E+00 0.  1.
         21   -1    0    0  501  502 -0.00000000000E+00 -0.00000000000E+00 -0.13664061136E+03  0.13664061136E+03  0.00000000000E+00 0.  1.
      99926    2    1    2    0    0 -0.17763568394E-14  0.00000000000E+00  0.23976127997E+03  0.51304250269E+03  0.45357153592E+03 0.  0.
      99925    2    3    3    0    0 -0.11776768047E+02  0.72068011637E+02  0.55353571158E+02  0.27855113454E+03  0.26304795408E+03 0.  0.
         25    1    3    3    0    0  0.11776768047E+02 -0.72068011637E+02  0.18440770881E+03  0.23449136815E+03  0.12509000000E+03 0.  0.
         25    1    4    4    0    0 -0.41262560375E+02  0.28225021077E+02  0.87809576542E+01  0.13499579260E+03  0.12509000000E+03 0.  0.
         25    1    4    4    0    0  0.29485792328E+02  0.43842990559E+02  0.46572613504E+02  0.14355534194E+03  0.12509000000E+03 0.  0.
<mgrwt>
<rscale>  2 0.45357154E+03</rscale>
<asrwt>0</asrwt>
<pdfrwt beam="1">  1       21 0.55353219E-01 0.45357154E+03</pdfrwt>
<pdfrwt beam="2">  1       21 0.20094208E-01 0.45357154E+03</pdfrwt>
<totfact> 0.65098554E+04</totfact>
</mgrwt>
</event>
<event>
 7    0  0.4770865E-002  0.4624912E+03  0.7546771E-02  0.1024061E+00
         21   -1    0    0  502  501  0.00000000000E+00  0.00000000000E+00  0.16803872681E+03  0.16803872681E+03  0.00000000000E+00 0. -1.
         21   -1    0    0  501  502 -0.00000000000E+00 -0.00000000000E+00 -0.31822739874E+03  0.31822739874E+03  0.00000000000E+00 0. -1.
      99926    2    1    2    0    0  0.00000000000E+00  0.14210854715E-13 -0.15018867193E+03  0.48626612555E+03  0.46249119741E+03 0.  0.
      99925    2    3    3    0    0 -0.55772202643E+02 -0.93710140397E+02 -0.41090857863E+02  0.28766610003E+03  0.26300417774E+03 0.  0.
         25    1    4    4    0    0 -0.18474426205E+01 -0.15310486732E+02 -0.33020017457E+02  0.13029065086E+03  0.12509000000E+03 0.  0.
         25    1    3    3    0    0  0.55772202643E+02  0.93710140397E+02 -0.10909781407E+03  0.19860002552E+03  0.12509000000E+03 0.  0.
         25    1    4    4    0    0 -0.53924760022E+02 -0.78399653665E+02 -0.80708404057E+01  0.15737544918E+03  0.12509000000E+03 0.  0.
<mgrwt>
<rscale>  2 0.46249120E+03</rscale>
<asrwt>0</asrwt>
<pdfrwt beam="1">  1       21 0.24711578E-01 0.46249120E+03</pdfrwt>
<pdfrwt beam="2">  1       21 0.46798146E-01 0.46249120E+03</pdfrwt>
<totfact> 0.62449782E+04</totfact>
</mgrwt>
</event>
<event>
 7    0  0.4770865E-002  0.4586756E+03  0.7546771E-02  0.1025166E+00
         21   -1    0    0  502  501  0.00000000000E+00  0.00000000000E+00  0.42627244837E+03  0.42627244837E+03  0.00000000000E+00 0. -1.
         21   -1    0    0  501  502 -0.00000000000E+00 -0.00000000000E+00 -0.12338545565E+03  0.12338545565E+03  0.00000000000E+00 0. -1.
      99926    2    1    2    0    0  0.00000000000E+00  0.00000000000E+00  0.30288699272E+03  0.54965790402E+03  0.45867557281E+03 0.  0.
      99925    2    3    3    0    0 -0.97721432012E+02  0.55744488470E+02  0.22660889771E+03  0.36493437507E+03  0.26299920022E+03 0.  0.
         25    1    4    4    0    0 -0.58738652534E+02  0.26797376677E+01  0.73503099250E+02  0.15654911049E+03  0.12509000000E+03 0.  0.
         25    1    4    4    0    0 -0.38982779478E+02  0.53064750802E+02  0.15310579846E+03  0.20838526458E+03  0.12509000000E+03 0.  0.
         25    1    3    3    0    0  0.97721432012E+02 -0.55744488470E+02  0.76278095009E+02  0.18472352895E+03  0.12509000000E+03 0.  0.
<mgrwt>
<rscale>  2 0.45867557E+03</rscale>
<asrwt>0</asrwt>
<pdfrwt beam="1">  1       21 0.62687124E-01 0.45867557E+03</pdfrwt>
<pdfrwt beam="2">  1       21 0.18144920E-01 0.45867557E+03</pdfrwt>
<totfact> 0.60121542E+04</totfact>
</mgrwt>
</event>
<event>
 7    0  0.4770865E-002  0.4539787E+03  0.7546771E-02  0.1026542E+00
         21   -1    0    0  502  501  0.00000000000E+00  0.00000000000E+00  0.34665281192E+03  0.34665281192E+03  0.00000000000E+00 0. -1.
         21   -1    0    0  501  502 -0.00000000000E+00 -0.00000000000E+00 -0.14863335934E+03  0.14863335934E+03  0.00000000000E+00 0. -1.
      99926    2    1    2    0    0  0.00000000000E+00  0.00000000000E+00  0.19801945258E+03  0.49528617126E+03  0.45397873060E+03 0.  0.
      99925    2    3    3    0    0 -0.61754425015E+02 -0.84853107027E+02  0.80667744014E+02  0.29420760357E+03  0.26274925364E+03 0.  0.
         25    1    3    3    0    0  0.61754425015E+02  0.84853107027E+02  0.11735170857E+03  0.20107856769E+03  0.12509000000E+03 0.  0.
         25    1    4    4    0    0  0.25877046331E+01 -0.17421349915E+02  0.45743241137E+02  0.13435085358E+03  0.12509000000E+03 0.  0.
         25    1    4    4    0    0 -0.64342129648E+02 -0.67431757112E+02  0.34924502877E+02  0.15985674999E+03  0.12509000000E+03 0.  0.
<mgrwt>
<rscale>  2 0.45397873E+03</rscale>
<asrwt>0</asrwt>
<pdfrwt beam="1">  1       21 0.50978355E-01 0.45397873E+03</pdfrwt>
<pdfrwt beam="2">  1       21 0.21857847E-01 0.45397873E+03</pdfrwt>
<totfact> 0.66137677E+04</totfact>
</mgrwt>
</event>
<event>
 7    0  0.4770865E-002  0.4603397E+03  0.7546771E-02  0.1024683E+00
         21   -1    0    0  502  501  0.00000000000E+00  0.00000000000E+00  0.19988789016E+03  0.19988789016E+03  0.00000000000E+00 0. -1.
         21   -1    0    0  501  502 -0.00000000000E+00 -0.00000000000E+00 -0.26503937762E+03  0.26503937762E+03  0.00000000000E+00 0. -1.
      99926    2    1    2    0    0  0.00000000000E+00  0.00000000000E+00 -0.65151487461E+02  0.46492726778E+03  0.46033970935E+03 0.  0.
      99925    2    3    3    0    0 -0.10444960526E+03 -0.40938751619E+02 -0.32563504320E+01  0.28586242614E+03  0.26290877018E+03 0.  0.
         25    1    3    3    0    0  0.10444960526E+03  0.40938751619E+02 -0.61895137029E+02  0.17906484164E+03  0.12509000000E+03 0.  0.
         25    1    4    4    0    0 -0.18999195636E+02 -0.38563282567E+02  0.15587550952E+02  0.13318624569E+03  0.12509000000E+03 0.  0.
         25    1    4    4    0    0 -0.85450409621E+02 -0.23754690523E+01 -0.18843901384E+02  0.15267618045E+03  0.12509000000E+03 0.  0.
<mgrwt>
<rscale>  2 0.46033971E+03</rscale>
<asrwt>0</asrwt>
<pdfrwt beam="1">  1       21 0.29395278E-01 0.46033971E+03</pdfrwt>
<pdfrwt beam="2">  1       21 0.38976378E-01 0.46033971E+03</pdfrwt>
<totfact> 0.65010230E+04</totfact>
</mgrwt>
</event>
<event>
 6    0  0.4770865E-002  0.4725433E+03  0.7546771E-02  0.1021205E+00
         21   -1    0    0  502  501  0.00000000000E+00  0.00000000000E+00  0.69504984629E+03  0.69504984629E+03  0.00000000000E+00 0. -1.
         21   -1    0    0  501  502 -0.00000000000E+00 -0.00000000000E+00 -0.80316963104E+02  0.80316963104E+02  0.00000000000E+00 0. -1.
      99926    2    1    2    0    0  0.00000000000E+00  0.00000000000E+00  0.61473288318E+03  0.77536680939E+03  0.47254330112E+03 0.  0.
         25    1    3    3    0    0  0.79663088679E+01  0.24265724647E+02  0.26739479685E+03  0.29631026468E+03  0.12509000000E+03 0.  0.
         25    1    3    3    0    0 -0.59628083348E+02  0.11828396110E+02  0.45550730187E+02  0.14634820258E+03  0.12509000000E+03 0.  0.
         25    1    3    3    0    0  0.51661774480E+02 -0.36094120756E+02  0.30178735614E+03  0.33270834213E+03  0.12509000000E+03 0.  0.
<mgrwt>
<rscale>  2 0.47254330E+03</rscale>
<asrwt>0</asrwt>
<pdfrwt beam="1">  1       21 0.10221321E+00 0.47254330E+03</pdfrwt>
<pdfrwt beam="2">  1       21 0.11811318E-01 0.47254330E+03</pdfrwt>
<totfact> 0.42777410E+04</totfact>
</mgrwt>
</event>
<event>
 7    0  0.4770865E-002  0.4546040E+03  0.7546771E-02  0.1026358E+00
         21   -1    0    0  502  501  0.00000000000E+00  0.00000000000E+00  0.43305379771E+03  0.43305379771E+03  0.00000000000E+00 0. -1.
         21   -1    0    0  501  502 -0.00000000000E+00 -0.00000000000E+00 -0.11930664585E+03  0.11930664585E+03  0.00000000000E+00 0. -1.
      99926    2    1    2    0    0  0.00000000000E+00  0.00000000000E+00  0.31374715186E+03  0.55236044356E+03  0.45460398625E+03 0.  0.
      99925    2    3    3    0    0 -0.66826766227E+02 -0.81181167551E+02  0.24720999095E+03  0.37592093401E+03  0.26295925607E+03 0.  0.
         25    1    4    4    0    0 -0.56037794334E+02 -0.67454477432E+01  0.12116606087E+03  0.18306954380E+03  0.12509000000E+03 0.  0.
         25    1    3    3    0    0  0.66826766227E+02  0.81181167551E+02  0.66537160914E+02  0.17643950955E+03  0.12509000000E+03 0.  0.
         25    1    4    4    0    0 -0.10788971893E+02 -0.74435719808E+02  0.12604393008E+03  0.19285139021E+03  0.12509000000E+03 0.  0.
<mgrwt>
<rscale>  2 0.45460399E+03</rscale>
<asrwt>0</asrwt>
<pdfrwt beam="1">  1       21 0.63684382E-01 0.45460399E+03</pdfrwt>
<pdfrwt beam="2">  1       21 0.17545095E-01 0.45460399E+03</pdfrwt>
<totfact> 0.61904522E+04</totfact>
</mgrwt>
</event>
<event>
 7    0  0.4770865E-002  0.4579540E+03  0.7546771E-02  0.1025376E+00
         21   -1    0    0  502  501  0.00000000000E+00  0.00000000000E+00  0.94016265363E+02  0.94016265363E+02  0.00000000000E+00 0.  1.
         21   -1    0    0  501  502 -0.00000000000E+00 -0.00000000000E+00 -0.55767440939E+03  0.55767440939E+03  0.00000000000E+00 0.  1.
      99926    2    1    2    0    0  0.00000000000E+00  0.00000000000E+00 -0.46365814402E+03  0.65169067475E+03  0.45795399445E+03 0.  0.
      99925    2    3    3    0    0 -0.75527139159E+02  0.87043430559E+02 -0.27315379428E+03  0.39630797580E+03  0.26299450336E+03 0.  0.
         25    1    4    4    0    0 -0.40442063874E+02  0.48560325429E+02 -0.19419148570E+03  0.23948174660E+03  0.12509000000E+03 0.  0.
         25    1    4    4    0    0 -0.35085075284E+02  0.38483105130E+02 -0.78962308581E+02  0.15682622920E+03  0.12509000000E+03 0.  0.
         25    1    3    3    0    0  0.75527139159E+02 -0.87043430559E+02 -0.19050434974E+03  0.25538269895E+03  0.12509000000E+03 0.  0.
<mgrwt>
<rscale>  2 0.45795399E+03</rscale>
<asrwt>0</asrwt>
<pdfrwt beam="1">  1       21 0.13825922E-01 0.45795399E+03</pdfrwt>
<pdfrwt beam="2">  1       21 0.82010940E-01 0.45795399E+03</pdfrwt>
<totfact> 0.54327089E+04</totfact>
</mgrwt>
</event>
<event>
 7    0  0.4770865E-002  0.4678123E+03  0.7546771E-02  0.1022539E+00
         21   -1    0    0  502  501  0.00000000000E+00  0.00000000000E+00  0.40422432954E+02  0.40422432954E+02  0.00000000000E+00 0. -1.
         21   -1    0    0  501  502 -0.00000000000E+00 -0.00000000000E+00 -0.13535081616E+04  0.13535081616E+04  0.00000000000E+00 0. -1.
      99926    2    1    2    0    0  0.00000000000E+00 -0.14210854715E-13 -0.13130857287E+04  0.13939305946E+04  0.46781232526E+03 0.  0.
      99925    2    3    3    0    0  0.19773135088E+02 -0.11804634807E+03 -0.71222026735E+03  0.76862048921E+03  0.26304720119E+03 0.  0.
         25    1    4    4    0    0  0.98172723527E+01 -0.23208761619E+02 -0.38423122678E+03  0.40486561868E+03  0.12509000000E+03 0.  0.
         25    1    4    4    0    0  0.99558627355E+01 -0.94837586450E+02 -0.32798904057E+03  0.36375487054E+03  0.12509000000E+03 0.  0.
         25    1    3    3    0    0 -0.19773135088E+02  0.11804634807E+03 -0.60086546134E+03  0.62531010538E+03  0.12509000000E+03 0.  0.
<mgrwt>
<rscale>  2 0.46781233E+03</rscale>
<asrwt>0</asrwt>
<pdfrwt beam="1">  1       21 0.59444753E-02 0.46781233E+03</pdfrwt>
<pdfrwt beam="2">  1       21 0.19904532E+00 0.46781233E+03</pdfrwt>
<totfact> 0.24012770E+04</totfact>
</mgrwt>
</event>
<event>
 7    0  0.4770865E-002  0.4516967E+03  0.7546771E-02  0.1027217E+00
         21   -1    0    0  502  501  0.00000000000E+00  0.00000000000E+00  0.27373301159E+03  0.27373301159E+03  0.00000000000E+00 0. -1.
         21   -1    0    0  501  502 -0.00000000000E+00 -0.00000000000E+00 -0.18634024979E+03  0.18634024979E+03  0.00000000000E+00 0. -1.
      99926    2    1    2    0    0  0.17763568394E-14  0.14210854715E-13  0.87392761794E+02  0.46007326138E+03  0.45169670247E+03 0.  0.
      99925    2    3    3    0    0  0.85912044917E+01  0.89217697432E+02 -0.99177808517E+01  0.27800059419E+03  0.26296836628E+03 0.  0.
         25    1    3    3    0    0 -0.85912044917E+01 -0.89217697432E+02  0.97310542646E+02  0.18207266720E+03  0.12509000000E+03 0.  0.
         25    1    4    4    0    0 -0.11185951070E+02  0.22667252296E+02  0.26572131701E+02  0.13035534554E+03  0.12509000000E+03 0.  0.
         25    1    4    4    0    0  0.19777155561E+02  0.66550445137E+02 -0.36489912553E+02  0.14764524865E+03  0.12509000000E+03 0.  0.
<mgrwt>
<rscale>  2 0.45169670E+03</rscale>
<asrwt>0</asrwt>
<pdfrwt beam="1">  1       21 0.40254855E-01 0.45169670E+03</pdfrwt>
<pdfrwt beam="2">  1       21 0.27402978E-01 0.45169670E+03</pdfrwt>
<totfact> 0.69997559E+04</totfact>
</mgrwt>
</event>
<event>
 7    0  0.4770865E-002  0.4588900E+03  0.7546771E-02  0.1025104E+00
         21   -1    0    0  502  501  0.00000000000E+00  0.00000000000E+00  0.24708352064E+03  0.24708352064E+03  0.00000000000E+00 0. -1.
         21   -1    0    0  501  502 -0.00000000000E+00 -0.00000000000E+00 -0.21306559206E+03  0.21306559206E+03  0.00000000000E+00 0. -1.
      99926    2    1    2    0    0  0.17763568394E-14  0.00000000000E+00  0.34017928583E+02  0.46014911270E+03  0.45888995027E+03 0.  0.
      99925    2    3    3    0    0 -0.77899069337E+01  0.85367384323E+02 -0.58186695610E+02  0.28267383617E+03  0.26300291473E+03 0.  0.
         25    1    3    3    0    0  0.77899069337E+01 -0.85367384323E+02  0.92204624193E+02  0.17747527653E+03  0.12509000000E+03 0.  0.
         25    1    4    4    0    0 -0.41024615511E+02  0.60109016181E+02 -0.32520952703E+02  0.14832812737E+03  0.12509000000E+03 0.  0.
         25    1    4    4    0    0  0.33234708578E+02  0.25258368142E+02 -0.25665742907E+02  0.13434570881E+03  0.12509000000E+03 0.  0.
<mgrwt>
<rscale>  2 0.45888995E+03</rscale>
<asrwt>0</asrwt>
<pdfrwt beam="1">  1       21 0.36335812E-01 0.45888995E+03</pdfrwt>
<pdfrwt beam="2">  1       21 0.31333175E-01 0.45888995E+03</pdfrwt>
<totfact> 0.66094917E+04</totfact>
</mgrwt>
</event>
<event>
 7    0  0.4770865E-002  0.4508792E+03  0.7546771E-02  0.1027460E+00
         21   -1    0    0  502  501  0.00000000000E+00  0.00000000000E+00  0.86608717036E+03  0.86608717036E+03  0.00000000000E+00 0. -1.
         21   -1    0    0  501  502 -0.00000000000E+00 -0.00000000000E+00 -0.58681186585E+02  0.58681186585E+02  0.00000000000E+00 0. -1.
      99926    2    1    2    0    0  0.00000000000E+00 -0.14210854715E-13  0.80740598378E+03  0.92476835695E+03  0.45087924256E+03 0.  0.
      99925    2    3    3    0    0 -0.25543419887E+02  0.10092820520E+03  0.44203803576E+03  0.52479308965E+03  0.26300416914E+03 0.  0.
         25    1    3    3    0    0  0.25543419887E+02 -0.10092820520E+03  0.36536794802E+03  0.39997526729E+03  0.12509000000E+03 0.  0.
         25    1    4    4    0    0 -0.26302479917E+02  0.30509553791E+02  0.27330205117E+03  0.30325595229E+03  0.12509000000E+03 0.  0.
         25    1    4    4    0    0  0.75906003021E+00  0.70418651413E+02  0.16873598458E+03  0.22153713737E+03  0.12509000000E+03 0.  0.
<mgrwt>
<rscale>  2 0.45087924E+03</rscale>
<asrwt>0</asrwt>
<pdfrwt beam="1">  1       21 0.12736575E+00 0.45087924E+03</pdfrwt>
<pdfrwt beam="2">  1       21 0.86295868E-02 0.45087924E+03</pdfrwt>
<totfact> 0.43567219E+04</totfact>
</mgrwt>
</event>
<event>
 7    0  0.4770865E-002  0.4494367E+03  0.7546771E-02  0.1027890E+00
         21   -1    0    0  502  501  0.00000000000E+00  0.00000000000E+00  0.24150996039E+03  0.24150996039E+03  0.00000000000E+00 0. -1.
         21   -1    0    0  501  502 -0.00000000000E+00 -0.00000000000E+00 -0.20909419616E+03  0.20909419616E+03  0.00000000000E+00 0. -1.
      99926    2    1    2    0    0 -0.71054273576E-14 -0.35527136788E-14  0.32415764226E+02  0.45060415655E+03  0.44943667422E+03 0.  0.
      99925    2    3    3    0    0  0.60252383946E+02  0.24096711850E+02  0.10705177655E+03  0.29113928980E+03  0.26285167282E+03 0.  0.
         25    1    4    4    0    0  0.26512347161E+02  0.51938681438E+02  0.48872452189E+02  0.14641228044E+03  0.12509000000E+03 0.  0.
         25    1    3    3    0    0 -0.60252383946E+02 -0.24096711850E+02 -0.74636012329E+02  0.15946486676E+03  0.12509000000E+03 0.  0.
         25    1    4    4    0    0  0.33740036785E+02 -0.27841969588E+02  0.58179324366E+02  0.14472700935E+03  0.12509000000E+03 0.  0.
<mgrwt>
<rscale>  2 0.44943667E+03</rscale>
<asrwt>0</asrwt>
<pdfrwt beam="1">  1       21 0.35516171E-01 0.44943667E+03</pdfrwt>
<pdfrwt beam="2">  1       21 0.30749147E-01 0.44943667E+03</pdfrwt>
<totfact> 0.72012914E+04</totfact>
</mgrwt>
</event>
<event>
 7    0  0.4770865E-002  0.4377324E+03  0.7546771E-02  0.1031445E+00
         21   -1    0    0  502  501  0.00000000000E+00  0.00000000000E+00  0.12559944347E+03  0.12559944347E+03  0.00000000000E+00 0.  1.
         21   -1    0    0  501  502 -0.00000000000E+00 -0.00000000000E+00 -0.38139037689E+03  0.38139037689E+03  0.00000000000E+00 0.  1.
      99926    2    1    2    0    0  0.00000000000E+00  0.45102810375E-15 -0.25579093341E+03  0.50698982036E+03  0.43773242550E+03 0.  0.
      99925    2    3    3    0    0 -0.72161153668E+02  0.51346630409E-01 -0.90486438120E+02  0.28748966319E+03  0.26316397212E+03 0.  0.
         25    1    4    4    0    0 -0.36416486022E+02 -0.34229680034E+02 -0.21883348445E+02  0.13647058470E+03  0.12509000000E+03 0.  0.
         25    1    3    3    0    0  0.72161153668E+02 -0.51346630409E-01 -0.16530449529E+03  0.21950015717E+03  0.12509000000E+03 0.  0.
         25    1    4    4    0    0 -0.35744667646E+02  0.34281026664E+02 -0.68603089674E+02  0.15101907849E+03  0.12509000000E+03 0.  0.
<mgrwt>
<rscale>  2 0.43773243E+03</rscale>
<asrwt>0</asrwt>
<pdfrwt beam="1">  1       21 0.18470507E-01 0.43773243E+03</pdfrwt>
<pdfrwt beam="2">  1       21 0.56086820E-01 0.43773243E+03</pdfrwt>
<totfact> 0.74473249E+04</totfact>
</mgrwt>
</event>
<event>
 7    0  0.4770865E-002  0.4561822E+03  0.7546771E-02  0.1025894E+00
         21   -1    0    0  502  501  0.00000000000E+00  0.00000000000E+00  0.79248431906E+03  0.79248431906E+03  0.00000000000E+00 0. -1.
         21   -1    0    0  501  502 -0.00000000000E+00 -0.00000000000E+00 -0.65648672523E+02  0.65648672523E+02  0.00000000000E+00 0. -1.
      99926    2    1    2    0    0  0.00000000000E+00  0.00000000000E+00  0.72683564654E+03  0.85813299158E+03  0.45618217213E+03 0.  0.
      99925    2    3    3    0    0  0.39700281791E+02 -0.18264329315E+02  0.25877279775E+03  0.37167637829E+03  0.26319246043E+03 0.  0.
         25    1    4    4    0    0  0.36435148408E+02 -0.39465073926E+02  0.10278175389E+03  0.17057728200E+03  0.12509000000E+03 0.  0.
         25    1    4    4    0    0  0.32651333834E+01  0.21200744611E+02  0.15599104385E+03  0.20109909629E+03  0.12509000000E+03 0.  0.
         25    1    3    3    0    0 -0.39700281791E+02  0.18264329315E+02  0.46806284879E+03  0.48645661329E+03  0.12509000000E+03 0.  0.
<mgrwt>
<rscale>  2 0.45618217E+03</rscale>
<asrwt>0</asrwt>
<pdfrwt beam="1">  1       21 0.11654181E+00 0.45618217E+03</pdfrwt>
<pdfrwt beam="2">  1       21 0.96542170E-02 0.45618217E+03</pdfrwt>
<totfact> 0.44662125E+04</totfact>
</mgrwt>
</event>
<event>
 7    0  0.4770865E-002  0.4565388E+03  0.7546771E-02  0.1025790E+00
         21   -1    0    0  502  501  0.00000000000E+00  0.00000000000E+00  0.30423936684E+03  0.30423936684E+03  0.00000000000E+00 0.  1.
         21   -1    0    0  501  502 -0.00000000000E+00 -0.00000000000E+00 -0.17126948530E+03  0.17126948530E+03  0.00000000000E+00 0.  1.
      99926    2    1    2    0    0  0.00000000000E+00  0.00000000000E+00  0.13296988154E+03  0.47550885214E+03  0.45653880347E+03 0.  0.
      99925    2    3    3    0    0  0.42836485211E+02 -0.41766652201E+02 -0.18330542291E+02  0.27028033548E+03  0.26293731813E+03 0.  0.
         25    1    3    3    0    0 -0.42836485211E+02  0.41766652201E+02  0.15130042383E+03  0.20522851666E+03  0.12509000000E+03 0.  0.
         25    1    4    4    0    0  0.24008165320E+02 -0.26583274426E+02 -0.49332759383E+02  0.13915563851E+03  0.12509000000E+03 0.  0.
         25    1    4    4    0    0  0.18828319891E+02 -0.15183377775E+02  0.31002217092E+02  0.13112469697E+03  0.12509000000E+03 0.  0.
<mgrwt>
<rscale>  2 0.45653880E+03</rscale>
<asrwt>0</asrwt>
<pdfrwt beam="1">  1       21 0.44741084E-01 0.45653880E+03</pdfrwt>
<pdfrwt beam="2">  1       21 0.25186689E-01 0.45653880E+03</pdfrwt>
<totfact> 0.66216219E+04</totfact>
</mgrwt>
</event>
<event>
 7    0  0.4770865E-002  0.4487210E+03  0.7546771E-02  0.1028104E+00
         21   -1    0    0  502  501  0.00000000000E+00  0.00000000000E+00  0.51831281625E+02  0.51831281625E+02  0.00000000000E+00 0.  1.
         21   -1    0    0  501  502 -0.00000000000E+00 -0.00000000000E+00 -0.97118256765E+03  0.97118256765E+03  0.00000000000E+00 0.  1.
      99926    2    1    2    0    0 -0.35527136788E-14  0.00000000000E+00 -0.91935128602E+03  0.10230138493E+04  0.44872101432E+03 0.  0.
      99925    2    3    3    0    0 -0.22087793211E+02 -0.76555612649E+02 -0.74509560943E+03  0.79418819214E+03  0.26309463109E+03 0.  0.
         25    1    4    4    0    0  0.17843570081E+02 -0.30538237078E+02 -0.27958063244E+03  0.30832420445E+03  0.12509000000E+03 0.  0.
         25    1    3    3    0    0  0.22087793211E+02  0.76555612649E+02 -0.17425567660E+03  0.22882565713E+03  0.12509000000E+03 0.  0.
         25    1    4    4    0    0 -0.39931363292E+02 -0.46017375571E+02 -0.46551497699E+03  0.48586398769E+03  0.12509000000E+03 0.  0.
<mgrwt>
<rscale>  2 0.44872101E+03</rscale>
<asrwt>0</asrwt>
<pdfrwt beam="1">  1       21 0.76222470E-02 0.44872101E+03</pdfrwt>
<pdfrwt beam="2">  1       21 0.14282097E+00 0.44872101E+03</pdfrwt>
<totfact> 0.40219223E+04</totfact>
</mgrwt>
</event>
<event>
 7    0  0.4770865E-002  0.4576833E+03  0.7546771E-02  0.1025455E+00
         21   -1    0    0  502  501  0.00000000000E+00  0.00000000000E+00  0.67750893176E+03  0.67750893176E+03  0.00000000000E+00 0. -1.
         21   -1    0    0  501  502 -0.00000000000E+00 -0.00000000000E+00 -0.77295676821E+02  0.77295676821E+02  0.00000000000E+00 0. -1.
      99926    2    1    2    0    0  0.00000000000E+00  0.14210854715E-13  0.60021325494E+03  0.75480460859E+03  0.45768334658E+03 0.  0.
      99925    2    3    3    0    0 -0.45247779538E+02 -0.93344550932E+02  0.46086868139E+03  0.54073689729E+03  0.26312712490E+03 0.  0.
         25    1    4    4    0    0 -0.37778291492E+02 -0.70364364645E+02  0.30683555964E+03  0.34084294313E+03  0.12509000000E+03 0.  0.
         25    1    4    4    0    0 -0.74694880460E+01 -0.22980186287E+02  0.15403312174E+03  0.19989395415E+03  0.12509000000E+03 0.  0.
         25    1    3    3    0    0  0.45247779538E+02  0.93344550932E+02  0.13934457356E+03  0.21406771130E+03  0.12509000000E+03 0.  0.
<mgrwt>
<rscale>  2 0.45768335E+03</rscale>
<asrwt>0</asrwt>
<pdfrwt beam="1">  1       21 0.99633663E-01 0.45768335E+03</pdfrwt>
<pdfrwt beam="2">  1       21 0.11367012E-01 0.45768335E+03</pdfrwt>
<totfact> 0.48985251E+04</totfact>
</mgrwt>
</event>
<event>
 7    0  0.4770865E-002  0.4639145E+03  0.7546771E-02  0.1023652E+00
         21   -1    0    0  502  501  0.00000000000E+00  0.00000000000E+00  0.27794858752E+03  0.27794858752E+03  0.00000000000E+00 0. -1.
         21   -1    0    0  501  502 -0.00000000000E+00 -0.00000000000E+00 -0.19357599181E+03  0.19357599181E+03  0.00000000000E+00 0. -1.
      99926    2    1    2    0    0  0.00000000000E+00  0.00000000000E+00  0.84372595716E+02  0.47152457933E+03  0.46391453308E+03 0.  0.
      99925    2    3    3    0    0 -0.90100778867E+02  0.19837742730E+02  0.13258937490E+03  0.30878536376E+03  0.26316681430E+03 0.  0.
         25    1    4    4    0    0 -0.28465716461E+02  0.24401639854E+02  0.25869942895E+02  0.13312587685E+03  0.12509000000E+03 0.  0.
         25    1    4    4    0    0 -0.61635062406E+02 -0.45638971244E+01  0.10671943201E+03  0.17565948691E+03  0.12509000000E+03 0.  0.
         25    1    3    3    0    0  0.90100778867E+02 -0.19837742730E+02 -0.48216779188E+02  0.16273921557E+03  0.12509000000E+03 0.  0.
<mgrwt>
<rscale>  2 0.46391453E+03</rscale>
<asrwt>0</asrwt>
<pdfrwt beam="1">  1       21 0.40874793E-01 0.46391453E+03</pdfrwt>
<pdfrwt beam="2">  1       21 0.28467057E-01 0.46391453E+03</pdfrwt>
<totfact> 0.62761677E+04</totfact>
</mgrwt>
</event>
<event>
 7    0  0.4770865E-002  0.4542456E+03  0.7546771E-02  0.1026463E+00
         21   -1    0    0  502  501  0.00000000000E+00  0.00000000000E+00  0.10801223054E+04  0.10801223054E+04  0.00000000000E+00 0. -1.
         21   -1    0    0  501  502 -0.00000000000E+00 -0.00000000000E+00 -0.47758260234E+02  0.47758260234E+02  0.00000000000E+00 0. -1.
      99926    2    1    2    0    0  0.00000000000E+00  0.00000000000E+00  0.10323640451E+04  0.11278805656E+04  0.45424558179E+03 0.  0.
      99925    2    3    3    0    0  0.73437038927E+02 -0.71843509158E+02  0.53681005232E+03  0.60655940126E+03  0.26304901918E+03 0.  0.
         25    1    4    4    0    0 -0.29641489644E+01 -0.24547442649E+02  0.21959517805E+03  0.25393092258E+03  0.12509000000E+03 0.  0.
         25    1    4    4    0    0  0.76401187891E+02 -0.47296066509E+02  0.31721487427E+03  0.35262847868E+03  0.12509000000E+03 0.  0.
         25    1    3    3    0    0 -0.73437038927E+02  0.71843509158E+02  0.49555399280E+03  0.52132116432E+03  0.12509000000E+03 0.  0.
<mgrwt>
<rscale>  2 0.45424558E+03</rscale>
<asrwt>0</asrwt>
<pdfrwt beam="1">  1       21 0.15884150E+00 0.45424558E+03</pdfrwt>
<pdfrwt beam="2">  1       21 0.70232742E-02 0.45424558E+03</pdfrwt>
<totfact> 0.34733351E+04</totfact>
</mgrwt>
</event>
<event>
 7    0  0.4770865E-002  0.4524230E+03  0.7546771E-02  0.1027002E+00
         21   -1    0    0  502  501  0.00000000000E+00  0.00000000000E+00  0.75802173533E+02  0.75802173533E+02  0.00000000000E+00 0. -1.
         21   -1    0    0  501  502 -0.00000000000E+00 -0.00000000000E+00 -0.67506826155E+03  0.67506826155E+03  0.00000000000E+00 0. -1.
      99926    2    1    2    0    0  0.00000000000E+00  0.00000000000E+00 -0.59926608802E+03  0.75087043509E+03  0.45242299459E+03 0.  0.
      99925    2    3    3    0    0  0.63552190468E+02  0.72645768843E+02 -0.28692769824E+03  0.40084319833E+03  0.26273841931E+03 0.  0.
         25    1    4    4    0    0  0.52845213560E+01  0.53691191365E+02 -0.10657365340E+03  0.17296277604E+03  0.12509000000E+03 0.  0.
         25    1    3    3    0    0 -0.63552190468E+02 -0.72645768843E+02 -0.31233838978E+03  0.35002723676E+03  0.12509000000E+03 0.  0.
         25    1    4    4    0    0  0.58267669112E+02  0.18954577477E+02 -0.18035404484E+03  0.22788042229E+03  0.12509000000E+03 0.  0.
<mgrwt>
<rscale>  2 0.45242299E+03</rscale>
<asrwt>0</asrwt>
<pdfrwt beam="1">  1       21 0.11147378E-01 0.45242299E+03</pdfrwt>
<pdfrwt beam="2">  1       21 0.99274745E-01 0.45242299E+03</pdfrwt>
<totfact> 0.51256786E+04</totfact>
</mgrwt>
</event>
<event>
 7    0  0.4770865E-002  0.4495978E+03  0.7546771E-02  0.1027842E+00
         21   -1    0    0  502  501  0.00000000000E+00  0.00000000000E+00  0.14155841809E+03  0.14155841809E+03  0.00000000000E+00 0. -1.
         21   -1    0    0  501  502 -0.00000000000E+00 -0.00000000000E+00 -0.35698724804E+03  0.35698724804E+03  0.00000000000E+00 0. -1.
      99926    2    1    2    0    0  0.00000000000E+00  0.00000000000E+00 -0.21542882994E+03  0.49854566613E+03  0.44959782078E+03 0.  0.
      99925    2    3    3    0    0  0.46345754059E+02 -0.88674034503E+02 -0.18067019418E+03  0.33463506802E+03  0.26330191106E+03 0.  0.
         25    1    4    4    0    0  0.29423950756E+02 -0.14980063301E+02 -0.11972440336E+03  0.17627141582E+03  0.12509000000E+03 0.  0.
         25    1    4    4    0    0  0.16921803303E+02 -0.73693971202E+02 -0.60945790818E+02  0.15836365220E+03  0.12509000000E+03 0.  0.
         25    1    3    3    0    0 -0.46345754059E+02  0.88674034503E+02 -0.34758635763E+02  0.16391059812E+03  0.12509000000E+03 0.  0.
<mgrwt>
<rscale>  2 0.44959782E+03</rscale>
<asrwt>0</asrwt>
<pdfrwt beam="1">  1       21 0.20817415E-01 0.44959782E+03</pdfrwt>
<pdfrwt beam="2">  1       21 0.52498124E-01 0.44959782E+03</pdfrwt>
<totfact> 0.68253130E+04</totfact>
</mgrwt>
</event>
<event>
 7    0  0.4770865E-002  0.4303254E+03  0.7546771E-02  0.1033757E+00
         21   -1    0    0  502  501  0.00000000000E+00  0.00000000000E+00  0.93898470342E+02  0.93898470342E+02  0.00000000000E+00 0.  1.
         21   -1    0    0  501  502 -0.00000000000E+00 -0.00000000000E+00 -0.49303241509E+03  0.49303241509E+03  0.00000000000E+00 0.  1.
      99926    2    1    2    0    0  0.00000000000E+00  0.00000000000E+00 -0.39913394475E+03  0.58693088543E+03  0.43032540992E+03 0.  0.
      99925    2    3    3    0    0 -0.75514883247E+02  0.37220652449E+02 -0.22297181685E+03  0.35505057586E+03  0.26316649815E+03 0.  0.
         25    1    4    4    0    0 -0.31363895719E+02  0.56850710714E+02 -0.13123293618E+03  0.19257541095E+03  0.12509000000E+03 0.  0.
         25    1    3    3    0    0  0.75514883247E+02 -0.37220652449E+02 -0.17616212790E+03  0.23188030957E+03  0.12509000000E+03 0.  0.
         25    1    4    4    0    0 -0.44150987528E+02 -0.19630058265E+02 -0.91738880665E+02  0.16247516491E+03  0.12509000000E+03 0.  0.
<mgrwt>
<rscale>  2 0.43032541E+03</rscale>
<asrwt>0</asrwt>
<pdfrwt beam="1">  1       21 0.13808599E-01 0.43032541E+03</pdfrwt>
<pdfrwt beam="2">  1       21 0.72504766E-01 0.43032541E+03</pdfrwt>
<totfact> 0.72655733E+04</totfact>
</mgrwt>
</event>
<event>
 7    0  0.4770865E-002  0.4566360E+03  0.7546771E-02  0.1025761E+00
         21   -1    0    0  502  501  0.00000000000E+00  0.00000000000E+00  0.37075888603E+02  0.37075888603E+02  0.00000000000E+00 0. -1.
         21   -1    0    0  501  502 -0.00000000000E+00 -0.00000000000E+00 -0.14060107780E+04  0.14060107780E+04  0.00000000000E+00 0. -1.
      99926    2    1    2    0    0 -0.14210854715E-13  0.00000000000E+00 -0.13689348894E+04  0.14430866666E+04  0.45663595558E+03 0.  0.
      99925    2    3    3    0    0 -0.10049716483E+03  0.22860882370E+01 -0.68409178524E+03  0.73969311265E+03  0.26279159790E+03 0.  0.
         25    1    4    4    0    0 -0.84371361279E+02 -0.15723265972E+02 -0.41791233699E+03  0.44459417136E+03  0.12509000000E+03 0.  0.
         25    1    4    4    0    0 -0.16125803547E+02  0.18009354209E+02 -0.26617944825E+03  0.29509894128E+03  0.12509000000E+03 0.  0.
         25    1    3    3    0    0  0.10049716483E+03 -0.22860882370E+01 -0.68484310419E+03  0.70339355399E+03  0.12509000000E+03 0.  0.
<mgrwt>
<rscale>  2 0.45663596E+03</rscale>
<asrwt>0</asrwt>
<pdfrwt beam="1">  1       21 0.54523359E-02 0.45663596E+03</pdfrwt>
<pdfrwt beam="2">  1       21 0.20676632E+00 0.45663596E+03</pdfrwt>
<totfact> 0.24888242E+04</totfact>
</mgrwt>
</event>
<event>
 7    0  0.4770865E-002  0.4498119E+03  0.7546771E-02  0.1027778E+00
         21   -1    0    0  502  501  0.00000000000E+00  0.00000000000E+00  0.20817650661E+02  0.20817650661E+02  0.00000000000E+00 0.  1.
         21   -1    0    0  501  502 -0.00000000000E+00 -0.00000000000E+00 -0.24297976479E+04  0.24297976479E+04  0.00000000000E+00 0.  1.
      99926    2    1    2    0    0  0.00000000000E+00  0.00000000000E+00 -0.24089799973E+04  0.24506152986E+04  0.44981186561E+03 0.  0.
      99925    2    3    3    0    0  0.37805307223E+02  0.10035919965E+03 -0.16044443093E+04  0.16293806236E+04  0.26294194126E+03 0.  0.
         25    1    3    3    0    0 -0.37805307223E+02 -0.10035919965E+03 -0.80453568794E+03  0.82123467503E+03  0.12509000000E+03 0.  0.
         25    1    4    4    0    0  0.22460361821E+02  0.48852105698E+02 -0.57111248678E+03  0.58711836689E+03  0.12509000000E+03 0.  0.
         25    1    4    4    0    0  0.15344945403E+02  0.51507093955E+02 -0.10333318226E+04  0.10422622567E+04  0.12509000000E+03 0.  0.
<mgrwt>
<rscale>  2 0.44981187E+03</rscale>
<asrwt>0</asrwt>
<pdfrwt beam="1">  1       21 0.30614225E-02 0.44981187E+03</pdfrwt>
<pdfrwt beam="2">  1       21 0.35732280E+00 0.44981187E+03</pdfrwt>
<totfact> 0.79669772E+03</totfact>
</mgrwt>
</event>
<event>
 7    0  0.4770865E-002  0.4585965E+03  0.7546771E-02  0.1025189E+00
         21   -1    0    0  502  501  0.00000000000E+00  0.00000000000E+00  0.13379381684E+03  0.13379381684E+03  0.00000000000E+00 0. -1.
         21   -1    0    0  501  502 -0.00000000000E+00 -0.00000000000E+00 -0.39297542317E+03  0.39297542317E+03  0.00000000000E+00 0. -1.
      99926    2    1    2    0    0 -0.17763568394E-14  0.00000000000E+00 -0.25918160633E+03  0.52676924000E+03  0.45859647530E+03 0.  0.
      99925    2    3    3    0    0 -0.11607880934E+02 -0.74036426661E+02 -0.26510259317E+03  0.38082849327E+03  0.26293501290E+03 0.  0.
         25    1    4    4    0    0 -0.14155044622E+02 -0.11924733548E+02 -0.16987225823E+03  0.21177029247E+03  0.12509000000E+03 0.  0.
         25    1    4    4    0    0  0.25471636877E+01 -0.62111693113E+02 -0.95230334940E+02  0.16905820080E+03  0.12509000000E+03 0.  0.
         25    1    3    3    0    0  0.11607880934E+02  0.74036426661E+02  0.59209868365E+01  0.14594074673E+03  0.12509000000E+03 0.  0.
<mgrwt>
<rscale>  2 0.45859648E+03</rscale>
<asrwt>0</asrwt>
<pdfrwt beam="1">  1       21 0.19675561E-01 0.45859648E+03</pdfrwt>
<pdfrwt beam="2">  1       21 0.57790503E-01 0.45859648E+03</pdfrwt>
<totfact> 0.61649263E+04</totfact>
</mgrwt>
</event>
<event>
 7    0  0.4770865E-002  0.4587620E+03  0.7546771E-02  0.1025141E+00
         21   -1    0    0  502  501  0.00000000000E+00  0.00000000000E+00  0.11577967540E+03  0.11577967540E+03  0.00000000000E+00 0.  1.
         21   -1    0    0  501  502 -0.00000000000E+00 -0.00000000000E+00 -0.45444619137E+03  0.45444619137E+03  0.00000000000E+00 0.  1.
      99926    2    1    2    0    0  0.00000000000E+00  0.00000000000E+00 -0.33866651597E+03  0.57022586678E+03  0.45876195363E+03 0.  0.
      99925    2    3    3    0    0  0.59768838605E+02  0.29852533492E+02 -0.33122637355E+03  0.42821758658E+03  0.26305114160E+03 0.  0.
         25    1    4    4    0    0  0.65708998994E+02  0.32791602846E+02 -0.19670478223E+03  0.24440384862E+03  0.12509000000E+03 0.  0.
         25    1    3    3    0    0 -0.59768838605E+02 -0.29852533492E+02 -0.74401424177E+01  0.14200828019E+03  0.12509000000E+03 0.  0.
         25    1    4    4    0    0 -0.59401603890E+01 -0.29390693537E+01 -0.13452159132E+03  0.18381373797E+03  0.12509000000E+03 0.  0.
<mgrwt>
<rscale>  2 0.45876195E+03</rscale>
<asrwt>0</asrwt>
<pdfrwt beam="1">  1       21 0.17026423E-01 0.45876195E+03</pdfrwt>
<pdfrwt beam="2">  1       21 0.66830321E-01 0.45876195E+03</pdfrwt>
<totfact> 0.58781130E+04</totfact>
</mgrwt>
</event>
<event>
 7    0  0.4770865E-002  0.4458342E+03  0.7546771E-02  0.1028972E+00
         21   -1    0    0  502  501  0.00000000000E+00  0.00000000000E+00  0.34553470613E+02  0.34553470613E+02  0.00000000000E+00 0. -1.
         21   -1    0    0  501  502 -0.00000000000E+00 -0.00000000000E+00 -0.14381198825E+04  0.14381198825E+04  0.00000000000E+00 0. -1.
      99926    2    1    2    0    0  0.00000000000E+00  0.00000000000E+00 -0.14035664119E+04  0.14726733531E+04  0.44583419832E+03 0.  0.
      99925    2    3    3    0    0 -0.81961178411E+02  0.45170903102E+02 -0.73836737173E+03  0.78937596809E+03  0.26300189754E+03 0.  0.
         25    1    4    4    0    0 -0.53613648388E+02 -0.14859849053E+02 -0.38961001207E+03  0.41296332527E+03  0.12509000000E+03 0.  0.
         25    1    3    3    0    0  0.81961178411E+02 -0.45170903102E+02 -0.66519904015E+03  0.68329738502E+03  0.12509000000E+03 0.  0.
         25    1    4    4    0    0 -0.28347530023E+02  0.60030752155E+02 -0.34875735966E+03  0.37641264283E+03  0.12509000000E+03 0.  0.
<mgrwt>
<rscale>  2 0.44583420E+03</rscale>
<asrwt>0</asrwt>
<pdfrwt beam="1">  1       21 0.50813929E-02 0.44583420E+03</pdfrwt>
<pdfrwt beam="2">  1       21 0.21148821E+00 0.44583420E+03</pdfrwt>
<totfact> 0.26278744E+04</totfact>
</mgrwt>
</event>
<event>
 7    0  0.4770865E-002  0.4467294E+03  0.7546771E-02  0.1028702E+00
         21   -1    0    0  502  501  0.00000000000E+00  0.00000000000E+00  0.43015427254E+03  0.43015427254E+03  0.00000000000E+00 0. -1.
         21   -1    0    0  501  502 -0.00000000000E+00 -0.00000000000E+00 -0.11598582979E+03  0.11598582979E+03  0.00000000000E+00 0. -1.
      99926    2    1    2    0    0  0.00000000000E+00  0.00000000000E+00  0.31416844275E+03  0.54614010233E+03  0.44672944939E+03 0.  0.
      99925    2    3    3    0    0  0.53383520582E+02  0.86728294314E+02  0.23145897957E+03  0.36486693635E+03  0.26302666160E+03 0.  0.
         25    1    4    4    0    0  0.63641343864E+01  0.17088164718E+02  0.13984486821E+03  0.18851154565E+03  0.12509000000E+03 0.  0.
         25    1    4    4    0    0  0.47019386195E+02  0.69640129595E+02  0.91614111365E+02  0.17635539070E+03  0.12509000000E+03 0.  0.
         25    1    3    3    0    0 -0.53383520582E+02 -0.86728294314E+02  0.82709463181E+02  0.18127316598E+03  0.12509000000E+03 0.  0.
<mgrwt>
<rscale>  2 0.44672945E+03</rscale>
<asrwt>0</asrwt>
<pdfrwt beam="1">  1       21 0.63257980E-01 0.44672945E+03</pdfrwt>
<pdfrwt beam="2">  1       21 0.17056740E-01 0.44672945E+03</pdfrwt>
<totfact> 0.66359501E+04</totfact>
</mgrwt>
</event>
<event>
 7    0  0.4770865E-002  0.4592698E+03  0.7546771E-02  0.1024993E+00
         21   -1    0    0  502  501  0.00000000000E+00  0.00000000000E+00  0.35628412974E+03  0.35628412974E+03  0.00000000000E+00 0. -1.
         21   -1    0    0  501  502 -0.00000000000E+00 -0.00000000000E+00 -0.14800598064E+03  0.14800598064E+03  0.00000000000E+00 0. -1.
      99926    2    1    2    0    0  0.00000000000E+00  0.00000000000E+00  0.20827814909E+03  0.50429011038E+03  0.45926977697E+03 0.  0.
      99925    2    3    3    0    0  0.67673027588E+02  0.51466186963E+02  0.42004597257E+02  0.27951731576E+03  0.26293941613E+03 0.  0.
         25    1    4    4    0    0  0.56680245290E+02  0.39462444361E+02  0.54113296615E+02  0.15279297003E+03  0.12509000000E+03 0.  0.
         25    1    4    4    0    0  0.10992782297E+02  0.12003742602E+02 -0.12108699358E+02  0.12672434572E+03  0.12509000000E+03 0.  0.
         25    1    3    3    0    0 -0.67673027588E+02 -0.51466186963E+02  0.16627355184E+03  0.22477279463E+03  0.12509000000E+03 0.  0.
<mgrwt>
<rscale>  2 0.45926978E+03</rscale>
<asrwt>0</asrwt>
<pdfrwt beam="1">  1       21 0.52394725E-01 0.45926978E+03</pdfrwt>
<pdfrwt beam="2">  1       21 0.21765585E-01 0.45926978E+03</pdfrwt>
<totfact> 0.62814222E+04</totfact>
</mgrwt>
</event>
<event>
 7    0  0.4770865E-002  0.4591324E+03  0.7546771E-02  0.1025033E+00
         21   -1    0    0  502  501  0.00000000000E+00  0.00000000000E+00  0.20875086823E+03  0.20875086823E+03  0.00000000000E+00 0.  1.
         21   -1    0    0  501  502 -0.00000000000E+00 -0.00000000000E+00 -0.25245712391E+03  0.25245712391E+03  0.00000000000E+00 0.  1.
      99926    2    1    2    0    0  0.00000000000E+00  0.35527136788E-14 -0.43706255684E+02  0.46120799213E+03  0.45913241578E+03 0.  0.
      99925    2    3    3    0    0  0.10770677090E+03 -0.22902143327E+02 -0.66927879991E+02  0.29294626564E+03  0.26308347870E+03 0.  0.
         25    1    3    3    0    0 -0.10770677090E+03  0.22902143327E+02  0.23221624307E+02  0.16826172649E+03  0.12509000000E+03 0.  0.
         25    1    4    4    0    0  0.56240292531E+02  0.22107556252E+02 -0.94616440736E+01  0.13924347509E+03  0.12509000000E+03 0.  0.
         25    1    4    4    0    0  0.51466478370E+02 -0.45009699578E+02 -0.57466235917E+02  0.15370279055E+03  0.12509000000E+03 0.  0.
<mgrwt>
<rscale>  2 0.45913242E+03</rscale>
<asrwt>0</asrwt>
<pdfrwt beam="1">  1       21 0.30698657E-01 0.45913242E+03</pdfrwt>
<pdfrwt beam="2">  1       21 0.37126048E-01 0.45913242E+03</pdfrwt>
<totfact> 0.65893850E+04</totfact>
</mgrwt>
</event>
<event>
 7    0  0.4770865E-002  0.4754050E+03  0.7546771E-02  0.1020406E+00
         21   -1    0    0  502  501  0.00000000000E+00  0.00000000000E+00  0.11549023273E+03  0.11549023273E+03  0.00000000000E+00 0. -1.
         21   -1    0    0  501  502 -0.00000000000E+00 -0.00000000000E+00 -0.48924040404E+03  0.48924040404E+03  0.00000000000E+00 0. -1.
      99926    2    1    2    0    0  0.71054273576E-14  0.00000000000E+00 -0.37375017130E+03  0.60473063677E+03  0.47540504046E+03 0.  0.
      99925    2    3    3    0    0  0.59003572139E+02 -0.36395673496E+02 -0.37298456064E+03  0.46171259303E+03  0.26316338939E+03 0.  0.
         25    1    4    4    0    0  0.64377158653E+02  0.35174029466E+01 -0.19335811264E+03  0.23914777545E+03  0.12509000000E+03 0.  0.
         25    1    4    4    0    0 -0.53735865139E+01 -0.39913076443E+02 -0.17962644800E+03  0.22256481758E+03  0.12509000000E+03 0.  0.
         25    1    3    3    0    0 -0.59003572139E+02  0.36395673496E+02 -0.76561066535E+00  0.14301804374E+03  0.12509000000E+03 0.  0.
<mgrwt>
<rscale>  2 0.47540504E+03</rscale>
<asrwt>0</asrwt>
<pdfrwt beam="1">  1       21 0.16983858E-01 0.47540504E+03</pdfrwt>
<pdfrwt beam="2">  1       21 0.71947117E-01 0.47540504E+03</pdfrwt>
<totfact> 0.49851503E+04</totfact>
</mgrwt>
</event>
<event>
 7    0  0.4770865E-002  0.4547186E+03  0.7546771E-02  0.1026324E+00
         21   -1    0    0  502  501  0.00000000000E+00  0.00000000000E+00  0.23971055426E+03  0.23971055426E+03  0.00000000000E+00 0. -1.
         21   -1    0    0  501  502 -0.00000000000E+00 -0.00000000000E+00 -0.21564440681E+03  0.21564440681E+03  0.00000000000E+00 0. -1.
      99926    2    1    2    0    0  0.00000000000E+00  0.00000000000E+00  0.24066147442E+02  0.45535496107E+03  0.45471855154E+03 0.  0.
      99925    2    3    3    0    0 -0.96701830901E+02 -0.56433074496E+02  0.68245089217E+00  0.28585498655E+03  0.26301458439E+03 0.  0.
         25    1    4    4    0    0 -0.65613513372E+02 -0.54613971061E+02 -0.27452707422E+02  0.15391224193E+03  0.12509000000E+03 0.  0.
         25    1    3    3    0    0  0.96701830901E+02  0.56433074496E+02  0.23383696550E+02  0.16949997452E+03  0.12509000000E+03 0.  0.
         25    1    4    4    0    0 -0.31088317529E+02 -0.18191034353E+01  0.28135158315E+02  0.13194274462E+03  0.12509000000E+03 0.  0.
<mgrwt>
<rscale>  2 0.45471855E+03</rscale>
<asrwt>0</asrwt>
<pdfrwt beam="1">  1       21 0.35251552E-01 0.45471855E+03</pdfrwt>
<pdfrwt beam="2">  1       21 0.31712413E-01 0.45471855E+03</pdfrwt>
<totfact> 0.68673913E+04</totfact>
</mgrwt>
</event>
<event>
 7    0  0.4770865E-002  0.4774954E+03  0.7546771E-02  0.1019826E+00
         21   -1    0    0  502  501  0.00000000000E+00  0.00000000000E+00  0.22116788411E+03  0.22116788411E+03  0.00000000000E+00 0.  1.
         21   -1    0    0  501  502 -0.00000000000E+00 -0.00000000000E+00 -0.25772482704E+03  0.25772482704E+03  0.00000000000E+00 0.  1.
      99926    2    1    2    0    0  0.00000000000E+00 -0.17763568394E-14 -0.36556942930E+02  0.47889271114E+03  0.47749535988E+03 0.  0.
      99925    2    3    3    0    0 -0.62801840187E+02 -0.13234643031E+02 -0.13951810731E+03  0.30462930025E+03  0.26308645232E+03 0.  0.
         25    1    3    3    0    0  0.62801840187E+02  0.13234643031E+02  0.10296116438E+03  0.17426341090E+03  0.12509000000E+03 0.  0.
         25    1    4    4    0    0 -0.64211635415E+00 -0.26445325765E+02 -0.45392460492E+02  0.13567516773E+03  0.12509000000E+03 0.  0.
         25    1    4    4    0    0 -0.62159723833E+02  0.13210682734E+02 -0.94125646822E+02  0.16895413252E+03  0.12509000000E+03 0.  0.
<mgrwt>
<rscale>  2 0.47749536E+03</rscale>
<asrwt>0</asrwt>
<pdfrwt beam="1">  1       21 0.32524689E-01 0.47749536E+03</pdfrwt>
<pdfrwt beam="2">  1       21 0.37900710E-01 0.47749536E+03</pdfrwt>
<totfact> 0.56069820E+04</totfact>
</mgrwt>
</event>
<event>
 7    0  0.4770865E-002  0.4539796E+03  0.7546771E-02  0.1026542E+00
         21   -1    0    0  502  501  0.00000000000E+00  0.00000000000E+00  0.41067490725E+02  0.41067490725E+02  0.00000000000E+00 0.  1.
         21   -1    0    0  501  502 -0.00000000000E+00 -0.00000000000E+00 -0.12546268868E+04  0.12546268868E+04  0.00000000000E+00 0.  1.
      99926    2    1    2    0    0  0.00000000000E+00 -0.14210854715E-13 -0.12135593961E+04  0.12956943776E+04  0.45397963848E+03 0.  0.
      99925    2    3    3    0    0  0.42308025825E+02 -0.99479345632E+02 -0.67773695980E+03  0.73494550275E+03  0.26292849991E+03 0.  0.
         25    1    4    4    0    0 -0.18714154995E+02 -0.39840053194E+02 -0.33201503432E+03  0.35751774858E+03  0.12509000000E+03 0.  0.
         25    1    3    3    0    0 -0.42308025825E+02  0.99479345632E+02 -0.53582243631E+03  0.56074887482E+03  0.12509000000E+03 0.  0.
         25    1    4    4    0    0  0.61022180820E+02 -0.59639292438E+02 -0.34572192549E+03  0.37742775417E+03  0.12509000000E+03 0.  0.
<mgrwt>
<rscale>  2 0.45397964E+03</rscale>
<asrwt>0</asrwt>
<pdfrwt beam="1">  1       21 0.60393378E-02 0.45397964E+03</pdfrwt>
<pdfrwt beam="2">  1       21 0.18450393E+00 0.45397964E+03</pdfrwt>
<totfact> 0.29473204E+04</totfact>
</mgrwt>
</event>
<event>
 7    0  0.4770865E-002  0.4475602E+03  0.7546771E-02  0.1028452E+00
         21   -1    0    0  502  501  0.00000000000E+00  0.00000000000E+00  0.97428123660E+02  0.97428123660E+02  0.00000000000E+00 0. -1.
         21   -1    0    0  501  502 -0.00000000000E+00 -0.00000000000E+00 -0.51399460904E+03  0.51399460904E+03  0.00000000000E+00 0. -1.
      99926    2    1    2    0    0  0.00000000000E+00 -0.71054273576E-14 -0.41656648538E+03  0.61142273270E+03  0.44756018737E+03 0.  0.
      99925    2    3    3    0    0 -0.50474701817E+02  0.63652665900E+02 -0.35704699283E+03  0.45083183790E+03  0.26299702199E+03 0.  0.
         25    1    4    4    0    0  0.15855979388E+02  0.34054971955E+02 -0.16933789577E+03  0.21385505428E+03  0.12509000000E+03 0.  0.
         25    1    3    3    0    0  0.50474701817E+02 -0.63652665900E+02 -0.59519492553E+02  0.16059089480E+03  0.12509000000E+03 0.  0.
         25    1    4    4    0    0 -0.66330681205E+02  0.29597693945E+02 -0.18770909705E+03  0.23697678361E+03  0.12509000000E+03 0.  0.
<mgrwt>
<rscale>  2 0.44756019E+03</rscale>
<asrwt>0</asrwt>
<pdfrwt beam="1">  1       21 0.14327665E-01 0.44756019E+03</pdfrwt>
<pdfrwt beam="2">  1       21 0.75587443E-01 0.44756019E+03</pdfrwt>
<totfact> 0.61516515E+04</totfact>
</mgrwt>
</event>
<event>
 7    0  0.4770865E-002  0.4586188E+03  0.7546771E-02  0.1025183E+00
         21   -1    0    0  502  501  0.00000000000E+00  0.00000000000E+00  0.12311680585E+03  0.12311680585E+03  0.00000000000E+00 0. -1.
         21   -1    0    0  501  502 -0.00000000000E+00 -0.00000000000E+00 -0.42709686871E+03  0.42709686871E+03  0.00000000000E+00 0. -1.
      99926    2    1    2    0    0  0.14210854715E-13 -0.88817841970E-15 -0.30398006287E+03  0.55021367456E+03  0.45861880582E+03 0.  0.
      99925    2    3    3    0    0 -0.10294117849E+03  0.51407125244E+01 -0.25584786062E+03  0.38113520122E+03  0.26302585553E+03 0.  0.
         25    1    4    4    0    0 -0.86969802357E+02 -0.66663596032E+01 -0.16860012135E+03  0.22733608577E+03  0.12509000000E+03 0.  0.
         25    1    4    4    0    0 -0.15971376129E+02  0.11807072128E+02 -0.87247739265E+02  0.15379911545E+03  0.12509000000E+03 0.  0.
         25    1    3    3    0    0  0.10294117849E+03 -0.51407125244E+01 -0.48132202252E+02  0.16907847334E+03  0.12509000000E+03 0.  0.
<mgrwt>
<rscale>  2 0.45861881E+03</rscale>
<asrwt>0</asrwt>
<pdfrwt beam="1">  1       21 0.18105413E-01 0.45861881E+03</pdfrwt>
<pdfrwt beam="2">  1       21 0.62808363E-01 0.45861881E+03</pdfrwt>
<totfact> 0.60112687E+04</totfact>
</mgrwt>
</event>
<event>
 6    0  0.4770865E-002  0.4489587E+03  0.7546771E-02  0.1028033E+00
         21   -1    0    0  502  501  0.00000000000E+00  0.00000000000E+00  0.12294406719E+03  0.12294406719E+03  0.00000000000E+00 0.  1.
         21   -1    0    0  501  502 -0.00000000000E+00 -0.00000000000E+00 -0.40986911322E+03  0.40986911322E+03  0.00000000000E+00 0.  1.
      99926    2    1    2    0    0  0.00000000000E+00 -0.35527136788E-14 -0.28692504602E+03  0.53281318041E+03  0.44895868761E+03 0.  0.
         25    1    3    3    0    0  0.91504440249E+02  0.20193877950E+02 -0.48546481251E+02  0.16366161503E+03  0.12509000000E+03 0.  0.
         25    1    3    3    0    0 -0.54806860035E+02 -0.51056631414E+02 -0.14662205678E+03  0.20677549940E+03  0.12509000000E+03 0.  0.
         25    1    3    3    0    0 -0.36697580214E+02  0.30862753464E+02 -0.91756507995E+02  0.16237606598E+03  0.12509000000E+03 0.  0.
<mgrwt>
<rscale>  2 0.44895869E+03</rscale>
<asrwt>0</asrwt>
<pdfrwt beam="1">  1       21 0.18080010E-01 0.44895869E+03</pdfrwt>
<pdfrwt beam="2">  1       21 0.60274871E-01 0.44895869E+03</pdfrwt>
<totfact> 0.66122329E+04</totfact>
</mgrwt>
</event>
<event>
 7    0  0.4770865E-002  0.4570023E+03  0.7546771E-02  0.1025654E+00
         21   -1    0    0  502  501  0.00000000000E+00  0.00000000000E+00  0.11049113645E+03  0.11049113645E+03  0.00000000000E+00 0. -1.
         21   -1    0    0  501  502 -0.00000000000E+00 -0.00000000000E+00 -0.47255161269E+03  0.47255161269E+03  0.00000000000E+00 0. -1.
      99926    2    1    2    0    0  0.00000000000E+00  0.00000000000E+00 -0.36206047624E+03  0.58304274913E+03  0.45700225258E+03 0.  0.
      99925    2    3    3    0    0 -0.94881694801E+02 -0.61010294104E+02 -0.25637078457E+03  0.38418950923E+03  0.26296541184E+03 0.  0.
         25    1    4    4    0    0 -0.89019433729E+02 -0.24699888729E+02 -0.14739526427E+03  0.21426015989E+03  0.12509000000E+03 0.  0.
         25    1    3    3    0    0  0.94881694801E+02  0.61010294104E+02 -0.10568969167E+03  0.19885323990E+03  0.12509000000E+03 0.  0.
         25    1    4    4    0    0 -0.58622610727E+01 -0.36310405375E+02 -0.10897552030E+03  0.16992934934E+03  0.12509000000E+03 0.  0.
<mgrwt>
<rscale>  2 0.45700225E+03</rscale>
<asrwt>0</asrwt>
<pdfrwt beam="1">  1       21 0.16248696E-01 0.45700225E+03</pdfrwt>
<pdfrwt beam="2">  1       21 0.69492886E-01 0.45700225E+03</pdfrwt>
<totfact> 0.58798160E+04</totfact>
</mgrwt>
</event>
<event>
 7    0  0.4770865E-002  0.4655533E+03  0.7546771E-02  0.1023183E+00
         21   -1    0    0  502  501  0.00000000000E+00  0.00000000000E+00  0.28123058841E+02  0.28123058841E+02  0.00000000000E+00 0.  1.
         21   -1    0    0  501  502 -0.00000000000E+00 -0.00000000000E+00 -0.19267098151E+04  0.19267098151E+04  0.00000000000E+00 0.  1.
      99926    2    1    2    0    0  0.00000000000E+00  0.00000000000E+00 -0.18985867562E+04  0.19548328739E+04  0.46555332025E+03 0.  0.
      99925    2    3    3    0    0  0.12276093110E+03  0.21484888625E+01 -0.11620772809E+04  0.11977538968E+04  0.26289908396E+03 0.  0.
         25    1    4    4    0    0  0.74587417348E+02  0.72338916605E+01 -0.44636626945E+03  0.46958062845E+03  0.12509000000E+03 0.  0.
         25    1    4    4    0    0  0.48173513752E+02 -0.50854027981E+01 -0.71571101146E+03  0.72817326837E+03  0.12509000000E+03 0.  0.
         25    1    3    3    0    0 -0.12276093110E+03 -0.21484888625E+01 -0.73650947531E+03  0.75707897707E+03  0.12509000000E+03 0.  0.
<mgrwt>
<rscale>  2 0.46555332E+03</rscale>
<asrwt>0</asrwt>
<pdfrwt beam="1">  1       21 0.41357434E-02 0.46555332E+03</pdfrwt>
<pdfrwt beam="2">  1       21 0.28333972E+00 0.46555332E+03</pdfrwt>
<totfact> 0.13335424E+04</totfact>
</mgrwt>
</event>
<event>
 7    0  0.4770865E-002  0.4571309E+03  0.7546771E-02  0.1025617E+00
         21   -1    0    0  502  501  0.00000000000E+00  0.00000000000E+00  0.24318974436E+03  0.24318974436E+03  0.00000000000E+00 0. -1.
         21   -1    0    0  501  502 -0.00000000000E+00 -0.00000000000E+00 -0.21482062652E+03  0.21482062652E+03  0.00000000000E+00 0. -1.
      99926    2    1    2    0    0  0.00000000000E+00  0.35527136788E-14  0.28369117836E+02  0.45801037088E+03  0.45713093637E+03 0.  0.
      99925    2    3    3    0    0  0.44883784496E+02 -0.26953288369E+02  0.12063366192E+03  0.29399424954E+03  0.26294315832E+03 0.  0.
         25    1    4    4    0    0 -0.21526368363E+00 -0.36777528888E+02  0.33185016803E+02  0.13454139292E+03  0.12509000000E+03 0.  0.
         25    1    4    4    0    0  0.45099048180E+02  0.98242405190E+01  0.87448645120E+02  0.15945285661E+03  0.12509000000E+03 0.  0.
         25    1    3    3    0    0 -0.44883784496E+02  0.26953288369E+02 -0.92264544088E+02  0.16401612134E+03  0.12509000000E+03 0.  0.
<mgrwt>
<rscale>  2 0.45713094E+03</rscale>
<asrwt>0</asrwt>
<pdfrwt beam="1">  1       21 0.35763198E-01 0.45713094E+03</pdfrwt>
<pdfrwt beam="2">  1       21 0.31591269E-01 0.45713094E+03</pdfrwt>
<totfact> 0.67176409E+04</totfact>
</mgrwt>
</event>
<event>
 7    0  0.4770865E-002  0.4525212E+03  0.7546771E-02  0.1026973E+00
         21   -1    0    0  502  501  0.00000000000E+00  0.00000000000E+00  0.20556748964E+03  0.20556748964E+03  0.00000000000E+00 0. -1.
         21   -1    0    0  501  502 -0.00000000000E+00 -0.00000000000E+00 -0.24903671086E+03  0.24903671086E+03  0.00000000000E+00 0. -1.
      99926    2    1    2    0    0  0.35527136788E-14 -0.14210854715E-13 -0.43469221220E+02  0.45460420049E+03  0.45252116626E+03 0.  0.
      99925    2    3    3    0    0 -0.30890159458E+02  0.10446133919E+03 -0.97590313682E+01  0.28534032857E+03  0.26354789144E+03 0.  0.
         25    1    4    4    0    0 -0.28465587099E+02  0.75655530919E+02 -0.38383384340E+02  0.15380130461E+03  0.12509000000E+03 0.  0.
         25    1    3    3    0    0  0.30890159458E+02 -0.10446133919E+03 -0.33710189852E+02  0.16926387192E+03  0.12509000000E+03 0.  0.
         25    1    4    4    0    0 -0.24245723582E+01  0.28805808271E+02  0.28624352972E+02  0.13153902396E+03  0.12509000000E+03 0.  0.
<mgrwt>
<rscale>  2 0.45252117E+03</rscale>
<asrwt>0</asrwt>
<pdfrwt beam="1">  1       21 0.30230513E-01 0.45252117E+03</pdfrwt>
<pdfrwt beam="2">  1       21 0.36623046E-01 0.45252117E+03</pdfrwt>
<totfact> 0.69948002E+04</totfact>
</mgrwt>
</event>
<event>
 7    0  0.4770865E-002  0.4597337E+03  0.7546771E-02  0.1024858E+00
         21   -1    0    0  502  501  0.00000000000E+00  0.00000000000E+00  0.98742296876E+02  0.98742296876E+02  0.00000000000E+00 0.  1.
         21   -1    0    0  501  502 -0.00000000000E+00 -0.00000000000E+00 -0.53511798990E+03  0.53511798990E+03  0.00000000000E+00 0.  1.
      99926    2    1    2    0    0  0.00000000000E+00 -0.35527136788E-14 -0.43637569302E+03  0.63386028677E+03  0.45973374652E+03 0.  0.
      99925    2    3    3    0    0  0.31339334759E+02  0.25597841786E+02 -0.12118769933E+03  0.29235130757E+03  0.26295517710E+03 0.  0.
         25    1    3    3    0    0 -0.31339334759E+02 -0.25597841786E+02 -0.31518799370E+03  0.34150897921E+03  0.12509000000E+03 0.  0.
         25    1    4    4    0    0 -0.17072368496E+02  0.35887510274E+02 -0.66478479546E+02  0.14712673279E+03  0.12509000000E+03 0.  0.
         25    1    4    4    0    0  0.48411703255E+02 -0.10289668488E+02 -0.54709219779E+02  0.14522457477E+03  0.12509000000E+03 0.  0.
<mgrwt>
<rscale>  2 0.45973375E+03</rscale>
<asrwt>0</asrwt>
<pdfrwt beam="1">  1       21 0.14520926E-01 0.45973375E+03</pdfrwt>
<pdfrwt beam="2">  1       21 0.78693822E-01 0.45973375E+03</pdfrwt>
<totfact> 0.54573110E+04</totfact>
</mgrwt>
</event>
<event>
 7    0  0.4770865E-002  0.4683902E+03  0.7546771E-02  0.1022376E+00
         21   -1    0    0  502  501  0.00000000000E+00  0.00000000000E+00  0.96315389559E+03  0.96315389559E+03  0.00000000000E+00 0. -1.
         21   -1    0    0  501  502 -0.00000000000E+00 -0.00000000000E+00 -0.56945557666E+02  0.56945557666E+02  0.00000000000E+00 0. -1.
      99926    2    1    2    0    0 -0.71054273576E-14 -0.14210854715E-13  0.90620833792E+03  0.10200994533E+04  0.46839016088E+03 0.  0.
      99925    2    3    3    0    0  0.61070443710E+02  0.70530238380E+02  0.74576073146E+03  0.79628020444E+03  0.26305699339E+03 0.  0.
         25    1    4    4    0    0  0.40053688718E+02 -0.50738005726E+01  0.35246176444E+03  0.37617395567E+03  0.12509000000E+03 0.  0.
         25    1    3    3    0    0 -0.61070443710E+02 -0.70530238380E+02  0.16044760646E+03  0.22381924881E+03  0.12509000000E+03 0.  0.
         25    1    4    4    0    0  0.21016754992E+02  0.75604038953E+02  0.39329896702E+03  0.42010624877E+03  0.12509000000E+03 0.  0.
<mgrwt>
<rscale>  2 0.46839016E+03</rscale>
<asrwt>0</asrwt>
<pdfrwt beam="1">  1       21 0.14164027E+00 0.46839016E+03</pdfrwt>
<pdfrwt beam="2">  1       21 0.83743473E-02 0.46839016E+03</pdfrwt>
<totfact> 0.34629323E+04</totfact>
</mgrwt>
</event>
<event>
 7    0  0.4770865E-002  0.4487737E+03  0.7546771E-02  0.1028088E+00
         21   -1    0    0  502  501  0.00000000000E+00  0.00000000000E+00  0.55519520230E+02  0.55519520230E+02  0.00000000000E+00 0. -1.
         21   -1    0    0  501  502 -0.00000000000E+00 -0.00000000000E+00 -0.90687867672E+03  0.90687867672E+03  0.00000000000E+00 0. -1.
      99926    2    1    2    0    0  0.71054273576E-14 -0.71054273576E-14 -0.85135915649E+03  0.96239819695E+03  0.44877374717E+03 0.  0.
      99925    2    3    3    0    0  0.61746017194E+02 -0.34147504436E+02 -0.71193684650E+03  0.76223648402E+03  0.26300524990E+03 0.  0.
         25    1    4    4    0    0  0.38092387055E+02 -0.56885788247E+02 -0.35306447064E+03  0.38077427878E+03  0.12509000000E+03 0.  0.
         25    1    4    4    0    0  0.23653630139E+02  0.22738283811E+02 -0.35887237586E+03  0.38146220524E+03  0.12509000000E+03 0.  0.
         25    1    3    3    0    0 -0.61746017194E+02  0.34147504436E+02 -0.13942230999E+03  0.20016171292E+03  0.12509000000E+03 0.  0.
<mgrwt>
<rscale>  2 0.44877375E+03</rscale>
<asrwt>0</asrwt>
<pdfrwt beam="1">  1       21 0.81646357E-02 0.44877375E+03</pdfrwt>
<pdfrwt beam="2">  1       21 0.13336450E+00 0.44877375E+03</pdfrwt>
<totfact> 0.42683096E+04</totfact>
</mgrwt>
</event>
<event>
 7    0  0.4770865E-002  0.4416865E+03  0.7546771E-02  0.1030231E+00
         21   -1    0    0  502  501  0.00000000000E+00  0.00000000000E+00  0.12094993412E+03  0.12094993412E+03  0.00000000000E+00 0. -1.
         21   -1    0    0  501  502 -0.00000000000E+00 -0.00000000000E+00 -0.40323912103E+03  0.40323912103E+03  0.00000000000E+00 0. -1.
      99926    2    1    2    0    0  0.00000000000E+00  0.00000000000E+00 -0.28228918691E+03  0.52418905516E+03  0.44168651836E+03 0.  0.
      99925    2    3    3    0    0  0.12065356141E+02 -0.61613310942E+02 -0.27244441390E+03  0.38388153376E+03  0.26305379753E+03 0.  0.
         25    1    4    4    0    0  0.32594472748E+01 -0.23712610969E+00 -0.89953059196E+02  0.15410951036E+03  0.12509000000E+03 0.  0.
         25    1    4    4    0    0  0.88059088664E+01 -0.61376184832E+02 -0.18249135470E+03  0.22977202340E+03  0.12509000000E+03 0.  0.
         25    1    3    3    0    0 -0.12065356141E+02  0.61613310942E+02 -0.98447730133E+01  0.14030752139E+03  0.12509000000E+03 0.  0.
<mgrwt>
<rscale>  2 0.44168652E+03</rscale>
<asrwt>0</asrwt>
<pdfrwt beam="1">  1       21 0.17786756E-01 0.44168652E+03</pdfrwt>
<pdfrwt beam="2">  1       21 0.59299869E-01 0.44168652E+03</pdfrwt>
<totfact> 0.70775065E+04</totfact>
</mgrwt>
</event>
<event>
 7    0  0.4770865E-002  0.4640097E+03  0.7546771E-02  0.1023625E+00
         21   -1    0    0  502  501  0.00000000000E+00  0.00000000000E+00  0.64100347728E+03  0.64100347728E+03  0.00000000000E+00 0.  1.
         21   -1    0    0  501  502 -0.00000000000E+00 -0.00000000000E+00 -0.83971857941E+02  0.83971857941E+02  0.00000000000E+00 0.  1.
      99926    2    1    2    0    0 -0.14210854715E-13  0.00000000000E+00  0.55703161934E+03  0.72497533522E+03  0.46400971082E+03 0.  0.
      99925    2    3    3    0    0  0.95199869177E+02 -0.75102010370E+02  0.36106731472E+03  0.46276770024E+03  0.26283266841E+03 0.  0.
         25    1    4    4    0    0  0.88101912035E+02 -0.47870907120E+02  0.21884338133E+03  0.27128122733E+03  0.12509000000E+03 0.  0.
         25    1    4    4    0    0  0.70979571417E+01 -0.27231103250E+02  0.14222393339E+03  0.19148647291E+03  0.12509000000E+03 0.  0.
         25    1    3    3    0    0 -0.95199869177E+02  0.75102010370E+02  0.19596430462E+03  0.26220763497E+03  0.12509000000E+03 0.  0.
<mgrwt>
<rscale>  2 0.46400971E+03</rscale>
<asrwt>0</asrwt>
<pdfrwt beam="1">  1       21 0.94265215E-01 0.46400971E+03</pdfrwt>
<pdfrwt beam="2">  1       21 0.12348803E-01 0.46400971E+03</pdfrwt>
<totfact> 0.48070058E+04</totfact>
</mgrwt>
</event>
<event>
 7    0  0.4770865E-002  0.4432691E+03  0.7546771E-02  0.1029748E+00
         21   -1    0    0  502  501  0.00000000000E+00  0.00000000000E+00  0.25641836249E+03  0.25641836249E+03  0.00000000000E+00 0. -1.
         21   -1    0    0  501  502 -0.00000000000E+00 -0.00000000000E+00 -0.19156927891E+03  0.19156927891E+03  0.00000000000E+00 0. -1.
      99926    2    1    2    0    0  0.00000000000E+00  0.14210854715E-13  0.64849083576E+02  0.44798764141E+03  0.44326913181E+03 0.  0.
      99925    2    3    3    0    0 -0.32007107259E+02  0.90128925993E+02  0.76526458523E+02  0.29009037290E+03  0.26296092367E+03 0.  0.
         25    1    3    3    0    0  0.32007107259E+02 -0.90128925993E+02 -0.11677374947E+02  0.15789726851E+03  0.12509000000E+03 0.  0.
         25    1    4    4    0    0  0.14654156125E+02  0.70810313215E+02  0.31557439978E+02  0.14789261262E+03  0.12509000000E+03 0.  0.
         25    1    4    4    0    0 -0.46661263383E+02  0.19318612778E+02  0.44969018545E+02  0.14219776028E+03  0.12509000000E+03 0.  0.
<mgrwt>
<rscale>  2 0.44326913E+03</rscale>
<asrwt>0</asrwt>
<pdfrwt beam="1">  1       21 0.37708583E-01 0.44326913E+03</pdfrwt>
<pdfrwt beam="2">  1       21 0.28171953E-01 0.44326913E+03</pdfrwt>
<totfact> 0.75922835E+04</totfact>
</mgrwt>
</event>
<event>
 7    0  0.4770865E-002  0.4478689E+03  0.7546771E-02  0.1028359E+00
         21   -1    0    0  502  501  0.00000000000E+00  0.00000000000E+00  0.32070771451E+03  0.32070771451E+03  0.00000000000E+00 0. -1.
         21   -1    0    0  501  502 -0.00000000000E+00 -0.00000000000E+00 -0.15636245730E+03  0.15636245730E+03  0.00000000000E+00 0. -1.
      99926    2    1    2    0    0  0.00000000000E+00 -0.26645352591E-14  0.16434525721E+03  0.47707017180E+03  0.44786893759E+03 0.  0.
      99925    2    3    3    0    0  0.92736344567E+02  0.47105252196E+01  0.48631925092E+02  0.28301012444E+03  0.26288295446E+03 0.  0.
         25    1    4    4    0    0  0.39640359820E+02 -0.21221299918E+02 -0.88039877180E+01  0.13321681574E+03  0.12509000000E+03 0.  0.
         25    1    3    3    0    0 -0.92736344567E+02 -0.47105252196E+01  0.11571333212E+03  0.19406004736E+03  0.12509000000E+03 0.  0.
         25    1    4    4    0    0  0.53095984746E+02  0.25931825138E+02  0.57435912810E+02  0.14979330870E+03  0.12509000000E+03 0.  0.
<mgrwt>
<rscale>  2 0.44786894E+03</rscale>
<asrwt>0</asrwt>
<pdfrwt beam="1">  1       21 0.47162899E-01 0.44786894E+03</pdfrwt>
<pdfrwt beam="2">  1       21 0.22994479E-01 0.44786894E+03</pdfrwt>
<totfact> 0.70839690E+04</totfact>
</mgrwt>
</event>
<event>
 7    0  0.4770865E-002  0.4543915E+03  0.7546771E-02  0.1026421E+00
         21   -1    0    0  502  501  0.00000000000E+00  0.00000000000E+00  0.14051356068E+03  0.14051356068E+03  0.00000000000E+00 0. -1.
         21   -1    0    0  501  502 -0.00000000000E+00 -0.00000000000E+00 -0.36735174259E+03  0.36735174259E+03  0.00000000000E+00 0. -1.
      99926    2    1    2    0    0  0.14210854715E-13  0.17763568394E-14 -0.22683818191E+03  0.50786530327E+03  0.45439146723E+03 0.  0.
      99925    2    3    3    0    0 -0.10779339944E+03 -0.13458349830E+02 -0.10831830599E+03  0.30416205531E+03  0.26264263997E+03 0.  0.
         25    1    3    3    0    0  0.10779339944E+03  0.13458349830E+02 -0.11851987592E+03  0.20370324796E+03  0.12509000000E+03 0.  0.
         25    1    4    4    0    0 -0.25059954807E+02  0.15378145599E+02 -0.71552435176E+02  0.14707735304E+03  0.12509000000E+03 0.  0.
         25    1    4    4    0    0 -0.82733444634E+02 -0.28836495429E+02 -0.36765870815E+02  0.15708470227E+03  0.12509000000E+03 0.  0.
<mgrwt>
<rscale>  2 0.45439147E+03</rscale>
<asrwt>0</asrwt>
<pdfrwt beam="1">  1       21 0.20663759E-01 0.45439147E+03</pdfrwt>
<pdfrwt beam="2">  1       21 0.54022314E-01 0.45439147E+03</pdfrwt>
<totfact> 0.65035092E+04</totfact>
</mgrwt>
</event>
<event>
 7    0  0.4770865E-002  0.4557191E+03  0.7546771E-02  0.1026030E+00
         21   -1    0    0  502  501  0.00000000000E+00  0.00000000000E+00  0.85954443914E+03  0.85954443914E+03  0.00000000000E+00 0. -1.
         21   -1    0    0  501  502 -0.00000000000E+00 -0.00000000000E+00 -0.60404061328E+02  0.60404061328E+02  0.00000000000E+00 0. -1.
      99926    2    1    2    0    0 -0.35527136788E-14  0.71054273576E-14  0.79914037782E+03  0.91994850047E+03  0.45571910215E+03 0.  0.
      99925    2    3    3    0    0 -0.20912069520E+02  0.40390529882E+02  0.71315332281E+03  0.76148717622E+03  0.26307099451E+03 0.  0.
         25    1    4    4    0    0  0.16419315529E+02  0.49796103479E+02  0.34059933319E+03  0.36661241075E+03  0.12509000000E+03 0.  0.
         25    1    3    3    0    0  0.20912069520E+02 -0.40390529882E+02  0.85987055009E+02  0.15846132426E+03  0.12509000000E+03 0.  0.
         25    1    4    4    0    0 -0.37331385049E+02 -0.94055735969E+01  0.37255398961E+03  0.39487476546E+03  0.12509000000E+03 0.  0.
<mgrwt>
<rscale>  2 0.45571910E+03</rscale>
<asrwt>0</asrwt>
<pdfrwt beam="1">  1       21 0.12640359E+00 0.45571910E+03</pdfrwt>
<pdfrwt beam="2">  1       21 0.88829507E-02 0.45571910E+03</pdfrwt>
<totfact> 0.42144762E+04</totfact>
</mgrwt>
</event>
<event>
 7    0  0.4770865E-002  0.4547187E+03  0.7546771E-02  0.1026324E+00
         21   -1    0    0  502  501  0.00000000000E+00  0.00000000000E+00  0.64742254458E+03  0.64742254458E+03  0.00000000000E+00 0.  1.
         21   -1    0    0  501  502 -0.00000000000E+00 -0.00000000000E+00 -0.79843166223E+02  0.79843166223E+02  0.00000000000E+00 0.  1.
      99926    2    1    2    0    0  0.35527136788E-14  0.71054273576E-14  0.56757937836E+03  0.72726571080E+03  0.45471866398E+03 0.  0.
      99925    2    3    3    0    0  0.16693354326E+02  0.55747912423E+02  0.20283175138E+03  0.33729797201E+03  0.26314008576E+03 0.  0.
         25    1    4    4    0    0  0.39790396606E+02  0.15358035679E+02  0.72441607650E+02  0.15071310341E+03  0.12509000000E+03 0.  0.
         25    1    3    3    0    0 -0.16693354326E+02 -0.55747912423E+02  0.36474762697E+03  0.38996773879E+03  0.12509000000E+03 0.  0.
         25    1    4    4    0    0 -0.23097042280E+02  0.40389876744E+02  0.13039014373E+03  0.18658486859E+03  0.12509000000E+03 0.  0.
<mgrwt>
<rscale>  2 0.45471866E+03</rscale>
<asrwt>0</asrwt>
<pdfrwt beam="1">  1       21 0.95209195E-01 0.45471866E+03</pdfrwt>
<pdfrwt beam="2">  1       21 0.11741642E-01 0.45471866E+03</pdfrwt>
<totfact> 0.51561506E+04</totfact>
</mgrwt>
</event>
<event>
 7    0  0.4770865E-002  0.4551723E+03  0.7546771E-02  0.1026191E+00
         21   -1    0    0  502  501  0.00000000000E+00  0.00000000000E+00  0.76747478776E+03  0.76747478776E+03  0.00000000000E+00 0.  1.
         21   -1    0    0  501  502 -0.00000000000E+00 -0.00000000000E+00 -0.67488157875E+02  0.67488157875E+02  0.00000000000E+00 0.  1.
      99926    2    1    2    0    0  0.00000000000E+00  0.00000000000E+00  0.69998662989E+03  0.83496294564E+03  0.45517231744E+03 0.  0.
      99925    2    3    3    0    0  0.32560861726E+02 -0.10628313863E+03  0.47885870541E+03  0.55765196072E+03  0.26327501642E+03 0.  0.
         25    1    4    4    0    0  0.53267477808E+01 -0.72826660529E+02  0.18171907458E+03  0.23238207094E+03  0.12509000000E+03 0.  0.
         25    1    4    4    0    0  0.27234113946E+02 -0.33456478103E+02  0.29713963083E+03  0.32526988978E+03  0.12509000000E+03 0.  0.
         25    1    3    3    0    0 -0.32560861726E+02  0.10628313863E+03  0.22112792448E+03  0.27731098492E+03  0.12509000000E+03 0.  0.
<mgrwt>
<rscale>  2 0.45517232E+03</rscale>
<asrwt>0</asrwt>
<pdfrwt beam="1">  1       21 0.11286393E+00 0.45517232E+03</pdfrwt>
<pdfrwt beam="2">  1       21 0.99247295E-02 0.45517232E+03</pdfrwt>
<totfact> 0.46057414E+04</totfact>
</mgrwt>
</event>
<event>
 7    0  0.4770865E-002  0.4756303E+03  0.7546771E-02  0.1020343E+00
         21   -1    0    0  502  501  0.00000000000E+00  0.00000000000E+00  0.12809410517E+03  0.12809410517E+03  0.00000000000E+00 0. -1.
         21   -1    0    0  501  502 -0.00000000000E+00 -0.00000000000E+00 -0.44151949528E+03  0.44151949528E+03  0.00000000000E+00 0. -1.
      99926    2    1    2    0    0  0.00000000000E+00  0.00000000000E+00 -0.31342539011E+03  0.56961360045E+03  0.47563029619E+03 0.  0.
      99925    2    3    3    0    0 -0.10765594949E+03 -0.75415397886E+02 -0.18582847283E+03  0.34778987065E+03  0.26296061895E+03 0.  0.
         25    1    4    4    0    0 -0.45608052568E+02 -0.52337282334E+02 -0.13698807826E+03  0.19807202545E+03  0.12509000000E+03 0.  0.
         25    1    4    4    0    0 -0.62047896926E+02 -0.23078115552E+02 -0.48840394566E+02  0.14971784520E+03  0.12509000000E+03 0.  0.
         25    1    3    3    0    0  0.10765594949E+03  0.75415397886E+02 -0.12759691728E+03  0.22182372979E+03  0.12509000000E+03 0.  0.
<mgrwt>
<rscale>  2 0.47563030E+03</rscale>
<asrwt>0</asrwt>
<pdfrwt beam="1">  1       21 0.18837369E-01 0.47563030E+03</pdfrwt>
<pdfrwt beam="2">  1       21 0.64929336E-01 0.47563030E+03</pdfrwt>
<totfact> 0.51633969E+04</totfact>
</mgrwt>
</event>
<event>
 7    0  0.4770865E-002  0.4521905E+03  0.7546771E-02  0.1027071E+00
         21   -1    0    0  502  501  0.00000000000E+00  0.00000000000E+00  0.15558532875E+04  0.15558532875E+04  0.00000000000E+00 0. -1.
         21   -1    0    0  501  502 -0.00000000000E+00 -0.00000000000E+00 -0.32855959540E+02  0.32855959540E+02  0.00000000000E+00 0. -1.
      99926    2    1    2    0    0 -0.17763568394E-14  0.00000000000E+00  0.15229973279E+04  0.15887092470E+04  0.45219045839E+03 0.  0.
      99925    2    3    3    0    0  0.99946076621E+01 -0.38455238310E+02  0.59874559094E+03  0.65518502185E+03  0.26304454499E+03 0.  0.
         25    1    4    4    0    0  0.38340419449E+02 -0.18620735656E+01  0.33460552439E+03  0.35927958491E+03  0.12509000000E+03 0.  0.
         25    1    3    3    0    0 -0.99946076621E+01  0.38455238310E+02  0.92425173701E+03  0.93352422518E+03  0.12509000000E+03 0.  0.
         25    1    4    4    0    0 -0.28345811787E+02 -0.36593164744E+02  0.26414006656E+03  0.29590543694E+03  0.12509000000E+03 0.  0.
<mgrwt>
<rscale>  2 0.45219046E+03</rscale>
<asrwt>0</asrwt>
<pdfrwt beam="1">  1       21 0.22880190E+00 0.45219046E+03</pdfrwt>
<pdfrwt beam="2">  1       21 0.48317598E-02 0.45219046E+03</pdfrwt>
<totfact> 0.22165768E+04</totfact>
</mgrwt>
</event>
<event>
 7    0  0.4770865E-002  0.4608549E+03  0.7546771E-02  0.1024534E+00
         21   -1    0    0  502  501  0.00000000000E+00  0.00000000000E+00  0.12070034562E+03  0.12070034562E+03  0.00000000000E+00 0. -1.
         21   -1    0    0  501  502 -0.00000000000E+00 -0.00000000000E+00 -0.43990594916E+03  0.43990594916E+03  0.00000000000E+00 0. -1.
      99926    2    1    2    0    0  0.00000000000E+00  0.00000000000E+00 -0.31920560354E+03  0.56060629478E+03  0.46085485829E+03 0.  0.
      99925    2    3    3    0    0 -0.65845436244E+02 -0.99051926240E+02 -0.19807884654E+03  0.34973641801E+03  0.26255176074E+03 0.  0.
         25    1    4    4    0    0 -0.19828068812E+02 -0.50316122724E+02 -0.14291199627E+03  0.19747458393E+03  0.12509000000E+03 0.  0.
         25    1    4    4    0    0 -0.46017367432E+02 -0.48735803516E+02 -0.55166850265E+02  0.15226183408E+03  0.12509000000E+03 0.  0.
         25    1    3    3    0    0  0.65845436244E+02  0.99051926240E+02 -0.12112675701E+03  0.21086987677E+03  0.12509000000E+03 0.  0.
<mgrwt>
<rscale>  2 0.46085486E+03</rscale>
<asrwt>0</asrwt>
<pdfrwt beam="1">  1       21 0.17750051E-01 0.46085486E+03</pdfrwt>
<pdfrwt beam="2">  1       21 0.64692052E-01 0.46085486E+03</pdfrwt>
<totfact> 0.58418241E+04</totfact>
</mgrwt>
</event>
<event>
 7    0  0.4770865E-002  0.4546093E+03  0.7546771E-02  0.1026356E+00
         21   -1    0    0  502  501  0.00000000000E+00  0.00000000000E+00  0.22931487200E+03  0.22931487200E+03  0.00000000000E+00 0.  1.
         21   -1    0    0  501  502 -0.00000000000E+00 -0.00000000000E+00 -0.22531205357E+03  0.22531205357E+03  0.00000000000E+00 0.  1.
      99926    2    1    2    0    0  0.00000000000E+00 -0.71054273576E-14  0.40028184301E+01  0.45462692557E+03  0.45460930357E+03 0.  0.
      99925    2    3    3    0    0 -0.40593513421E+02  0.39171318997E+02 -0.95284526425E+02  0.28525245727E+03  0.26288323993E+03 0.  0.
         25    1    3    3    0    0  0.40593513421E+02 -0.39171318997E+02  0.99287344855E+02  0.16937446830E+03  0.12509000000E+03 0.  0.
         25    1    4    4    0    0 -0.17328106586E+02 -0.15921884280E+02 -0.66639358811E+02  0.14367352547E+03  0.12509000000E+03 0.  0.
         25    1    4    4    0    0 -0.23265406835E+02  0.55093203278E+02 -0.28645167614E+02  0.14157893180E+03  0.12509000000E+03 0.  0.
<mgrwt>
<rscale>  2 0.45460930E+03</rscale>
<asrwt>0</asrwt>
<pdfrwt beam="1">  1       21 0.33722776E-01 0.45460930E+03</pdfrwt>
<pdfrwt beam="2">  1       21 0.33134125E-01 0.45460930E+03</pdfrwt>
<totfact> 0.68787314E+04</totfact>
</mgrwt>
</event>
<event>
 7    0  0.4770865E-002  0.4565485E+03  0.7546771E-02  0.1025787E+00
         21   -1    0    0  502  501  0.00000000000E+00  0.00000000000E+00  0.26578718203E+03  0.26578718203E+03  0.00000000000E+00 0.  1.
         21   -1    0    0  501  502 -0.00000000000E+00 -0.00000000000E+00 -0.19605585479E+03  0.19605585479E+03  0.00000000000E+00 0.  1.
      99926    2    1    2    0    0 -0.17763568394E-14  0.00000000000E+00  0.69731327248E+02  0.46184303682E+03  0.45654849979E+03 0.  0.
      99925    2    3    3    0    0 -0.13899921189E+02 -0.86127215802E+02 -0.29885250936E+02  0.27968355763E+03  0.26404291142E+03 0.  0.
         25    1    3    3    0    0  0.13899921189E+02  0.86127215802E+02  0.99616578184E+02  0.18215947919E+03  0.12509000000E+03 0.  0.
         25    1    4    4    0    0 -0.45290635735E+02 -0.31974861724E+02 -0.28697281661E+02  0.13980227302E+03  0.12509000000E+03 0.  0.
         25    1    4    4    0    0  0.31390714546E+02 -0.54152354078E+02 -0.11879692750E+01  0.13988128461E+03  0.12509000000E+03 0.  0.
<mgrwt>
<rscale>  2 0.45654850E+03</rscale>
<asrwt>0</asrwt>
<pdfrwt beam="1">  1       21 0.39086350E-01 0.45654850E+03</pdfrwt>
<pdfrwt beam="2">  1       21 0.28831743E-01 0.45654850E+03</pdfrwt>
<totfact> 0.67212622E+04</totfact>
</mgrwt>
</event>
<event>
 7    0  0.4770865E-002  0.4592247E+03  0.7546771E-02  0.1025006E+00
         21   -1    0    0  502  501  0.00000000000E+00  0.00000000000E+00  0.81134244536E+02  0.81134244536E+02  0.00000000000E+00 0.  1.
         21   -1    0    0  501  502 -0.00000000000E+00 -0.00000000000E+00 -0.64980992501E+03  0.64980992501E+03  0.00000000000E+00 0.  1.
      99926    2    1    2    0    0  0.00000000000E+00  0.17763568394E-14 -0.56867568048E+03  0.73094416955E+03  0.45922472650E+03 0.  0.
      99925    2    3    3    0    0 -0.71434707210E+02  0.87141748732E+01 -0.50352664132E+03  0.57260668302E+03  0.26298380307E+03 0.  0.
         25    1    4    4    0    0 -0.75905312491E+02  0.16463511394E+02 -0.27114645710E+03  0.30854590091E+03  0.12509000000E+03 0.  0.
         25    1    4    4    0    0  0.44706052804E+01 -0.77493365204E+01 -0.23238018422E+03  0.26406078210E+03  0.12509000000E+03 0.  0.
         25    1    3    3    0    0  0.71434707210E+02 -0.87141748732E+01 -0.65149039157E+02  0.15833748653E+03  0.12509000000E+03 0.  0.
<mgrwt>
<rscale>  2 0.45922473E+03</rscale>
<asrwt>0</asrwt>
<pdfrwt beam="1">  1       21 0.11931507E-01 0.45922473E+03</pdfrwt>
<pdfrwt beam="2">  1       21 0.95560282E-01 0.45922473E+03</pdfrwt>
<totfact> 0.49586957E+04</totfact>
</mgrwt>
</event>
<event>
 7    0  0.4770865E-002  0.4520643E+03  0.7546771E-02  0.1027108E+00
         21   -1    0    0  502  501  0.00000000000E+00  0.00000000000E+00  0.70673428813E+03  0.70673428813E+03  0.00000000000E+00 0. -1.
         21   -1    0    0  501  502 -0.00000000000E+00 -0.00000000000E+00 -0.72290996914E+02  0.72290996914E+02  0.00000000000E+00 0. -1.
      99926    2    1    2    0    0  0.71054273576E-14  0.00000000000E+00  0.63444329121E+03  0.77902528504E+03  0.45206427084E+03 0.  0.
      99925    2    3    3    0    0 -0.59586873457E+02 -0.40323059960E+02  0.54471463460E+03  0.60909799303E+03  0.26288740425E+03 0.  0.
         25    1    4    4    0    0 -0.44309192382E+02  0.16357898081E+02  0.28916538607E+03  0.31858282119E+03  0.12509000000E+03 0.  0.
         25    1    3    3    0    0  0.59586873457E+02  0.40323059960E+02  0.89728656619E+02  0.16992729201E+03  0.12509000000E+03 0.  0.
         25    1    4    4    0    0 -0.15277681075E+02 -0.56680958041E+02  0.25554924853E+03  0.29051517183E+03  0.12509000000E+03 0.  0.
<mgrwt>
<rscale>  2 0.45206427E+03</rscale>
<asrwt>0</asrwt>
<pdfrwt beam="1">  1       21 0.10393151E+00 0.45206427E+03</pdfrwt>
<pdfrwt beam="2">  1       21 0.10631029E-01 0.45206427E+03</pdfrwt>
<totfact> 0.49936917E+04</totfact>
</mgrwt>
</event>
<event>
 7    0  0.4770865E-002  0.4543154E+03  0.7546771E-02  0.1026443E+00
         21   -1    0    0  502  501  0.00000000000E+00  0.00000000000E+00  0.37666838799E+03  0.37666838799E+03  0.00000000000E+00 0. -1.
         21   -1    0    0  501  502 -0.00000000000E+00 -0.00000000000E+00 -0.13699218937E+03  0.13699218937E+03  0.00000000000E+00 0. -1.
      99926    2    1    2    0    0  0.00000000000E+00  0.00000000000E+00  0.23967619862E+03  0.51366057736E+03  0.45431542847E+03 0.  0.
      99925    2    3    3    0    0  0.75301705018E+02  0.80207962501E+02  0.12415538268E+03  0.31093852370E+03  0.26299152542E+03 0.  0.
         25    1    4    4    0    0  0.25619749559E+02  0.63385464532E+02  0.97485715000E+02  0.17269933819E+03  0.12509000000E+03 0.  0.
         25    1    4    4    0    0  0.49681955459E+02  0.16822497969E+02  0.26669667684E+02  0.13823918551E+03  0.12509000000E+03 0.  0.
         25    1    3    3    0    0 -0.75301705018E+02 -0.80207962501E+02  0.11552081593E+03  0.20272205366E+03  0.12509000000E+03 0.  0.
<mgrwt>
<rscale>  2 0.45431543E+03</rscale>
<asrwt>0</asrwt>
<pdfrwt beam="1">  1       21 0.55392410E-01 0.45431543E+03</pdfrwt>
<pdfrwt beam="2">  1       21 0.20145910E-01 0.45431543E+03</pdfrwt>
<totfact> 0.64671835E+04</totfact>
</mgrwt>
</event>
<event>
 7    0  0.4770865E-002  0.4574885E+03  0.7546771E-02  0.1025512E+00
         21   -1    0    0  502  501  0.00000000000E+00  0.00000000000E+00  0.38259985340E+02  0.38259985340E+02  0.00000000000E+00 0. -1.
         21   -1    0    0  501  502 -0.00000000000E+00 -0.00000000000E+00 -0.13675888688E+04  0.13675888688E+04  0.00000000000E+00 0. -1.
      99926    2    1    2    0    0  0.14210854715E-13  0.00000000000E+00 -0.13293288834E+04  0.14058488541E+04  0.45748849196E+03 0.  0.
      99925    2    3    3    0    0 -0.89237770485E+02 -0.46266284905E+02 -0.65784087031E+03  0.71545215028E+03  0.26270367315E+03 0.  0.
         25    1    4    4    0    0 -0.86594108612E+02 -0.24485214075E+02 -0.34777551300E+03  0.38038583162E+03  0.12509000000E+03 0.  0.
         25    1    3    3    0    0  0.89237770485E+02  0.46266284905E+02 -0.67148801310E+03  0.69039670381E+03  0.12509000000E+03 0.  0.
         25    1    4    4    0    0 -0.26436618737E+01 -0.21781070830E+02 -0.31006535732E+03  0.33506631866E+03  0.12509000000E+03 0.  0.
<mgrwt>
<rscale>  2 0.45748849E+03</rscale>
<asrwt>0</asrwt>
<pdfrwt beam="1">  1       21 0.56264683E-02 0.45748849E+03</pdfrwt>
<pdfrwt beam="2">  1       21 0.20111601E+00 0.45748849E+03</pdfrwt>
<totfact> 0.25676424E+04</totfact>
</mgrwt>
</event>
<event>
 7    0  0.4770865E-002  0.4496963E+03  0.7546771E-02  0.1027813E+00
         21   -1    0    0  502  501  0.00000000000E+00  0.00000000000E+00  0.86848436460E+03  0.86848436460E+03  0.00000000000E+00 0.  1.
         21   -1    0    0  501  502 -0.00000000000E+00 -0.00000000000E+00 -0.58212544487E+02  0.58212544487E+02  0.00000000000E+00 0.  1.
      99926    2    1    2    0    0  0.00000000000E+00 -0.71054273576E-14  0.81027182012E+03  0.92669690909E+03  0.44969627399E+03 0.  0.
      99925    2    3    3    0    0 -0.14080786612E+02  0.59440655021E+02  0.32693418568E+03  0.42371158427E+03  0.26251492312E+03 0.  0.
         25    1    3    3    0    0  0.14080786612E+02 -0.59440655021E+02  0.48333763444E+03  0.50298532482E+03  0.12509000000E+03 0.  0.
         25    1    4    4    0    0 -0.23992567499E+02  0.35460772537E+02  0.22199665902E+03  0.25838563118E+03  0.12509000000E+03 0.  0.
         25    1    4    4    0    0  0.99117808867E+01  0.23979882483E+02  0.10493752666E+03  0.16532595309E+03  0.12509000000E+03 0.  0.
<mgrwt>
<rscale>  2 0.44969627E+03</rscale>
<asrwt>0</asrwt>
<pdfrwt beam="1">  1       21 0.12771828E+00 0.44969627E+03</pdfrwt>
<pdfrwt beam="2">  1       21 0.85606688E-02 0.44969627E+03</pdfrwt>
<totfact> 0.43891878E+04</totfact>
</mgrwt>
</event>
<event>
 7    0  0.4770865E-002  0.4570018E+03  0.7546771E-02  0.1025654E+00
         21   -1    0    0  502  501  0.00000000000E+00  0.00000000000E+00  0.76987700663E+03  0.76987700663E+03  0.00000000000E+00 0.  1.
         21   -1    0    0  501  502 -0.00000000000E+00 -0.00000000000E+00 -0.67819469350E+02  0.67819469350E+02  0.00000000000E+00 0.  1.
      99926    2    1    2    0    0  0.00000000000E+00  0.00000000000E+00  0.70205753728E+03  0.83769647598E+03  0.45700175078E+03 0.  0.
      99925    2    3    3    0    0 -0.70638012318E+02 -0.67749579202E+02  0.33024113911E+03  0.43337645877E+03  0.26301370837E+03 0.  0.
         25    1    3    3    0    0  0.70638012318E+02  0.67749579202E+02  0.37181639817E+03  0.40432001721E+03  0.12509000000E+03 0.  0.
         25    1    4    4    0    0 -0.47035053282E+02 -0.18197340091E+02  0.10922970926E+03  0.17355712866E+03  0.12509000000E+03 0.  0.
         25    1    4    4    0    0 -0.23602959036E+02 -0.49552239111E+02  0.22101142985E+03  0.25981933011E+03  0.12509000000E+03 0.  0.
<mgrwt>
<rscale>  2 0.45700175E+03</rscale>
<asrwt>0</asrwt>
<pdfrwt beam="1">  1       21 0.11321720E+00 0.45700175E+03</pdfrwt>
<pdfrwt beam="2">  1       21 0.99734518E-02 0.45700175E+03</pdfrwt>
<totfact> 0.45279565E+04</totfact>
</mgrwt>
</event>
<event>
 7    0  0.4770865E-002  0.4531211E+03  0.7546771E-02  0.1026795E+00
         21   -1    0    0  502  501  0.00000000000E+00  0.00000000000E+00  0.48108022852E+03  0.48108022852E+03  0.00000000000E+00 0.  1.
         21   -1    0    0  501  502 -0.00000000000E+00 -0.00000000000E+00 -0.10669673298E+03  0.10669673298E+03  0.00000000000E+00 0.  1.
      99926    2    1    2    0    0  0.17763568394E-14 -0.71054273576E-14  0.37438349553E+03  0.58777696150E+03  0.45312112591E+03 0.  0.
      99925    2    3    3    0    0  0.81639990683E+01  0.45087325822E+02  0.10482608972E+03  0.28709736299E+03  0.26331894903E+03 0.  0.
         25    1    4    4    0    0 -0.25383958872E+02 -0.27281906590E+01  0.65822288578E+02  0.14363798302E+03  0.12509000000E+03 0.  0.
         25    1    3    3    0    0 -0.81639990683E+01 -0.45087325822E+02  0.26955740581E+03  0.30067959851E+03  0.12509000000E+03 0.  0.
         25    1    4    4    0    0  0.33547957941E+02  0.47815516481E+02  0.39003801141E+02  0.14345937997E+03  0.12509000000E+03 0.  0.
<mgrwt>
<rscale>  2 0.45312113E+03</rscale>
<asrwt>0</asrwt>
<pdfrwt beam="1">  1       21 0.70747092E-01 0.45312113E+03</pdfrwt>
<pdfrwt beam="2">  1       21 0.15690696E-01 0.45312113E+03</pdfrwt>
<totfact> 0.60327927E+04</totfact>
</mgrwt>
</event>
<event>
 7    0  0.4770865E-002  0.4525442E+03  0.7546771E-02  0.1026966E+00
         21   -1    0    0  502  501  0.00000000000E+00  0.00000000000E+00  0.12091019185E+04  0.12091019185E+04  0.00000000000E+00 0.  1.
         21   -1    0    0  501  502 -0.00000000000E+00 -0.00000000000E+00 -0.42344710591E+02  0.42344710591E+02  0.00000000000E+00 0.  1.
      99926    2    1    2    0    0  0.00000000000E+00  0.71054273576E-14  0.11667572079E+04  0.12514466291E+04  0.45254423348E+03 0.  0.
      99925    2    3    3    0    0  0.97148229052E+02 -0.31706517218E+02  0.61708915131E+03  0.67853689607E+03  0.26300231373E+03 0.  0.
         25    1    4    4    0    0  0.77548166853E+02 -0.42720202053E+02  0.37518454352E+03  0.40527729228E+03  0.12509000000E+03 0.  0.
         25    1    3    3    0    0 -0.97148229052E+02  0.31706517218E+02  0.54966805659E+03  0.57290973301E+03  0.12509000000E+03 0.  0.
         25    1    4    4    0    0  0.19600062198E+02  0.11013684835E+02  0.24190460779E+03  0.27325960379E+03  0.12509000000E+03 0.  0.
<mgrwt>
<rscale>  2 0.45254423E+03</rscale>
<asrwt>0</asrwt>
<pdfrwt beam="1">  1       21 0.17780908E+00 0.45254423E+03</pdfrwt>
<pdfrwt beam="2">  1       21 0.62271641E-02 0.45254423E+03</pdfrwt>
<totfact> 0.31149230E+04</totfact>
</mgrwt>
</event>
<event>
 7    0  0.4770865E-002  0.4569226E+03  0.7546771E-02  0.1025678E+00
         21   -1    0    0  502  501  0.00000000000E+00  0.00000000000E+00  0.25202800384E+03  0.25202800384E+03  0.00000000000E+00 0. -1.
         21   -1    0    0  501  502 -0.00000000000E+00 -0.00000000000E+00 -0.20709826039E+03  0.20709826039E+03  0.00000000000E+00 0. -1.
      99926    2    1    2    0    0  0.00000000000E+00  0.00000000000E+00  0.44929743450E+02  0.45912626423E+03  0.45692258060E+03 0.  0.
      99925    2    3    3    0    0 -0.27969790734E+02 -0.29035445617E+02 -0.80265247159E+02  0.27761411569E+03  0.26268178664E+03 0.  0.
         25    1    4    4    0    0 -0.26167173758E+02 -0.27799269486E+02 -0.35034189916E+01  0.13083310900E+03  0.12509000000E+03 0.  0.
         25    1    4    4    0    0 -0.18026169765E+01 -0.12361761311E+01 -0.76761828168E+02  0.14678100668E+03  0.12509000000E+03 0.  0.
         25    1    3    3    0    0  0.27969790734E+02  0.29035445617E+02  0.12519499061E+03  0.18151214855E+03  0.12509000000E+03 0.  0.
<mgrwt>
<rscale>  2 0.45692258E+03</rscale>
<asrwt>0</asrwt>
<pdfrwt beam="1">  1       21 0.37062942E-01 0.45692258E+03</pdfrwt>
<pdfrwt beam="2">  1       21 0.30455626E-01 0.45692258E+03</pdfrwt>
<totfact> 0.67207692E+04</totfact>
</mgrwt>
</event>
<event>
 7    0  0.4770865E-002  0.4553703E+03  0.7546771E-02  0.1026133E+00
         21   -1    0    0  502  501  0.00000000000E+00  0.00000000000E+00  0.15649046947E+03  0.15649046947E+03  0.00000000000E+00 0. -1.
         21   -1    0    0  501  502 -0.00000000000E+00 -0.00000000000E+00 -0.33126957880E+03  0.33126957880E+03  0.00000000000E+00 0. -1.
      99926    2    1    2    0    0 -0.88817841970E-15  0.00000000000E+00 -0.17477910932E+03  0.48776004827E+03  0.45537031923E+03 0.  0.
      99925    2    3    3    0    0  0.20460551228E+01  0.14739663369E+02  0.11232202358E+02  0.26310662588E+03  0.26244521370E+03 0.  0.
         25    1    3    3    0    0 -0.20460551228E+01 -0.14739663369E+02 -0.18601131168E+03  0.22465342239E+03  0.12509000000E+03 0.  0.
         25    1    4    4    0    0 -0.34420484048E+02  0.56334641882E+01  0.23300923580E+02  0.13193538866E+03  0.12509000000E+03 0.  0.
         25    1    4    4    0    0  0.36466539170E+02  0.91061991809E+01 -0.12068721222E+02  0.13117123722E+03  0.12509000000E+03 0.  0.
<mgrwt>
<rscale>  2 0.45537032E+03</rscale>
<asrwt>0</asrwt>
<pdfrwt beam="1">  1       21 0.23013305E-01 0.45537032E+03</pdfrwt>
<pdfrwt beam="2">  1       21 0.48716114E-01 0.45537032E+03</pdfrwt>
<totfact> 0.65945338E+04</totfact>
</mgrwt>
</event>
<event>
 7    0  0.4770865E-002  0.4585547E+03  0.7546771E-02  0.1025201E+00
         21   -1    0    0  502  501  0.00000000000E+00  0.00000000000E+00  0.38688392301E+02  0.38688392301E+02  0.00000000000E+00 0. -1.
         21   -1    0    0  501  502 -0.00000000000E+00 -0.00000000000E+00 -0.13587565868E+04  0.13587565868E+04  0.00000000000E+00 0. -1.
      99926    2    1    2    0    0  0.00000000000E+00  0.00000000000E+00 -0.13200681945E+04  0.13974449791E+04  0.45855472027E+03 0.  0.
      99925    2    3    3    0    0 -0.91053387418E+02 -0.70743752432E+02 -0.85833781224E+03  0.90536993211E+03  0.26392331496E+03 0.  0.
         25    1    4    4    0    0 -0.47192907283E+02 -0.43899315837E+02 -0.30745648118E+03  0.33812914152E+03  0.12509000000E+03 0.  0.
         25    1    3    3    0    0  0.91053387418E+02  0.70743752432E+02 -0.46173038223E+03  0.49207504696E+03  0.12509000000E+03 0.  0.
         25    1    4    4    0    0 -0.43860480135E+02 -0.26844436594E+02 -0.55088133106E+03  0.56724079058E+03  0.12509000000E+03 0.  0.
<mgrwt>
<rscale>  2 0.45855472E+03</rscale>
<asrwt>0</asrwt>
<pdfrwt beam="1">  1       21 0.56894689E-02 0.45855472E+03</pdfrwt>
<pdfrwt beam="2">  1       21 0.19981717E+00 0.45855472E+03</pdfrwt>
<totfact> 0.25683308E+04</totfact>
</mgrwt>
</event>
<event>
 7    0  0.4770865E-002  0.4527957E+03  0.7546771E-02  0.1026892E+00
         21   -1    0    0  502  501  0.00000000000E+00  0.00000000000E+00  0.58936589995E+03  0.58936589995E+03  0.00000000000E+00 0. -1.
         21   -1    0    0  501  502 -0.00000000000E+00 -0.00000000000E+00 -0.86968006152E+02  0.86968006152E+02  0.00000000000E+00 0. -1.
      99926    2    1    2    0    0  0.14210854715E-13  0.00000000000E+00  0.50239789380E+03  0.67633390611E+03  0.45279565905E+03 0.  0.
      99925    2    3    3    0    0 -0.10932176413E+03  0.79059075253E+01  0.34441206221E+03  0.44694170360E+03  0.26291341985E+03 0.  0.
         25    1    4    4    0    0 -0.67153535891E+02  0.36685831596E+02  0.14624955133E+03  0.20710356585E+03  0.12509000000E+03 0.  0.
         25    1    3    3    0    0  0.10932176413E+03 -0.79059075253E+01  0.15798583160E+03  0.22939220251E+03  0.12509000000E+03 0.  0.
         25    1    4    4    0    0 -0.42168228242E+02 -0.28779924071E+02  0.19816251088E+03  0.23983813775E+03  0.12509000000E+03 0.  0.
<mgrwt>
<rscale>  2 0.45279566E+03</rscale>
<asrwt>0</asrwt>
<pdfrwt beam="1">  1       21 0.86671454E-01 0.45279566E+03</pdfrwt>
<pdfrwt beam="2">  1       21 0.12789413E-01 0.45279566E+03</pdfrwt>
<totfact> 0.55158702E+04</totfact>
</mgrwt>
</event>
<event>
 7    0  0.4770865E-002  0.4525220E+03  0.7546771E-02  0.1026973E+00
         21   -1    0    0  502  501  0.00000000000E+00  0.00000000000E+00  0.18268346474E+04  0.18268346474E+04  0.00000000000E+00 0.  1.
         21   -1    0    0  501  502 -0.00000000000E+00 -0.00000000000E+00 -0.28023353332E+02  0.28023353332E+02  0.00000000000E+00 0.  1.
      99926    2    1    2    0    0  0.00000000000E+00  0.00000000000E+00  0.17988112940E+04  0.18548580007E+04  0.45252196765E+03 0.  0.
      99925    2    3    3    0    0 -0.68721662905E+02 -0.43527039943E+02  0.82493855693E+03  0.86962052357E+03  0.26286681447E+03 0.  0.
         25    1    4    4    0    0 -0.34971870365E+01 -0.47944792152E+02  0.39738672653E+03  0.41937411929E+03  0.12509000000E+03 0.  0.
         25    1    4    4    0    0 -0.65224475869E+02  0.44177522087E+01  0.42755183040E+03  0.45024640428E+03  0.12509000000E+03 0.  0.
         25    1    3    3    0    0  0.68721662905E+02  0.43527039943E+02  0.97387273711E+03  0.98523747713E+03  0.12509000000E+03 0.  0.
<mgrwt>
<rscale>  2 0.45252197E+03</rscale>
<asrwt>0</asrwt>
<pdfrwt beam="1">  1       21 0.26865207E+00 0.45252197E+03</pdfrwt>
<pdfrwt beam="2">  1       21 0.41210826E-02 0.45252197E+03</pdfrwt>
<totfact> 0.16543606E+04</totfact>
</mgrwt>
</event>
<event>
 7    0  0.4770865E-002  0.4507190E+03  0.7546771E-02  0.1027508E+00
         21   -1    0    0  502  501  0.00000000000E+00  0.00000000000E+00  0.72602475653E+02  0.72602475653E+02  0.00000000000E+00 0.  1.
         21   -1    0    0  501  502 -0.00000000000E+00 -0.00000000000E+00 -0.69952019488E+03  0.69952019488E+03  0.00000000000E+00 0.  1.
      99926    2    1    2    0    0 -0.22204460493E-14  0.00000000000E+00 -0.62691771922E+03  0.77212267053E+03  0.45071897194E+03 0.  0.
      99925    2    3    3    0    0  0.20082724107E+01 -0.43821366522E+01 -0.58238729165E+03  0.63925543092E+03  0.26353237413E+03 0.  0.
         25    1    4    4    0    0  0.26725327558E+02 -0.11933180451E+02 -0.21689928377E+03  0.25209016508E+03  0.12509000000E+03 0.  0.
         25    1    4    4    0    0 -0.24717055148E+02  0.75510437989E+01 -0.36548800787E+03  0.38716526584E+03  0.12509000000E+03 0.  0.
         25    1    3    3    0    0 -0.20082724107E+01  0.43821366522E+01 -0.44530427577E+02  0.13286723960E+03  0.12509000000E+03 0.  0.
<mgrwt>
<rscale>  2 0.45071897E+03</rscale>
<asrwt>0</asrwt>
<pdfrwt beam="1">  1       21 0.10676835E-01 0.45071897E+03</pdfrwt>
<pdfrwt beam="2">  1       21 0.10287062E+00 0.45071897E+03</pdfrwt>
<totfact> 0.50829513E+04</totfact>
</mgrwt>
</event>
<event>
 7    0  0.4770865E-002  0.4497327E+03  0.7546771E-02  0.1027802E+00
         21   -1    0    0  502  501  0.00000000000E+00  0.00000000000E+00  0.20791041002E+03  0.20791041002E+03  0.00000000000E+00 0.  1.
         21   -1    0    0  501  502 -0.00000000000E+00 -0.00000000000E+00 -0.24320509875E+03  0.24320509875E+03  0.00000000000E+00 0.  1.
      99926    2    1    2    0    0 -0.35527136788E-14  0.00000000000E+00 -0.35294688733E+02  0.45111550878E+03  0.44973268416E+03 0.  0.
      99925    2    3    3    0    0  0.13633793209E+02  0.10113236638E+03 -0.58293204357E+02  0.28805087230E+03  0.26298587702E+03 0.  0.
         25    1    4    4    0    0 -0.27848940073E+02  0.69542926924E+02 -0.19626709788E+02  0.14712069190E+03  0.12509000000E+03 0.  0.
         25    1    4    4    0    0  0.41482733282E+02  0.31589439458E+02 -0.38666494569E+02  0.14093018040E+03  0.12509000000E+03 0.  0.
         25    1    3    3    0    0 -0.13633793209E+02 -0.10113236638E+03  0.22998515624E+02  0.16306463647E+03  0.12509000000E+03 0.  0.
<mgrwt>
<rscale>  2 0.44973268E+03</rscale>
<asrwt>0</asrwt>
<pdfrwt beam="1">  1       21 0.30575060E-01 0.44973268E+03</pdfrwt>
<pdfrwt beam="2">  1       21 0.35765456E-01 0.44973268E+03</pdfrwt>
<totfact> 0.71801796E+04</totfact>
</mgrwt>
</event>
<event>
 7    0  0.4770865E-002  0.4569835E+03  0.7546771E-02  0.1025660E+00
         21   -1    0    0  502  501  0.00000000000E+00  0.00000000000E+00  0.39592549040E+03  0.39592549040E+03  0.00000000000E+00 0.  1.
         21   -1    0    0  501  502 -0.00000000000E+00 -0.00000000000E+00 -0.13186440296E+03  0.13186440296E+03  0.00000000000E+00 0.  1.
      99926    2    1    2    0    0  0.00000000000E+00  0.71054273576E-14  0.26406108744E+03  0.52778989336E+03  0.45698349383E+03 0.  0.
      99925    2    3    3    0    0  0.78580932754E+02  0.33804514551E+02  0.25466566979E+03  0.37595613503E+03  0.26300323933E+03 0.  0.
         25    1    4    4    0    0  0.47154010953E+02  0.58745661531E+01  0.18013526939E+03  0.22439749254E+03  0.12509000000E+03 0.  0.
         25    1    4    4    0    0  0.31426921801E+02  0.27929948398E+02  0.74530400398E+02  0.15155864249E+03  0.12509000000E+03 0.  0.
         25    1    3    3    0    0 -0.78580932754E+02 -0.33804514551E+02  0.93954176481E+01  0.15183375833E+03  0.12509000000E+03 0.  0.
<mgrwt>
<rscale>  2 0.45698349E+03</rscale>
<asrwt>0</asrwt>
<pdfrwt beam="1">  1       21 0.58224336E-01 0.45698349E+03</pdfrwt>
<pdfrwt beam="2">  1       21 0.19391824E-01 0.45698349E+03</pdfrwt>
<totfact> 0.62369978E+04</totfact>
</mgrwt>
</event>
<event>
 7    0  0.4770865E-002  0.4523789E+03  0.7546771E-02  0.1027015E+00
         21   -1    0    0  502  501  0.00000000000E+00  0.00000000000E+00  0.23230919294E+03  0.23230919294E+03  0.00000000000E+00 0.  1.
         21   -1    0    0  501  502 -0.00000000000E+00 -0.00000000000E+00 -0.22023090927E+03  0.22023090927E+03  0.00000000000E+00 0.  1.
      99926    2    1    2    0    0  0.88817841970E-15  0.00000000000E+00  0.12078283667E+02  0.45254010221E+03  0.45237888896E+03 0.  0.
      99925    2    3    3    0    0  0.23304133429E+01 -0.94750980631E+02  0.64709088842E+02  0.28700856772E+03  0.26306552912E+03 0.  0.
         25    1    4    4    0    0  0.32956554913E+02 -0.24868575671E+02  0.16491282203E+02  0.13275560650E+03  0.12509000000E+03 0.  0.
         25    1    4    4    0    0 -0.30626141570E+02 -0.69882404960E+02  0.48217806639E+02  0.15425296123E+03  0.12509000000E+03 0.  0.
         25    1    3    3    0    0 -0.23304133429E+01  0.94750980631E+02 -0.52630805175E+02  0.16553153449E+03  0.12509000000E+03 0.  0.
<mgrwt>
<rscale>  2 0.45237889E+03</rscale>
<asrwt>0</asrwt>
<pdfrwt beam="1">  1       21 0.34163117E-01 0.45237889E+03</pdfrwt>
<pdfrwt beam="2">  1       21 0.32386898E-01 0.45237889E+03</pdfrwt>
<totfact> 0.70182720E+04</totfact>
</mgrwt>
</event>
<event>
 7    0  0.4770865E-002  0.4572879E+03  0.7546771E-02  0.1025571E+00
         21   -1    0    0  502  501  0.00000000000E+00  0.00000000000E+00  0.18640293728E+03  0.18640293728E+03  0.00000000000E+00 0. -1.
         21   -1    0    0  501  502 -0.00000000000E+00 -0.00000000000E+00 -0.28045731248E+03  0.28045731248E+03  0.00000000000E+00 0. -1.
      99926    2    1    2    0    0  0.00000000000E+00  0.00000000000E+00 -0.94054375194E+02  0.46686024976E+03  0.45728794792E+03 0.  0.
      99925    2    3    3    0    0 -0.85927824560E+02 -0.41593852233E+02 -0.12509440602E+03  0.30647125017E+03  0.26298740880E+03 0.  0.
         25    1    3    3    0    0  0.85927824560E+02  0.41593852233E+02  0.31040030826E+02  0.16038899959E+03  0.12509000000E+03 0.  0.
         25    1    4    4    0    0 -0.62081661125E+02 -0.23815909037E+02 -0.25749866774E+02  0.14398574204E+03  0.12509000000E+03 0.  0.
         25    1    4    4    0    0 -0.23846163436E+02 -0.17777943196E+02 -0.99344539246E+02  0.16248550813E+03  0.12509000000E+03 0.  0.
<mgrwt>
<rscale>  2 0.45728795E+03</rscale>
<asrwt>0</asrwt>
<pdfrwt beam="1">  1       21 0.27412197E-01 0.45728795E+03</pdfrwt>
<pdfrwt beam="2">  1       21 0.41243722E-01 0.45728795E+03</pdfrwt>
<totfact> 0.66455519E+04</totfact>
</mgrwt>
</event>
<event>
 7    0  0.4770865E-002  0.4540661E+03  0.7546771E-02  0.1026516E+00
         21   -1    0    0  502  501  0.00000000000E+00  0.00000000000E+00  0.65606366912E+03  0.65606366912E+03  0.00000000000E+00 0.  1.
         21   -1    0    0  501  502 -0.00000000000E+00 -0.00000000000E+00 -0.78565557675E+02  0.78565557675E+02  0.00000000000E+00 0.  1.
      99926    2    1    2    0    0 -0.71054273576E-14  0.00000000000E+00  0.57749811144E+03  0.73462922679E+03  0.45406610988E+03 0.  0.
      99925    2    3    3    0    0 -0.26630381170E+02  0.75567291348E+02  0.23641533962E+03  0.36260159602E+03  0.26299831160E+03 0.  0.
         25    1    4    4    0    0 -0.38757550042E+02  0.71151913236E+02  0.13398639401E+03  0.20041108832E+03  0.12509000000E+03 0.  0.
         25    1    4    4    0    0  0.12127168873E+02  0.44153781115E+01  0.10242894560E+03  0.16219050769E+03  0.12509000000E+03 0.  0.
         25    1    3    3    0    0  0.26630381170E+02 -0.75567291348E+02  0.34108277183E+03  0.37202763077E+03  0.12509000000E+03 0.  0.
<mgrwt>
<rscale>  2 0.45406611E+03</rscale>
<asrwt>0</asrwt>
<pdfrwt beam="1">  1       21 0.96479948E-01 0.45406611E+03</pdfrwt>
<pdfrwt beam="2">  1       21 0.11553759E-01 0.45406611E+03</pdfrwt>
<totfact> 0.51439507E+04</totfact>
</mgrwt>
</event>
<event>
 7    0  0.4770865E-002  0.4566287E+03  0.7546771E-02  0.1025764E+00
         21   -1    0    0  502  501  0.00000000000E+00  0.00000000000E+00  0.24839867440E+02  0.24839867440E+02  0.00000000000E+00 0.  1.
         21   -1    0    0  501  502 -0.00000000000E+00 -0.00000000000E+00 -0.20985397192E+04  0.20985397192E+04  0.00000000000E+00 0.  1.
      99926    2    1    2    0    0  0.00000000000E+00  0.00000000000E+00 -0.20736998518E+04  0.21233795866E+04  0.45662872640E+03 0.  0.
      99925    2    3    3    0    0  0.73381628622E+02 -0.23994724262E+02 -0.16972334766E+04  0.17192322744E+04  0.26305423256E+03 0.  0.
         25    1    3    3    0    0 -0.73381628622E+02  0.23994724262E+02 -0.37646637520E+03  0.40414731221E+03  0.12509000000E+03 0.  0.
         25    1    4    4    0    0  0.21693892168E+02 -0.44395427856E+02 -0.96336121717E+03  0.97270443703E+03  0.12509000000E+03 0.  0.
         25    1    4    4    0    0  0.51687736454E+02  0.20400703594E+02 -0.73387225940E+03  0.74652783740E+03  0.12509000000E+03 0.  0.
<mgrwt>
<rscale>  2 0.45662873E+03</rscale>
<asrwt>0</asrwt>
<pdfrwt beam="1">  1       21 0.36529228E-02 0.45662873E+03</pdfrwt>
<pdfrwt beam="2">  1       21 0.30860869E+00 0.45662873E+03</pdfrwt>
<totfact> 0.11650008E+04</totfact>
</mgrwt>
</event>
<event>
 7    0  0.4770865E-002  0.4484990E+03  0.7546771E-02  0.1028171E+00
         21   -1    0    0  502  501  0.00000000000E+00  0.00000000000E+00  0.13488268098E+03  0.13488268098E+03  0.00000000000E+00 0.  1.
         21   -1    0    0  501  502 -0.00000000000E+00 -0.00000000000E+00 -0.37282653072E+03  0.37282653072E+03  0.00000000000E+00 0.  1.
      99926    2    1    2    0    0  0.26645352591E-14  0.00000000000E+00 -0.23794384975E+03  0.50770921170E+03  0.44849901674E+03 0.  0.
      99925    2    3    3    0    0 -0.19818819218E+01 -0.10511559968E+03 -0.12839657592E+03  0.31098267446E+03  0.26300442194E+03 0.  0.
         25    1    3    3    0    0  0.19818819218E+01  0.10511559968E+03 -0.10954727383E+03  0.19672653724E+03  0.12509000000E+03 0.  0.
         25    1    4    4    0    0 -0.39435964532E+02 -0.50131485355E+02 -0.49945392440E+02  0.14903157870E+03  0.12509000000E+03 0.  0.
         25    1    4    4    0    0  0.37454082610E+02 -0.54984114321E+02 -0.78451183477E+02  0.16195109577E+03  0.12509000000E+03 0.  0.
<mgrwt>
<rscale>  2 0.44849902E+03</rscale>
<asrwt>0</asrwt>
<pdfrwt beam="1">  1       21 0.19835689E-01 0.44849902E+03</pdfrwt>
<pdfrwt beam="2">  1       21 0.54827430E-01 0.44849902E+03</pdfrwt>
<totfact> 0.68182712E+04</totfact>
</mgrwt>
</event>
<event>
 7    0  0.4770865E-002  0.4496029E+03  0.7546771E-02  0.1027841E+00
         21   -1    0    0  502  501  0.00000000000E+00  0.00000000000E+00  0.41178161075E+02  0.41178161075E+02  0.00000000000E+00 0.  1.
         21   -1    0    0  501  502 -0.00000000000E+00 -0.00000000000E+00 -0.12272448088E+04  0.12272448088E+04  0.00000000000E+00 0.  1.
      99926    2    1    2    0    0  0.00000000000E+00  0.00000000000E+00 -0.11860666477E+04  0.12684229699E+04  0.44960286661E+03 0.  0.
      99925    2    3    3    0    0  0.90640881505E+02 -0.49869974651E+02 -0.66281852549E+03  0.72057363904E+03  0.26304978194E+03 0.  0.
         25    1    4    4    0    0  0.41124788983E+02 -0.26792062786E+02 -0.22606144383E+03  0.26298354964E+03  0.12509000000E+03 0.  0.
         25    1    4    4    0    0  0.49516092523E+02 -0.23077911865E+02 -0.43675708166E+03  0.45759008940E+03  0.12509000000E+03 0.  0.
         25    1    3    3    0    0 -0.90640881505E+02  0.49869974651E+02 -0.52324812225E+03  0.54784933085E+03  0.12509000000E+03 0.  0.
<mgrwt>
<rscale>  2 0.44960287E+03</rscale>
<asrwt>0</asrwt>
<pdfrwt beam="1">  1       21 0.60556110E-02 0.44960287E+03</pdfrwt>
<pdfrwt beam="2">  1       21 0.18047720E+00 0.44960287E+03</pdfrwt>
<totfact> 0.31341355E+04</totfact>
</mgrwt>
</event>
<event>
 7    0  0.4770865E-002  0.4641845E+03  0.7546771E-02  0.1023575E+00
         21   -1    0    0  502  501  0.00000000000E+00  0.00000000000E+00  0.10238025507E+04  0.10238025507E+04  0.00000000000E+00 0. -1.
         21   -1    0    0  501  502 -0.00000000000E+00 -0.00000000000E+00 -0.52614443950E+02  0.52614443950E+02  0.00000000000E+00 0. -1.
      99926    2    1    2    0    0  0.00000000000E+00  0.00000000000E+00  0.97118810675E+03  0.10764169946E+04  0.46418445437E+03 0.  0.
      99925    2    3    3    0    0 -0.39512769187E+02 -0.10591651570E+03  0.50198881241E+03  0.57784397780E+03  0.26292836984E+03 0.  0.
         25    1    4    4    0    0 -0.47133208635E+02 -0.46763225934E+02  0.31245491019E+03  0.34305089660E+03  0.12509000000E+03 0.  0.
         25    1    4    4    0    0  0.76204394482E+01 -0.59153289761E+02  0.18953390222E+03  0.23479308120E+03  0.12509000000E+03 0.  0.
         25    1    3    3    0    0  0.39512769187E+02  0.10591651570E+03  0.46919929433E+03  0.49857301685E+03  0.12509000000E+03 0.  0.
<mgrwt>
<rscale>  2 0.46418445E+03</rscale>
<asrwt>0</asrwt>
<pdfrwt beam="1">  1       21 0.15055919E+00 0.46418445E+03</pdfrwt>
<pdfrwt beam="2">  1       21 0.77374189E-02 0.46418445E+03</pdfrwt>
<totfact> 0.33832250E+04</totfact>
</mgrwt>
</event>
<event>
 7    0  0.4770865E-002  0.4509486E+03  0.7546771E-02  0.1027440E+00
         21   -1    0    0  502  501  0.00000000000E+00  0.00000000000E+00  0.12076807936E+03  0.12076807936E+03  0.00000000000E+00 0.  1.
         21   -1    0    0  501  502 -0.00000000000E+00 -0.00000000000E+00 -0.42096098535E+03  0.42096098535E+03  0.00000000000E+00 0.  1.
      99926    2    1    2    0    0 -0.71054273576E-14  0.00000000000E+00 -0.30019290598E+03  0.54172906471E+03  0.45094855444E+03 0.  0.
      99925    2    3    3    0    0  0.35630025559E+02 -0.57998221117E+02 -0.29230740327E+03  0.39910024004E+03  0.26306670488E+03 0.  0.
         25    1    3    3    0    0 -0.35630025559E+02  0.57998221117E+02 -0.78855027151E+01  0.14262882467E+03  0.12509000000E+03 0.  0.
         25    1    4    4    0    0  0.34816246421E+02 -0.23870608458E+02 -0.93620525657E+02  0.16184649483E+03  0.12509000000E+03 0.  0.
         25    1    4    4    0    0  0.81377913806E+00 -0.34127612659E+02 -0.19868687761E+03  0.23725374521E+03  0.12509000000E+03 0.  0.
<mgrwt>
<rscale>  2 0.45094855E+03</rscale>
<asrwt>0</asrwt>
<pdfrwt beam="1">  1       21 0.17760012E-01 0.45094855E+03</pdfrwt>
<pdfrwt beam="2">  1       21 0.61906027E-01 0.45094855E+03</pdfrwt>
<totfact> 0.64458274E+04</totfact>
</mgrwt>
</event>
<event>
 7    0  0.4770865E-002  0.4577702E+03  0.7546771E-02  0.1025430E+00
         21   -1    0    0  502  501  0.00000000000E+00  0.00000000000E+00  0.31909496902E+03  0.31909496902E+03  0.00000000000E+00 0. -1.
         21   -1    0    0  501  502 -0.00000000000E+00 -0.00000000000E+00 -0.16417802630E+03  0.16417802630E+03  0.00000000000E+00 0. -1.
      99926    2    1    2    0    0  0.14210854715E-13  0.00000000000E+00  0.15491694272E+03  0.48327299531E+03  0.45777017034E+03 0.  0.
      99925    2    3    3    0    0 -0.11217180326E+03  0.25097780170E+02  0.11415076387E+03  0.30856809711E+03  0.26262418329E+03 0.  0.
         25    1    4    4    0    0 -0.29700173876E+02 -0.19565356274E+02  0.58684211610E+02  0.14267532473E+03  0.12509000000E+03 0.  0.
         25    1    3    3    0    0  0.11217180326E+03 -0.25097780170E+02  0.40766178852E+02  0.17470489820E+03  0.12509000000E+03 0.  0.
         25    1    4    4    0    0 -0.82471629383E+02  0.44663136445E+02  0.55466552259E+02  0.16589277239E+03  0.12509000000E+03 0.  0.
<mgrwt>
<rscale>  2 0.45777017E+03</rscale>
<asrwt>0</asrwt>
<pdfrwt beam="1">  1       21 0.46925731E-01 0.45777017E+03</pdfrwt>
<pdfrwt beam="2">  1       21 0.24143827E-01 0.45777017E+03</pdfrwt>
<totfact> 0.65021052E+04</totfact>
</mgrwt>
</event>
<event>
 7    0  0.4770865E-002  0.4508288E+03  0.7546771E-02  0.1027475E+00
         21   -1    0    0  502  501  0.00000000000E+00  0.00000000000E+00  0.10845806590E+04  0.10845806590E+04  0.00000000000E+00 0. -1.
         21   -1    0    0  501  502 -0.00000000000E+00 -0.00000000000E+00 -0.46849120438E+02  0.46849120438E+02  0.00000000000E+00 0. -1.
      99926    2    1    2    0    0  0.00000000000E+00  0.00000000000E+00  0.10377315386E+04  0.11314297795E+04  0.45082879198E+03 0.  0.
      99925    2    3    3    0    0 -0.24065725144E+02  0.10629350017E+03  0.67147939846E+03  0.72935316295E+03  0.26304749844E+03 0.  0.
         25    1    4    4    0    0 -0.41702564717E+02  0.46780745896E+02  0.26683074733E+03  0.30128673703E+03  0.12509000000E+03 0.  0.
         25    1    3    3    0    0  0.24065725144E+02 -0.10629350017E+03  0.36625214012E+03  0.40207661651E+03  0.12509000000E+03 0.  0.
         25    1    4    4    0    0  0.17636839573E+02  0.59512754270E+02  0.40464865114E+03  0.42806642592E+03  0.12509000000E+03 0.  0.
<mgrwt>
<rscale>  2 0.45082879E+03</rscale>
<asrwt>0</asrwt>
<pdfrwt beam="1">  1       21 0.15949714E+00 0.45082879E+03</pdfrwt>
<pdfrwt beam="2">  1       21 0.68895773E-02 0.45082879E+03</pdfrwt>
<totfact> 0.35550418E+04</totfact>
</mgrwt>
</event>
<event>
 7    0  0.4770865E-002  0.4528613E+03  0.7546771E-02  0.1026872E+00
         21   -1    0    0  502  501  0.00000000000E+00  0.00000000000E+00  0.15732431993E+03  0.15732431993E+03  0.00000000000E+00 0. -1.
         21   -1    0    0  501  502 -0.00000000000E+00 -0.00000000000E+00 -0.32589258411E+03  0.32589258411E+03  0.00000000000E+00 0. -1.
      99926    2    1    2    0    0  0.00000000000E+00  0.14210854715E-13 -0.16856826418E+03  0.48321690404E+03  0.45286125542E+03 0.  0.
      99925    2    3    3    0    0 -0.59984828468E+02 -0.92170104622E+02 -0.12318649493E+03  0.31058863025E+03  0.26305299252E+03 0.  0.
         25    1    4    4    0    0  0.23099892711E+01 -0.17500706222E+02 -0.62241050004E+02  0.14082992287E+03  0.12509000000E+03 0.  0.
         25    1    4    4    0    0 -0.62294817739E+02 -0.74669398400E+02 -0.60945444926E+02  0.16975870738E+03  0.12509000000E+03 0.  0.
         25    1    3    3    0    0  0.59984828468E+02  0.92170104622E+02 -0.45381769253E+02  0.17262827379E+03  0.12509000000E+03 0.  0.
<mgrwt>
<rscale>  2 0.45286126E+03</rscale>
<asrwt>0</asrwt>
<pdfrwt beam="1">  1       21 0.23135930E-01 0.45286126E+03</pdfrwt>
<pdfrwt beam="2">  1       21 0.47925379E-01 0.45286126E+03</pdfrwt>
<totfact> 0.67607235E+04</totfact>
</mgrwt>
</event>
<event>
 7    0  0.4770865E-002  0.4488598E+03  0.7546771E-02  0.1028063E+00
         21   -1    0    0  502  501  0.00000000000E+00  0.00000000000E+00  0.40529944133E+03  0.40529944133E+03  0.00000000000E+00 0. -1.
         21   -1    0    0  501  502 -0.00000000000E+00 -0.00000000000E+00 -0.12427547236E+03  0.12427547236E+03  0.00000000000E+00 0. -1.
      99926    2    1    2    0    0  0.00000000000E+00  0.14210854715E-13  0.28102396896E+03  0.52957491369E+03  0.44885979780E+03 0.  0.
      99925    2    3    3    0    0 -0.66283750538E+01  0.97788439561E+02  0.22901815230E+03  0.36236657857E+03  0.26316099429E+03 0.  0.
         25    1    4    4    0    0 -0.27827638706E+02  0.15749673665E+02  0.11757920178E+03  0.17462762235E+03  0.12509000000E+03 0.  0.
         25    1    4    4    0    0  0.21199263652E+02  0.82038765897E+02  0.11143895051E+03  0.18773895622E+03  0.12509000000E+03 0.  0.
         25    1    3    3    0    0  0.66283750538E+01 -0.97788439561E+02  0.52005816667E+02  0.16720833512E+03  0.12509000000E+03 0.  0.
<mgrwt>
<rscale>  2 0.44885980E+03</rscale>
<asrwt>0</asrwt>
<pdfrwt beam="1">  1       21 0.59602858E-01 0.44885980E+03</pdfrwt>
<pdfrwt beam="2">  1       21 0.18275805E-01 0.44885980E+03</pdfrwt>
<totfact> 0.66406046E+04</totfact>
</mgrwt>
</event>
<event>
 7    0  0.4770865E-002  0.4633524E+03  0.7546771E-02  0.1023813E+00
         21   -1    0    0  502  501  0.00000000000E+00  0.00000000000E+00  0.95005153449E+03  0.95005153449E+03  0.00000000000E+00 0. -1.
         21   -1    0    0  501  502 -0.00000000000E+00 -0.00000000000E+00 -0.56495733179E+02  0.56495733179E+02  0.00000000000E+00 0. -1.
      99926    2    1    2    0    0  0.00000000000E+00  0.14210854715E-13  0.89355580131E+03  0.10065472677E+04  0.46335238425E+03 0.  0.
      99925    2    3    3    0    0 -0.18648123186E+02  0.11877063638E+03  0.58534479374E+03  0.65285849225E+03  0.26294765028E+03 0.  0.
         25    1    4    4    0    0  0.42055211524E+01  0.60346525139E+02  0.37780972202E+03  0.40255072185E+03  0.12509000000E+03 0.  0.
         25    1    4    4    0    0 -0.22853644338E+02  0.58424111243E+02  0.20753507171E+03  0.25030777041E+03  0.12509000000E+03 0.  0.
         25    1    3    3    0    0  0.18648123186E+02 -0.11877063638E+03  0.30821100757E+03  0.35368877541E+03  0.12509000000E+03 0.  0.
<mgrwt>
<rscale>  2 0.46335238E+03</rscale>
<asrwt>0</asrwt>
<pdfrwt beam="1">  1       21 0.13971345E+00 0.46335238E+03</pdfrwt>
<pdfrwt beam="2">  1       21 0.83081967E-02 0.46335238E+03</pdfrwt>
<totfact> 0.36475257E+04</totfact>
</mgrwt>
</event>
<event>
 7    0  0.4770865E-002  0.4540986E+03  0.7546771E-02  0.1026507E+00
         21   -1    0    0  502  501  0.00000000000E+00  0.00000000000E+00  0.25562163969E+03  0.25562163969E+03  0.00000000000E+00 0. -1.
         21   -1    0    0  501  502 -0.00000000000E+00 -0.00000000000E+00 -0.20167069454E+03  0.20167069454E+03  0.00000000000E+00 0. -1.
      99926    2    1    2    0    0  0.00000000000E+00  0.00000000000E+00  0.53950945156E+02  0.45729233423E+03  0.45409863958E+03 0.  0.
      99925    2    3    3    0    0  0.14149136770E+02 -0.73405729082E+02 -0.50429633412E+02  0.27803996350E+03  0.26301040710E+03 0.  0.
         25    1    4    4    0    0 -0.94197505055E+01 -0.30095819018E+02  0.12455592127E+02  0.12960378041E+03  0.12509000000E+03 0.  0.
         25    1    4    4    0    0  0.23568887276E+02 -0.43309910064E+02 -0.62885225539E+02  0.14843618308E+03  0.12509000000E+03 0.  0.
         25    1    3    3    0    0 -0.14149136770E+02  0.73405729082E+02  0.10438057857E+03  0.17925237074E+03  0.12509000000E+03 0.  0.
<mgrwt>
<rscale>  2 0.45409864E+03</rscale>
<asrwt>0</asrwt>
<pdfrwt beam="1">  1       21 0.37591418E-01 0.45409864E+03</pdfrwt>
<pdfrwt beam="2">  1       21 0.29657455E-01 0.45409864E+03</pdfrwt>
<totfact> 0.68872030E+04</totfact>
</mgrwt>
</event>
<event>
 7    0  0.4770865E-002  0.4547278E+03  0.7546771E-02  0.1026321E+00
         21   -1    0    0  502  501  0.00000000000E+00  0.00000000000E+00  0.11648616582E+03  0.11648616582E+03  0.00000000000E+00 0.  1.
         21   -1    0    0  501  502 -0.00000000000E+00 -0.00000000000E+00 -0.44378100181E+03  0.44378100181E+03  0.00000000000E+00 0.  1.
      99926    2    1    2    0    0  0.35527136788E-14  0.35527136788E-14 -0.32729483599E+03  0.56026716763E+03  0.45472781910E+03 0.  0.
      99925    2    3    3    0    0 -0.20372326845E+02 -0.30699931648E+02 -0.73754339445E+02  0.27515699772E+03  0.26251505348E+03 0.  0.
         25    1    3    3    0    0  0.20372326845E+02  0.30699931648E+02 -0.25354049654E+03  0.28511016992E+03  0.12509000000E+03 0.  0.
         25    1    4    4    0    0  0.20110101590E+02 -0.12934293083E+02 -0.94018970532E+01  0.12770127600E+03  0.12509000000E+03 0.  0.
         25    1    4    4    0    0 -0.40482428435E+02 -0.17765638565E+02 -0.64352442392E+02  0.14745572172E+03  0.12509000000E+03 0.  0.
<mgrwt>
<rscale>  2 0.45472782E+03</rscale>
<asrwt>0</asrwt>
<pdfrwt beam="1">  1       21 0.17130319E-01 0.45472782E+03</pdfrwt>
<pdfrwt beam="2">  1       21 0.65261911E-01 0.45472782E+03</pdfrwt>
<totfact> 0.61325026E+04</totfact>
</mgrwt>
</event>
<event>
 7    0  0.4770865E-002  0.4446036E+03  0.7546771E-02  0.1029344E+00
         21   -1    0    0  502  501  0.00000000000E+00  0.00000000000E+00  0.35902809070E+03  0.35902809070E+03  0.00000000000E+00 0.  1.
         21   -1    0    0  501  502 -0.00000000000E+00 -0.00000000000E+00 -0.13764410420E+03  0.13764410420E+03  0.00000000000E+00 0.  1.
      99926    2    1    2    0    0  0.00000000000E+00  0.71054273576E-14  0.22138398649E+03  0.49667219490E+03  0.44460364339E+03 0.  0.
      99925    2    3    3    0    0 -0.21733420981E+02 -0.50377696316E+02  0.23807182181E+03  0.35906316242E+03  0.26313097194E+03 0.  0.
         25    1    4    4    0    0 -0.10782160262E+02  0.88265164186E+01  0.14458741659E+03  0.19169556987E+03  0.12509000000E+03 0.  0.
         25    1    3    3    0    0  0.21733420981E+02  0.50377696316E+02 -0.16687835312E+02  0.13760903248E+03  0.12509000000E+03 0.  0.
         25    1    4    4    0    0 -0.10951260719E+02 -0.59204212735E+02  0.93484405218E+02  0.16736759255E+03  0.12509000000E+03 0.  0.
<mgrwt>
<rscale>  2 0.44460364E+03</rscale>
<asrwt>0</asrwt>
<pdfrwt beam="1">  1       21 0.52798249E-01 0.44460364E+03</pdfrwt>
<pdfrwt beam="2">  1       21 0.20241780E-01 0.44460364E+03</pdfrwt>
<totfact> 0.71201916E+04</totfact>
</mgrwt>
</event>
<event>
 7    0  0.4770865E-002  0.4525544E+03  0.7546771E-02  0.1026963E+00
         21   -1    0    0  502  501  0.00000000000E+00  0.00000000000E+00  0.90277655372E+03  0.90277655372E+03  0.00000000000E+00 0.  1.
         21   -1    0    0  501  502 -0.00000000000E+00 -0.00000000000E+00 -0.56715448315E+02  0.56715448315E+02  0.00000000000E+00 0.  1.
      99926    2    1    2    0    0  0.00000000000E+00  0.00000000000E+00  0.84606110541E+03  0.95949200204E+03  0.45255442534E+03 0.  0.
      99925    2    3    3    0    0 -0.82696350854E+02 -0.72795159168E+02  0.50852942107E+03  0.58304417342E+03  0.26305990652E+03 0.  0.
         25    1    4    4    0    0 -0.74448719210E+02 -0.49304793328E+02  0.22902214584E+03  0.27581193923E+03  0.12509000000E+03 0.  0.
         25    1    4    4    0    0 -0.82476316445E+01 -0.23490365840E+02  0.27950727524E+03  0.30723223419E+03  0.12509000000E+03 0.  0.
         25    1    3    3    0    0  0.82696350854E+02  0.72795159168E+02  0.33753168434E+03  0.37644782862E+03  0.12509000000E+03 0.  0.
<mgrwt>
<rscale>  2 0.45255443E+03</rscale>
<asrwt>0</asrwt>
<pdfrwt beam="1">  1       21 0.13276125E+00 0.45255443E+03</pdfrwt>
<pdfrwt beam="2">  1       21 0.83405077E-02 0.45255443E+03</pdfrwt>
<totfact> 0.41547637E+04</totfact>
</mgrwt>
</event>
<event>
 7    0  0.4770865E-002  0.4555511E+03  0.7546771E-02  0.1026079E+00
         21   -1    0    0  502  501  0.00000000000E+00  0.00000000000E+00  0.55598195624E+03  0.55598195624E+03  0.00000000000E+00 0. -1.
         21   -1    0    0  501  502 -0.00000000000E+00 -0.00000000000E+00 -0.93315451815E+02  0.93315451815E+02  0.00000000000E+00 0. -1.
      99926    2    1    2    0    0  0.00000000000E+00 -0.35527136788E-14  0.46266650442E+03  0.64929740805E+03  0.45555112752E+03 0.  0.
      99925    2    3    3    0    0 -0.99269873807E+02 -0.23520680928E+02  0.36190769781E+03  0.45901452525E+03  0.26326682734E+03 0.  0.
         25    1    3    3    0    0  0.99269873807E+02  0.23520680928E+02  0.10075880661E+03  0.19028288280E+03  0.12509000000E+03 0.  0.
         25    1    4    4    0    0 -0.63447033574E+02 -0.24097033223E+02  0.24870316089E+03  0.28654312663E+03  0.12509000000E+03 0.  0.
         25    1    4    4    0    0 -0.35822840233E+02  0.57635229505E+00  0.11320453692E+03  0.17247139862E+03  0.12509000000E+03 0.  0.
<mgrwt>
<rscale>  2 0.45555113E+03</rscale>
<asrwt>0</asrwt>
<pdfrwt beam="1">  1       21 0.81762051E-01 0.45555113E+03</pdfrwt>
<pdfrwt beam="2">  1       21 0.13722861E-01 0.45555113E+03</pdfrwt>
<totfact> 0.55500279E+04</totfact>
</mgrwt>
</event>
<event>
 7    0  0.4770865E-002  0.4505406E+03  0.7546771E-02  0.1027561E+00
         21   -1    0    0  502  501  0.00000000000E+00  0.00000000000E+00  0.46297260194E+02  0.46297260194E+02  0.00000000000E+00 0. -1.
         21   -1    0    0  501  502 -0.00000000000E+00 -0.00000000000E+00 -0.10961059977E+04  0.10961059977E+04  0.00000000000E+00 0. -1.
      99926    2    1    2    0    0  0.00000000000E+00 -0.71054273576E-14 -0.10498087375E+04  0.11424032579E+04  0.45054058452E+03 0.  0.
      99925    2    3    3    0    0 -0.78799191182E+02 -0.63665901483E+02 -0.56135774785E+03  0.62811293430E+03  0.26294614966E+03 0.  0.
         25    1    4    4    0    0 -0.29571971992E+02 -0.63218915602E+02 -0.34277498380E+03  0.37150145415E+03  0.12509000000E+03 0.  0.
         25    1    4    4    0    0 -0.49227219190E+02 -0.44698588168E+00 -0.21858276405E+03  0.25661148015E+03  0.12509000000E+03 0.  0.
         25    1    3    3    0    0  0.78799191182E+02  0.63665901483E+02 -0.48845098964E+03  0.51429032358E+03  0.12509000000E+03 0.  0.
<mgrwt>
<rscale>  2 0.45054058E+03</rscale>
<asrwt>0</asrwt>
<pdfrwt beam="1">  1       21 0.68084209E-02 0.45054058E+03</pdfrwt>
<pdfrwt beam="2">  1       21 0.16119205E+00 0.45054058E+03</pdfrwt>
<totfact> 0.35246263E+04</totfact>
</mgrwt>
</event>
<event>
 7    0  0.4770865E-002  0.4503978E+03  0.7546771E-02  0.1027603E+00
         21   -1    0    0  502  501  0.00000000000E+00  0.00000000000E+00  0.46769262164E+03  0.46769262164E+03  0.00000000000E+00 0.  1.
         21   -1    0    0  501  502 -0.00000000000E+00 -0.00000000000E+00 -0.10843563190E+03  0.10843563190E+03  0.00000000000E+00 0.  1.
      99926    2    1    2    0    0  0.17763568394E-14  0.00000000000E+00  0.35925698973E+03  0.57612825354E+03  0.45039780179E+03 0.  0.
      99925    2    3    3    0    0 -0.95170457345E+01 -0.10058749992E+03  0.17534296898E+03  0.33183274717E+03  0.26298174087E+03 0.  0.
         25    1    4    4    0    0  0.22204847809E+02 -0.30816937199E+02  0.11157591141E+03  0.17187039009E+03  0.12509000000E+03 0.  0.
         25    1    4    4    0    0 -0.31721893544E+02 -0.69770562718E+02  0.63767057570E+02  0.15996235708E+03  0.12509000000E+03 0.  0.
         25    1    3    3    0    0  0.95170457345E+01  0.10058749992E+03  0.18391402076E+03  0.24429550636E+03  0.12509000000E+03 0.  0.
<mgrwt>
<rscale>  2 0.45039780E+03</rscale>
<asrwt>0</asrwt>
<pdfrwt beam="1">  1       21 0.68778326E-01 0.45039780E+03</pdfrwt>
<pdfrwt beam="2">  1       21 0.15946417E-01 0.45039780E+03</pdfrwt>
<totfact> 0.62412416E+04</totfact>
</mgrwt>
</event>
<event>
 7    0  0.4770865E-002  0.4530515E+03  0.7546771E-02  0.1026816E+00
         21   -1    0    0  502  501  0.00000000000E+00  0.00000000000E+00  0.34343194388E+03  0.34343194388E+03  0.00000000000E+00 0.  1.
         21   -1    0    0  501  502 -0.00000000000E+00 -0.00000000000E+00 -0.14941509575E+03  0.14941509575E+03  0.00000000000E+00 0.  1.
      99926    2    1    2    0    0  0.00000000000E+00  0.00000000000E+00  0.19401684813E+03  0.49284703962E+03  0.45305150602E+03 0.  0.
      99925    2    3    3    0    0 -0.29645520112E+02  0.72594235694E+02  0.20835287794E+03  0.34451696928E+03  0.26293010565E+03 0.  0.
         25    1    3    3    0    0  0.29645520112E+02 -0.72594235694E+02 -0.14336029810E+02  0.14833007035E+03  0.12509000000E+03 0.  0.
         25    1    4    4    0    0 -0.96680919871E+01  0.39481149030E+02  0.15460226659E+03  0.20298177767E+03  0.12509000000E+03 0.  0.
         25    1    4    4    0    0 -0.19977428125E+02  0.33113086664E+02  0.53750611353E+02  0.14153519161E+03  0.12509000000E+03 0.  0.
<mgrwt>
<rscale>  2 0.45305151E+03</rscale>
<asrwt>0</asrwt>
<pdfrwt beam="1">  1       21 0.50504698E-01 0.45305151E+03</pdfrwt>
<pdfrwt beam="2">  1       21 0.21972808E-01 0.45305151E+03</pdfrwt>
<totfact> 0.66803525E+04</totfact>
</mgrwt>
</event>
<event>
 7    0  0.4770865E-002  0.4577926E+03  0.7546771E-02  0.1025423E+00
         21   -1    0    0  502  501  0.00000000000E+00  0.00000000000E+00  0.10258736787E+03  0.10258736787E+03  0.00000000000E+00 0.  1.
         21   -1    0    0  501  502 -0.00000000000E+00 -0.00000000000E+00 -0.51072086290E+03  0.51072086290E+03  0.00000000000E+00 0.  1.
      99926    2    1    2    0    0  0.00000000000E+00 -0.71054273576E-14 -0.40813349503E+03  0.61330823077E+03  0.45779256893E+03 0.  0.
      99925    2    3    3    0    0  0.31031267739E+02  0.36386946038E+02 -0.11500943986E+03  0.29104099812E+03  0.26304133119E+03 0.  0.
         25    1    3    3    0    0 -0.31031267739E+02 -0.36386946038E+02 -0.29312405517E+03  0.32226723265E+03  0.12509000000E+03 0.  0.
         25    1    4    4    0    0  0.26939743867E+02  0.40423235156E+02 -0.24195423432E+02  0.13635510388E+03  0.12509000000E+03 0.  0.
         25    1    4    4    0    0  0.40915238724E+01 -0.40362891181E+01 -0.90814016426E+02  0.15468589424E+03  0.12509000000E+03 0.  0.
<mgrwt>
<rscale>  2 0.45779257E+03</rscale>
<asrwt>0</asrwt>
<pdfrwt beam="1">  1       21 0.15086378E-01 0.45779257E+03</pdfrwt>
<pdfrwt beam="2">  1       21 0.75106009E-01 0.45779257E+03</pdfrwt>
<totfact> 0.56607568E+04</totfact>
</mgrwt>
</event>
<event>
 7    0  0.4770865E-002  0.4581525E+03  0.7546771E-02  0.1025318E+00
         21   -1    0    0  502  501  0.00000000000E+00  0.00000000000E+00  0.64161755146E+02  0.64161755146E+02  0.00000000000E+00 0. -1.
         21   -1    0    0  501  502 -0.00000000000E+00 -0.00000000000E+00 -0.81786931034E+03  0.81786931034E+03  0.00000000000E+00 0. -1.
      99926    2    1    2    0    0  0.00000000000E+00 -0.35527136788E-14 -0.75370755519E+03  0.88203106549E+03  0.45815250924E+03 0.  0.
      99925    2    3    3    0    0  0.29757196099E+02  0.17936920183E+02 -0.26118639859E+03  0.37268656357E+03  0.26357108346E+03 0.  0.
         25    1    3    3    0    0 -0.29757196099E+02 -0.17936920183E+02 -0.49252115661E+03  0.50934450191E+03  0.12509000000E+03 0.  0.
         25    1    4    4    0    0 -0.25594988906E+02  0.17922224497E+02 -0.12094663212E+03  0.17678208481E+03  0.12509000000E+03 0.  0.
         25    1    4    4    0    0  0.55352185005E+02  0.14695685546E-01 -0.14023976646E+03  0.19590447876E+03  0.12509000000E+03 0.  0.
<mgrwt>
<rscale>  2 0.45815251E+03</rscale>
<asrwt>0</asrwt>
<pdfrwt beam="1">  1       21 0.94355524E-02 0.45815251E+03</pdfrwt>
<pdfrwt beam="2">  1       21 0.12027490E+00 0.45815251E+03</pdfrwt>
<totfact> 0.42949492E+04</totfact>
</mgrwt>
</event>
<event>
 7    0  0.4770865E-002  0.4470689E+03  0.7546771E-02  0.1028600E+00
         21   -1    0    0  502  501  0.00000000000E+00  0.00000000000E+00  0.91566098601E+02  0.91566098601E+02  0.00000000000E+00 0. -1.
         21   -1    0    0  501  502 -0.00000000000E+00 -0.00000000000E+00 -0.54570037176E+03  0.54570037176E+03  0.00000000000E+00 0. -1.
      99926    2    1    2    0    0  0.71054273576E-14  0.00000000000E+00 -0.45413427316E+03  0.63726647036E+03  0.44706891660E+03 0.  0.
      99925    2    3    3    0    0 -0.33152382519E+02 -0.96512609626E+02 -0.24858432355E+03  0.37590072247E+03  0.26285627814E+03 0.  0.
         25    1    3    3    0    0  0.33152382519E+02  0.96512609626E+02 -0.20554994961E+03  0.26136574789E+03  0.12509000000E+03 0.  0.
         25    1    4    4    0    0 -0.33527825951E+02 -0.61155337912E+02 -0.17637498512E+03  0.22719976660E+03  0.12509000000E+03 0.  0.
         25    1    4    4    0    0  0.37544343251E+00 -0.35357271714E+02 -0.72209338425E+02  0.14870095587E+03  0.12509000000E+03 0.  0.
<mgrwt>
<rscale>  2 0.44706892E+03</rscale>
<asrwt>0</asrwt>
<pdfrwt beam="1">  1       21 0.13465604E-01 0.44706892E+03</pdfrwt>
<pdfrwt beam="2">  1       21 0.80250050E-01 0.44706892E+03</pdfrwt>
<totfact> 0.60116347E+04</totfact>
</mgrwt>
</event>
<event>
 7    0  0.4770865E-002  0.4783269E+03  0.7546771E-02  0.1019596E+00
         21   -1    0    0  502  501  0.00000000000E+00  0.00000000000E+00  0.22614498746E+04  0.22614498746E+04  0.00000000000E+00 0. -1.
         21   -1    0    0  501  502 -0.00000000000E+00 -0.00000000000E+00 -0.25293139089E+02  0.25293139089E+02  0.00000000000E+00 0. -1.
      99926    2    1    2    0    0 -0.71054273576E-14 -0.14210854715E-13  0.22361567355E+04  0.22867430137E+04  0.47832694351E+03 0.  0.
      99925    2    3    3    0    0 -0.43433067819E+02 -0.92066158531E+02  0.96320262496E+03  0.10036131354E+04  0.26290192061E+03 0.  0.
         25    1    3    3    0    0  0.43433067819E+02  0.92066158531E+02  0.12729541106E+04  0.12831298783E+04  0.12509000000E+03 0.  0.
         25    1    4    4    0    0 -0.47646020249E+02 -0.34983749676E+02  0.37989512589E+03  0.40430411915E+03  0.12509000000E+03 0.  0.
         25    1    4    4    0    0  0.42129524302E+01 -0.57082408855E+02  0.58330749908E+03  0.59930901624E+03  0.12509000000E+03 0.  0.
<mgrwt>
<rscale>  2 0.47832694E+03</rscale>
<asrwt>0</asrwt>
<pdfrwt beam="1">  1       21 0.33256602E+00 0.47832694E+03</pdfrwt>
<pdfrwt beam="2">  1       21 0.37195808E-02 0.47832694E+03</pdfrwt>
<totfact> 0.80139990E+03</totfact>
</mgrwt>
</event>
<event>
 7    0  0.4770865E-002  0.4408192E+03  0.7546771E-02  0.1030496E+00
         21   -1    0    0  502  501  0.00000000000E+00  0.00000000000E+00  0.19534684907E+03  0.19534684907E+03  0.00000000000E+00 0. -1.
         21   -1    0    0  501  502 -0.00000000000E+00 -0.00000000000E+00 -0.24868784226E+03  0.24868784226E+03  0.00000000000E+00 0. -1.
      99926    2    1    2    0    0  0.00000000000E+00  0.00000000000E+00 -0.53340993187E+02  0.44403469133E+03  0.44081917557E+03 0.  0.
      99925    2    3    3    0    0 -0.46603150234E+02 -0.39615181234E+02  0.44733490597E+02  0.27371931133E+03  0.26302083571E+03 0.  0.
         25    1    4    4    0    0 -0.46341332898E+02 -0.51300438498E+02  0.38080657673E+02  0.14790841326E+03  0.12509000000E+03 0.  0.
         25    1    4    4    0    0 -0.26181733634E+00  0.11685257265E+02  0.66528329245E+01  0.12581089806E+03  0.12509000000E+03 0.  0.
         25    1    3    3    0    0  0.46603150234E+02  0.39615181234E+02 -0.98074483784E+02  0.17031538000E+03  0.12509000000E+03 0.  0.
<mgrwt>
<rscale>  2 0.44081918E+03</rscale>
<asrwt>0</asrwt>
<pdfrwt beam="1">  1       21 0.28727478E-01 0.44081918E+03</pdfrwt>
<pdfrwt beam="2">  1       21 0.36571741E-01 0.44081918E+03</pdfrwt>
<totfact> 0.77792374E+04</totfact>
</mgrwt>
</event>
<event>
 7    0  0.4770865E-002  0.4525668E+03  0.7546771E-02  0.1026959E+00
         21   -1    0    0  502  501  0.00000000000E+00  0.00000000000E+00  0.13742841351E+04  0.13742841351E+04  0.00000000000E+00 0. -1.
         21   -1    0    0  501  502 -0.00000000000E+00 -0.00000000000E+00 -0.37258802462E+02  0.37258802462E+02  0.00000000000E+00 0. -1.
      99926    2    1    2    0    0  0.00000000000E+00 -0.14210854715E-13  0.13370253326E+04  0.14115429375E+04  0.45256681768E+03 0.  0.
      99925    2    3    3    0    0 -0.11045687791E+02 -0.10927452650E+03  0.79611365873E+03  0.84559605274E+03  0.26300721938E+03 0.  0.
         25    1    4    4    0    0 -0.13046257508E+02 -0.14285521486E+02  0.39668553689E+03  0.41639068702E+03  0.12509000000E+03 0.  0.
         25    1    3    3    0    0  0.11045687791E+02  0.10927452650E+03  0.54091167390E+03  0.56594688481E+03  0.12509000000E+03 0.  0.
         25    1    4    4    0    0  0.20005697170E+01 -0.94989005015E+02  0.39942812184E+03  0.42920536573E+03  0.12509000000E+03 0.  0.
<mgrwt>
<rscale>  2 0.45256682E+03</rscale>
<asrwt>0</asrwt>
<pdfrwt beam="1">  1       21 0.20210057E+00 0.45256682E+03</pdfrwt>
<pdfrwt beam="2">  1       21 0.54792366E-02 0.45256682E+03</pdfrwt>
<totfact> 0.26524008E+04</totfact>
</mgrwt>
</event>
<event>
 7    0  0.4770865E-002  0.4578122E+03  0.7546771E-02  0.1025418E+00
         21   -1    0    0  502  501  0.00000000000E+00  0.00000000000E+00  0.15213983016E+03  0.15213983016E+03  0.00000000000E+00 0.  1.
         21   -1    0    0  501  502 -0.00000000000E+00 -0.00000000000E+00 -0.34440681622E+03  0.34440681622E+03  0.00000000000E+00 0.  1.
      99926    2    1    2    0    0  0.00000000000E+00  0.00000000000E+00 -0.19226698606E+03  0.49654664638E+03  0.45781216466E+03 0.  0.
      99925    2    3    3    0    0 -0.24954353927E+02  0.52349506737E+02 -0.12031370612E+02  0.26962027989E+03  0.26303450499E+03 0.  0.
         25    1    4    4    0    0  0.21617356704E+02  0.18721548548E+02  0.15483820518E+02  0.12924806880E+03  0.12509000000E+03 0.  0.
         25    1    4    4    0    0 -0.46571710631E+02  0.33627958189E+02 -0.27515191129E+02  0.14037221109E+03  0.12509000000E+03 0.  0.
         25    1    3    3    0    0  0.24954353927E+02 -0.52349506737E+02 -0.18023561545E+03  0.22692636649E+03  0.12509000000E+03 0.  0.
<mgrwt>
<rscale>  2 0.45781216E+03</rscale>
<asrwt>0</asrwt>
<pdfrwt beam="1">  1       21 0.22373504E-01 0.45781216E+03</pdfrwt>
<pdfrwt beam="2">  1       21 0.50648061E-01 0.45781216E+03</pdfrwt>
<totfact> 0.64071598E+04</totfact>
</mgrwt>
</event>
<event>
 7    0  0.4770865E-002  0.4338937E+03  0.7546771E-02  0.1032637E+00
         21   -1    0    0  502  501  0.00000000000E+00  0.00000000000E+00  0.32497019026E+02  0.32497019026E+02  0.00000000000E+00 0. -1.
         21   -1    0    0  501  502 -0.00000000000E+00 -0.00000000000E+00 -0.14483156095E+04  0.14483156095E+04  0.00000000000E+00 0. -1.
      99926    2    1    2    0    0  0.00000000000E+00  0.00000000000E+00 -0.14158185905E+04  0.14808126286E+04  0.43389371933E+03 0.  0.
      99925    2    3    3    0    0  0.13052790720E+02  0.46973206276E+02 -0.11753513389E+04  0.12054059027E+04  0.26301285701E+03 0.  0.
         25    1    3    3    0    0 -0.13052790720E+02 -0.46973206276E+02 -0.24046725159E+03  0.27540672585E+03  0.12509000000E+03 0.  0.
         25    1    4    4    0    0  0.58511299180E+00  0.33096186675E+02 -0.76954758110E+03  0.78035036208E+03  0.12509000000E+03 0.  0.
         25    1    4    4    0    0  0.12467677728E+02  0.13877019601E+02 -0.40580375781E+03  0.42505554062E+03  0.12509000000E+03 0.  0.
<mgrwt>
<rscale>  2 0.43389372E+03</rscale>
<asrwt>0</asrwt>
<pdfrwt beam="1">  1       21 0.47789743E-02 0.43389372E+03</pdfrwt>
<pdfrwt beam="2">  1       21 0.21298755E+00 0.43389372E+03</pdfrwt>
<totfact> 0.28674403E+04</totfact>
</mgrwt>
</event>
<event>
 7    0  0.4770865E-002  0.4498816E+03  0.7546771E-02  0.1027757E+00
         21   -1    0    0  502  501  0.00000000000E+00  0.00000000000E+00  0.50350988109E+03  0.50350988109E+03  0.00000000000E+00 0.  1.
         21   -1    0    0  501  502 -0.00000000000E+00 -0.00000000000E+00 -0.10049131097E+03  0.10049131097E+03  0.00000000000E+00 0.  1.
      99926    2    1    2    0    0 -0.17763568394E-14  0.00000000000E+00  0.40301857012E+03  0.60400119206E+03  0.44988162015E+03 0.  0.
      99925    2    3    3    0    0 -0.15446756045E+02 -0.10606824540E+03  0.27446385578E+03  0.39504450365E+03  0.26313623236E+03 0.  0.
         25    1    4    4    0    0 -0.35786038886E+02 -0.81713222829E+02  0.12927337831E+03  0.20079045247E+03  0.12509000000E+03 0.  0.
         25    1    4    4    0    0  0.20339282842E+02 -0.24355022568E+02  0.14519047747E+03  0.19425405118E+03  0.12509000000E+03 0.  0.
         25    1    3    3    0    0  0.15446756045E+02  0.10606824540E+03  0.12855471434E+03  0.20895668841E+03  0.12509000000E+03 0.  0.
<mgrwt>
<rscale>  2 0.44988162E+03</rscale>
<asrwt>0</asrwt>
<pdfrwt beam="1">  1       21 0.74045570E-01 0.44988162E+03</pdfrwt>
<pdfrwt beam="2">  1       21 0.14778134E-01 0.44988162E+03</pdfrwt>
<totfact> 0.60856357E+04</totfact>
</mgrwt>
</event>
<event>
 7    0  0.4770865E-002  0.4558461E+03  0.7546771E-02  0.1025993E+00
         21   -1    0    0  502  501  0.00000000000E+00  0.00000000000E+00  0.19327008652E+03  0.19327008652E+03  0.00000000000E+00 0.  1.
         21   -1    0    0  501  502 -0.00000000000E+00 -0.00000000000E+00 -0.26878926186E+03  0.26878926186E+03  0.00000000000E+00 0.  1.
      99926    2    1    2    0    0  0.00000000000E+00  0.00000000000E+00 -0.75519175339E+02  0.46205934838E+03  0.45584613147E+03 0.  0.
      99925    2    3    3    0    0 -0.42632006949E+02 -0.84204453228E+02 -0.11206829440E+03  0.30115184649E+03  0.26310692517E+03 0.  0.
         25    1    4    4    0    0 -0.29015274639E+02 -0.55209745806E+02 -0.17006686708E+02  0.14080744898E+03  0.12509000000E+03 0.  0.
         25    1    4    4    0    0 -0.13616732310E+02 -0.28994707422E+02 -0.95061607688E+02  0.16034439751E+03  0.12509000000E+03 0.  0.
         25    1    3    3    0    0  0.42632006949E+02  0.84204453228E+02  0.36549119058E+02  0.16090750189E+03  0.12509000000E+03 0.  0.
<mgrwt>
<rscale>  2 0.45584613E+03</rscale>
<asrwt>0</asrwt>
<pdfrwt beam="1">  1       21 0.28422072E-01 0.45584613E+03</pdfrwt>
<pdfrwt beam="2">  1       21 0.39527832E-01 0.45584613E+03</pdfrwt>
<totfact> 0.67573267E+04</totfact>
</mgrwt>
</event>
<event>
 7    0  0.4770865E-002  0.4568127E+03  0.7546771E-02  0.1025710E+00
         21   -1    0    0  502  501  0.00000000000E+00  0.00000000000E+00  0.17020301695E+03  0.17020301695E+03  0.00000000000E+00 0.  1.
         21   -1    0    0  501  502 -0.00000000000E+00 -0.00000000000E+00 -0.30651312845E+03  0.30651312845E+03  0.00000000000E+00 0.  1.
      99926    2    1    2    0    0  0.00000000000E+00  0.00000000000E+00 -0.13631011150E+03  0.47671614539E+03  0.45681269332E+03 0.  0.
      99925    2    3    3    0    0  0.93283031837E+02 -0.49732355964E+02 -0.13259394384E+03  0.31289810835E+03  0.26296205241E+03 0.  0.
         25    1    4    4    0    0  0.55576399151E+02 -0.36968998041E+02 -0.11054809841E+03  0.17978830084E+03  0.12509000000E+03 0.  0.
         25    1    3    3    0    0 -0.93283031837E+02  0.49732355964E+02 -0.37161676590E+01  0.16381803704E+03  0.12509000000E+03 0.  0.
         25    1    4    4    0    0  0.37706632686E+02 -0.12763357924E+02 -0.22045845434E+02  0.13310980751E+03  0.12509000000E+03 0.  0.
<mgrwt>
<rscale>  2 0.45681269E+03</rscale>
<asrwt>0</asrwt>
<pdfrwt beam="1">  1       21 0.25029856E-01 0.45681269E+03</pdfrwt>
<pdfrwt beam="2">  1       21 0.45075459E-01 0.45681269E+03</pdfrwt>
<totfact> 0.65985561E+04</totfact>
</mgrwt>
</event>
<event>
 7    0  0.4770865E-002  0.4717414E+03  0.7546771E-02  0.1021430E+00
         21   -1    0    0  502  501  0.00000000000E+00  0.00000000000E+00  0.18411142796E+03  0.18411142796E+03  0.00000000000E+00 0.  1.
         21   -1    0    0  501  502 -0.00000000000E+00 -0.00000000000E+00 -0.30218111004E+03  0.30218111004E+03  0.00000000000E+00 0.  1.
      99926    2    1    2    0    0  0.00000000000E+00 -0.14210854715E-13 -0.11806968208E+03  0.48629253801E+03  0.47174143627E+03 0.  0.
      99925    2    3    3    0    0  0.42806608338E+02  0.69095065348E+02 -0.17542974187E+03  0.32646695078E+03  0.26305615720E+03 0.  0.
         25    1    4    4    0    0  0.41164703238E+02  0.18790335023E+02 -0.12491284231E+03  0.18247831586E+03  0.12509000000E+03 0.  0.
         25    1    4    4    0    0  0.16419051000E+01  0.50304730324E+02 -0.50516899562E+02  0.14398863492E+03  0.12509000000E+03 0.  0.
         25    1    3    3    0    0 -0.42806608338E+02 -0.69095065348E+02  0.57360059797E+02  0.15982558723E+03  0.12509000000E+03 0.  0.
<mgrwt>
<rscale>  2 0.47174144E+03</rscale>
<asrwt>0</asrwt>
<pdfrwt beam="1">  1       21 0.27075210E-01 0.47174144E+03</pdfrwt>
<pdfrwt beam="2">  1       21 0.44438398E-01 0.47174144E+03</pdfrwt>
<totfact> 0.58129167E+04</totfact>
</mgrwt>
</event>
<event>
 7    0  0.4770865E-002  0.4553064E+03  0.7546771E-02  0.1026151E+00
         21   -1    0    0  502  501  0.00000000000E+00  0.00000000000E+00  0.30044825456E+03  0.30044825456E+03  0.00000000000E+00 0. -1.
         21   -1    0    0  501  502 -0.00000000000E+00 -0.00000000000E+00 -0.17249556161E+03  0.17249556161E+03  0.00000000000E+00 0. -1.
      99926    2    1    2    0    0 -0.14210854715E-13  0.00000000000E+00  0.12795269295E+03  0.47294381616E+03  0.45530644803E+03 0.  0.
      99925    2    3    3    0    0  0.86966589926E+02  0.58876859041E+02  0.12523168364E+03  0.30958964791E+03  0.26293174630E+03 0.  0.
         25    1    3    3    0    0 -0.86966589926E+02 -0.58876859041E+02  0.27210093127E+01  0.16335416825E+03  0.12509000000E+03 0.  0.
         25    1    4    4    0    0  0.13253964675E+02  0.42092795484E+02  0.32753072128E+02  0.13662994857E+03  0.12509000000E+03 0.  0.
         25    1    4    4    0    0  0.73712625251E+02  0.16784063557E+02  0.92478611511E+02  0.17295969935E+03  0.12509000000E+03 0.  0.
<mgrwt>
<rscale>  2 0.45530645E+03</rscale>
<asrwt>0</asrwt>
<pdfrwt beam="1">  1       21 0.44183567E-01 0.45530645E+03</pdfrwt>
<pdfrwt beam="2">  1       21 0.25366994E-01 0.45530645E+03</pdfrwt>
<totfact> 0.67054283E+04</totfact>
</mgrwt>
</event>
<event>
 7    0  0.4770865E-002  0.4572991E+03  0.7546771E-02  0.1025567E+00
         21   -1    0    0  502  501  0.00000000000E+00  0.00000000000E+00  0.42276145684E+02  0.42276145684E+02  0.00000000000E+00 0. -1.
         21   -1    0    0  501  502 -0.00000000000E+00 -0.00000000000E+00 -0.12366460223E+04  0.12366460223E+04  0.00000000000E+00 0. -1.
      99926    2    1    2    0    0  0.00000000000E+00  0.00000000000E+00 -0.11943698766E+04  0.12789221679E+04  0.45729914671E+03 0.  0.
      99925    2    3    3    0    0 -0.73897965280E+02  0.83665647368E+02 -0.82884855177E+03  0.87678513059E+03  0.26325157859E+03 0.  0.
         25    1    4    4    0    0 -0.75897009082E+02  0.44330708190E+02 -0.49621793577E+03  0.51923531809E+03  0.12509000000E+03 0.  0.
         25    1    4    4    0    0  0.19990438017E+01  0.39334939178E+02 -0.33263061600E+03  0.35754981250E+03  0.12509000000E+03 0.  0.
         25    1    3    3    0    0  0.73897965280E+02 -0.83665647368E+02 -0.36552132480E+03  0.40213703734E+03  0.12509000000E+03 0.  0.
<mgrwt>
<rscale>  2 0.45729915E+03</rscale>
<asrwt>0</asrwt>
<pdfrwt beam="1">  1       21 0.62170804E-02 0.45729915E+03</pdfrwt>
<pdfrwt beam="2">  1       21 0.18185970E+00 0.45729915E+03</pdfrwt>
<totfact> 0.29207009E+04</totfact>
</mgrwt>
</event>
<event>
 7    0  0.4770865E-002  0.4559480E+03  0.7546771E-02  0.1025963E+00
         21   -1    0    0  502  501  0.00000000000E+00  0.00000000000E+00  0.37525876909E+03  0.37525876909E+03  0.00000000000E+00 0. -1.
         21   -1    0    0  501  502 -0.00000000000E+00 -0.00000000000E+00 -0.13849682495E+03  0.13849682495E+03  0.00000000000E+00 0. -1.
      99926    2    1    2    0    0  0.00000000000E+00  0.00000000000E+00  0.23676194414E+03  0.51375559404E+03  0.45594801482E+03 0.  0.
      99925    2    3    3    0    0  0.97238515545E+02  0.58987014115E+02  0.13570438147E+03  0.31679129318E+03  0.26269040246E+03 0.  0.
         25    1    4    4    0    0  0.25999838799E+02  0.61320404354E+02  0.77262289144E+02  0.16140989137E+03  0.12509000000E+03 0.  0.
         25    1    4    4    0    0  0.71238676746E+02 -0.23333902395E+01  0.58442092325E+02  0.15538140181E+03  0.12509000000E+03 0.  0.
         25    1    3    3    0    0 -0.97238515545E+02 -0.58987014115E+02  0.10105756267E+03  0.19696430086E+03  0.12509000000E+03 0.  0.
<mgrwt>
<rscale>  2 0.45594801E+03</rscale>
<asrwt>0</asrwt>
<pdfrwt beam="1">  1       21 0.55185113E-01 0.45594801E+03</pdfrwt>
<pdfrwt beam="2">  1       21 0.20367180E-01 0.45594801E+03</pdfrwt>
<totfact> 0.63833126E+04</totfact>
</mgrwt>
</event>
<event>
 7    0  0.4770865E-002  0.4581210E+03  0.7546771E-02  0.1025328E+00
         21   -1    0    0  502  501  0.00000000000E+00  0.00000000000E+00  0.13478676337E+03  0.13478676337E+03  0.00000000000E+00 0.  1.
         21   -1    0    0  501  502 -0.00000000000E+00 -0.00000000000E+00 -0.38927205072E+03  0.38927205072E+03  0.00000000000E+00 0.  1.
      99926    2    1    2    0    0  0.00000000000E+00  0.71054273576E-14 -0.25448528735E+03  0.52405881409E+03  0.45812103111E+03 0.  0.
      99925    2    3    3    0    0  0.61689245493E+02  0.31483389899E+02 -0.26604318190E+03  0.38060896266E+03  0.26322507663E+03 0.  0.
         25    1    4    4    0    0  0.70916325933E+01  0.48107827090E+02 -0.14271609613E+03  0.19590826035E+03  0.12509000000E+03 0.  0.
         25    1    4    4    0    0  0.54597612899E+02 -0.16624437191E+02 -0.12332708577E+03  0.18470070230E+03  0.12509000000E+03 0.  0.
         25    1    3    3    0    0 -0.61689245493E+02 -0.31483389899E+02  0.11557894558E+02  0.14344985143E+03  0.12509000000E+03 0.  0.
<mgrwt>
<rscale>  2 0.45812103E+03</rscale>
<asrwt>0</asrwt>
<pdfrwt beam="1">  1       21 0.19821583E-01 0.45812103E+03</pdfrwt>
<pdfrwt beam="2">  1       21 0.57245889E-01 0.45812103E+03</pdfrwt>
<totfact> 0.62060583E+04</totfact>
</mgrwt>
</event>
<event>
 7    0  0.4770865E-002  0.4224675E+03  0.7546771E-02  0.1036266E+00
         21   -1    0    0  502  501  0.00000000000E+00  0.00000000000E+00  0.50547804645E+03  0.50547804645E+03  0.00000000000E+00 0. -1.
         21   -1    0    0  501  502 -0.00000000000E+00 -0.00000000000E+00 -0.88272258824E+02  0.88272258824E+02  0.00000000000E+00 0. -1.
      99926    2    1    2    0    0  0.35527136788E-14  0.00000000000E+00  0.41720578762E+03  0.59375030527E+03  0.42246746121E+03 0.  0.
      99925    2    3    3    0    0 -0.26441116149E+02  0.29351720926E+02  0.17498828521E+03  0.31829162830E+03  0.26292205031E+03 0.  0.
         25    1    4    4    0    0  0.52360535411E+01  0.34965586615E+02  0.52199838953E+02  0.14007976225E+03  0.12509000000E+03 0.  0.
         25    1    3    3    0    0  0.26441116149E+02 -0.29351720926E+02  0.24221750241E+03  0.27545867697E+03  0.12509000000E+03 0.  0.
         25    1    4    4    0    0 -0.31677169690E+02 -0.56138656882E+01  0.12278844625E+03  0.17821186605E+03  0.12509000000E+03 0.  0.
<mgrwt>
<rscale>  2 0.42246746E+03</rscale>
<asrwt>0</asrwt>
<pdfrwt beam="1">  1       21 0.74335006E-01 0.42246746E+03</pdfrwt>
<pdfrwt beam="2">  1       21 0.12981215E-01 0.42246746E+03</pdfrwt>
<totfact> 0.77039097E+04</totfact>
</mgrwt>
</event>
<event>
 7    0  0.4770865E-002  0.4197559E+03  0.7546771E-02  0.1037146E+00
         21   -1    0    0  502  501  0.00000000000E+00  0.00000000000E+00  0.27494944286E+02  0.27494944286E+02  0.00000000000E+00 0.  1.
         21   -1    0    0  501  502 -0.00000000000E+00 -0.00000000000E+00 -0.16020675880E+04  0.16020675880E+04  0.00000000000E+00 0.  1.
      99926    2    1    2    0    0  0.71054273576E-14  0.00000000000E+00 -0.15745726437E+04  0.16295625323E+04  0.41975592468E+03 0.  0.
      99925    2    3    3    0    0  0.43305377371E+02  0.30190270033E+02 -0.12361726596E+04  0.12649409950E+04  0.26299442646E+03 0.  0.
         25    1    4    4    0    0 -0.18162017393E+02  0.95080230651E+01 -0.62704785378E+03  0.63973180350E+03  0.12509000000E+03 0.  0.
         25    1    4    4    0    0  0.61467394764E+02  0.20682246968E+02 -0.60912480583E+03  0.62520919150E+03  0.12509000000E+03 0.  0.
         25    1    3    3    0    0 -0.43305377371E+02 -0.30190270033E+02 -0.33839998414E+03  0.36462153732E+03  0.12509000000E+03 0.  0.
<mgrwt>
<rscale>  2 0.41975592E+03</rscale>
<asrwt>0</asrwt>
<pdfrwt beam="1">  1       21 0.40433744E-02 0.41975592E+03</pdfrwt>
<pdfrwt beam="2">  1       21 0.23559816E+00 0.41975592E+03</pdfrwt>
<totfact> 0.27579739E+04</totfact>
</mgrwt>
</event>
<event>
 7    0  0.4770865E-002  0.4556619E+03  0.7546771E-02  0.1026047E+00
         21   -1    0    0  502  501  0.00000000000E+00  0.00000000000E+00  0.96932758554E+02  0.96932758554E+02  0.00000000000E+00 0. -1.
         21   -1    0    0  501  502 -0.00000000000E+00 -0.00000000000E+00 -0.53549429890E+03  0.53549429890E+03  0.00000000000E+00 0. -1.
      99926    2    1    2    0    0  0.00000000000E+00 -0.71054273576E-14 -0.43856154035E+03  0.63242705745E+03  0.45566189036E+03 0.  0.
      99925    2    3    3    0    0 -0.29242646604E+02 -0.55484437372E+02 -0.40760029642E+03  0.48911005952E+03  0.26297717299E+03 0.  0.
         25    1    3    3    0    0  0.29242646604E+02  0.55484437372E+02 -0.30961243924E+02  0.14331699793E+03  0.12509000000E+03 0.  0.
         25    1    4    4    0    0 -0.57943183915E+01 -0.67194739162E+02 -0.20075047244E+03  0.24596131277E+03  0.12509000000E+03 0.  0.
         25    1    4    4    0    0 -0.23448328212E+02  0.11710301790E+02 -0.20684982399E+03  0.24314874675E+03  0.12509000000E+03 0.  0.
<mgrwt>
<rscale>  2 0.45566189E+03</rscale>
<asrwt>0</asrwt>
<pdfrwt beam="1">  1       21 0.14254818E-01 0.45566189E+03</pdfrwt>
<pdfrwt beam="2">  1       21 0.78749160E-01 0.45566189E+03</pdfrwt>
<totfact> 0.56429995E+04</totfact>
</mgrwt>
</event>
<event>
 7    0  0.4770865E-002  0.4573220E+03  0.7546771E-02  0.1025561E+00
         21   -1    0    0  502  501  0.00000000000E+00  0.00000000000E+00  0.17075224650E+04  0.17075224650E+04  0.00000000000E+00 0.  1.
         21   -1    0    0  501  502 -0.00000000000E+00 -0.00000000000E+00 -0.30620882512E+02  0.30620882512E+02  0.00000000000E+00 0.  1.
      99926    2    1    2    0    0  0.17763568394E-14 -0.14210854715E-13  0.16769015825E+04  0.17381433475E+04  0.45732196443E+03 0.  0.
      99925    2    3    3    0    0  0.91197148587E+01  0.11257223320E+03  0.11415425206E+04  0.11768835947E+04  0.26302089696E+03 0.  0.
         25    1    4    4    0    0  0.29451768421E+02  0.24456265219E+02  0.47328752591E+03  0.49103371152E+03  0.12509000000E+03 0.  0.
         25    1    3    3    0    0 -0.91197148587E+01 -0.11257223320E+03  0.53535906190E+03  0.56125975283E+03  0.12509000000E+03 0.  0.
         25    1    4    4    0    0 -0.20332053563E+02  0.88115967984E+02  0.66825499468E+03  0.68584988316E+03  0.12509000000E+03 0.  0.
<mgrwt>
<rscale>  2 0.45732196E+03</rscale>
<asrwt>0</asrwt>
<pdfrwt beam="1">  1       21 0.25110618E+00 0.45732196E+03</pdfrwt>
<pdfrwt beam="2">  1       21 0.45030721E-02 0.45732196E+03</pdfrwt>
<totfact> 0.18149506E+04</totfact>
</mgrwt>
</event>
<event>
 7    0  0.4770865E-002  0.4459474E+03  0.7546771E-02  0.1028938E+00
         21   -1    0    0  502  501  0.00000000000E+00  0.00000000000E+00  0.81833045299E+03  0.81833045299E+03  0.00000000000E+00 0.  1.
         21   -1    0    0  501  502 -0.00000000000E+00 -0.00000000000E+00 -0.60754503906E+02  0.60754503906E+02  0.00000000000E+00 0.  1.
      99926    2    1    2    0    0  0.00000000000E+00 -0.71054273576E-14  0.75757594909E+03  0.87908495690E+03  0.44594735431E+03 0.  0.
      99925    2    3    3    0    0  0.52490775823E+02  0.39355725689E+02  0.64077499500E+03  0.69579795336E+03  0.26313122770E+03 0.  0.
         25    1    4    4    0    0  0.38255238909E+02 -0.17511376744E+02  0.34393460212E+03  0.36838652290E+03  0.12509000000E+03 0.  0.
         25    1    4    4    0    0  0.14235536915E+02  0.56867102432E+02  0.29684039288E+03  0.32741143046E+03  0.12509000000E+03 0.  0.
         25    1    3    3    0    0 -0.52490775823E+02 -0.39355725689E+02  0.11680095409E+03  0.18328700354E+03  0.12509000000E+03 0.  0.
<mgrwt>
<rscale>  2 0.44594735E+03</rscale>
<asrwt>0</asrwt>
<pdfrwt beam="1">  1       21 0.12034271E+00 0.44594735E+03</pdfrwt>
<pdfrwt beam="2">  1       21 0.89344864E-02 0.44594735E+03</pdfrwt>
<totfact> 0.47424410E+04</totfact>
</mgrwt>
</event>
<event>
 7    0  0.4770865E-002  0.4405708E+03  0.7546771E-02  0.1030572E+00
         21   -1    0    0  502  501  0.00000000000E+00  0.00000000000E+00  0.27246212709E+03  0.27246212709E+03  0.00000000000E+00 0. -1.
         21   -1    0    0  501  502 -0.00000000000E+00 -0.00000000000E+00 -0.17810055925E+03  0.17810055925E+03  0.00000000000E+00 0. -1.
      99926    2    1    2    0    0 -0.71054273576E-14  0.00000000000E+00  0.94361567837E+02  0.45056268634E+03  0.44057079890E+03 0.  0.
      99925    2    3    3    0    0  0.53740959232E+02  0.57816943167E+02 -0.88311811372E+00  0.27463671351E+03  0.26304686824E+03 0.  0.
         25    1    4    4    0    0 -0.11771538467E+02  0.31381307458E+02 -0.14602073391E+02  0.13032299959E+03  0.12509000000E+03 0.  0.
         25    1    4    4    0    0  0.65512497700E+02  0.26435635709E+02  0.13718955277E+02  0.14431371392E+03  0.12509000000E+03 0.  0.
         25    1    3    3    0    0 -0.53740959232E+02 -0.57816943167E+02  0.95244685951E+02  0.17592597284E+03  0.12509000000E+03 0.  0.
<mgrwt>
<rscale>  2 0.44057080E+03</rscale>
<asrwt>0</asrwt>
<pdfrwt beam="1">  1       21 0.40067960E-01 0.44057080E+03</pdfrwt>
<pdfrwt beam="2">  1       21 0.26191259E-01 0.44057080E+03</pdfrwt>
<totfact> 0.77394968E+04</totfact>
</mgrwt>
</event>
<event>
 7    0  0.4770865E-002  0.4508408E+03  0.7546771E-02  0.1027472E+00
         21   -1    0    0  502  501  0.00000000000E+00  0.00000000000E+00  0.29168894637E+03  0.29168894637E+03  0.00000000000E+00 0. -1.
         21   -1    0    0  501  502 -0.00000000000E+00 -0.00000000000E+00 -0.17420731381E+03  0.17420731381E+03  0.00000000000E+00 0. -1.
      99926    2    1    2    0    0  0.00000000000E+00  0.00000000000E+00  0.11748163256E+03  0.46589626018E+03  0.45084076042E+03 0.  0.
      99925    2    3    3    0    0 -0.10049028773E+03  0.35656122038E+02  0.98499481101E+02  0.30043482315E+03  0.26303854892E+03 0.  0.
         25    1    4    4    0    0 -0.28448657283E+02 -0.18040448638E+02  0.51496644649E+02  0.13940658664E+03  0.12509000000E+03 0.  0.
         25    1    4    4    0    0 -0.72041630449E+02  0.53696570676E+02  0.47002836452E+02  0.16102823651E+03  0.12509000000E+03 0.  0.
         25    1    3    3    0    0  0.10049028773E+03 -0.35656122038E+02  0.18982151463E+02  0.16546143702E+03  0.12509000000E+03 0.  0.
<mgrwt>
<rscale>  2 0.45084076E+03</rscale>
<asrwt>0</asrwt>
<pdfrwt beam="1">  1       21 0.42895433E-01 0.45084076E+03</pdfrwt>
<pdfrwt beam="2">  1       21 0.25618723E-01 0.45084076E+03</pdfrwt>
<totfact> 0.70024199E+04</totfact>
</mgrwt>
</event>
<event>
 7    0  0.4770865E-002  0.4298674E+03  0.7546771E-02  0.1033902E+00
         21   -1    0    0  502  501  0.00000000000E+00  0.00000000000E+00  0.42817081031E+02  0.42817081031E+02  0.00000000000E+00 0.  1.
         21   -1    0    0  501  502 -0.00000000000E+00 -0.00000000000E+00 -0.10789268719E+04  0.10789268719E+04  0.00000000000E+00 0.  1.
      99926    2    1    2    0    0  0.00000000000E+00  0.00000000000E+00 -0.10361097909E+04  0.11217439529E+04  0.42986741817E+03 0.  0.
      99925    2    3    3    0    0 -0.24877887493E+02 -0.56639121721E+02 -0.83023553208E+03  0.87303002504E+03  0.26279932742E+03 0.  0.
         25    1    4    4    0    0 -0.36195492561E+01 -0.33380571825E+02 -0.54174859118E+03  0.55701562623E+03  0.12509000000E+03 0.  0.
         25    1    4    4    0    0 -0.21258338237E+02 -0.23258549897E+02 -0.28848694090E+03  0.31601439881E+03  0.12509000000E+03 0.  0.
         25    1    3    3    0    0  0.24877887493E+02  0.56639121721E+02 -0.20587425878E+03  0.24871392789E+03  0.12509000000E+03 0.  0.
<mgrwt>
<rscale>  2 0.42986742E+03</rscale>
<asrwt>0</asrwt>
<pdfrwt beam="1">  1       21 0.62966297E-02 0.42986742E+03</pdfrwt>
<pdfrwt beam="2">  1       21 0.15866571E+00 0.42986742E+03</pdfrwt>
<totfact> 0.42470965E+04</totfact>
</mgrwt>
</event>
<event>
 7    0  0.4770865E-002  0.4533774E+03  0.7546771E-02  0.1026720E+00
         21   -1    0    0  502  501  0.00000000000E+00  0.00000000000E+00  0.63715632267E+02  0.63715632267E+02  0.00000000000E+00 0.  1.
         21   -1    0    0  501  502 -0.00000000000E+00 -0.00000000000E+00 -0.80651755923E+03  0.80651755923E+03  0.00000000000E+00 0.  1.
      99926    2    1    2    0    0  0.17763568394E-14  0.00000000000E+00 -0.74280192697E+03  0.87023319150E+03  0.45337744197E+03 0.  0.
      99925    2    3    3    0    0  0.78315950265E+01  0.74059152935E+02 -0.62765148779E+03  0.68461739542E+03  0.26307507667E+03 0.  0.
         25    1    4    4    0    0 -0.25880174820E+02  0.47504024805E+02 -0.25400098656E+03  0.28825409814E+03  0.12509000000E+03 0.  0.
         25    1    4    4    0    0  0.33711769847E+02  0.26555128130E+02 -0.37365050123E+03  0.39636329727E+03  0.12509000000E+03 0.  0.
         25    1    3    3    0    0 -0.78315950265E+01 -0.74059152935E+02 -0.11515043918E+03  0.18561579609E+03  0.12509000000E+03 0.  0.
<mgrwt>
<rscale>  2 0.45337744E+03</rscale>
<asrwt>0</asrwt>
<pdfrwt beam="1">  1       21 0.93699462E-02 0.45337744E+03</pdfrwt>
<pdfrwt beam="2">  1       21 0.11860552E+00 0.45337744E+03</pdfrwt>
<totfact> 0.45116435E+04</totfact>
</mgrwt>
</event>
<event>
 7    0  0.4770865E-002  0.4521339E+03  0.7546771E-02  0.1027088E+00
         21   -1    0    0  502  501  0.00000000000E+00  0.00000000000E+00  0.56752085461E+03  0.56752085461E+03  0.00000000000E+00 0.  1.
         21   -1    0    0  501  502 -0.00000000000E+00 -0.00000000000E+00 -0.90051773098E+02  0.90051773098E+02  0.00000000000E+00 0.  1.
      99926    2    1    2    0    0  0.71054273576E-14  0.00000000000E+00  0.47746908152E+03  0.65757262771E+03  0.45213387056E+03 0.  0.
      99925    2    3    3    0    0 -0.59973046518E+02 -0.89967271762E+02  0.33386797951E+03  0.43857568505E+03  0.26303978307E+03 0.  0.
         25    1    4    4    0    0  0.30143647909E+01 -0.42147126417E+02  0.11947975203E+03  0.17806848656E+03  0.12509000000E+03 0.  0.
         25    1    4    4    0    0 -0.62987411309E+02 -0.47820145344E+02  0.21438822748E+03  0.26050719849E+03  0.12509000000E+03 0.  0.
         25    1    3    3    0    0  0.59973046518E+02  0.89967271762E+02  0.14360110200E+03  0.21899694266E+03  0.12509000000E+03 0.  0.
<mgrwt>
<rscale>  2 0.45213387E+03</rscale>
<asrwt>0</asrwt>
<pdfrwt beam="1">  1       21 0.83458948E-01 0.45213387E+03</pdfrwt>
<pdfrwt beam="2">  1       21 0.13242908E-01 0.45213387E+03</pdfrwt>
<totfact> 0.56534178E+04</totfact>
</mgrwt>
</event>
<event>
 7    0  0.4770865E-002  0.4649277E+03  0.7546771E-02  0.1023362E+00
         21   -1    0    0  502  501  0.00000000000E+00  0.00000000000E+00  0.33828073127E+03  0.33828073127E+03  0.00000000000E+00 0.  1.
         21   -1    0    0  501  502 -0.00000000000E+00 -0.00000000000E+00 -0.15974732804E+03  0.15974732804E+03  0.00000000000E+00 0.  1.
      99926    2    1    2    0    0  0.35527136788E-14  0.00000000000E+00  0.17853340322E+03  0.49802805931E+03  0.46492770599E+03 0.  0.
      99925    2    3    3    0    0 -0.19804861265E+02  0.75531218654E+02  0.21218191557E+03  0.34677685104E+03  0.26293691563E+03 0.  0.
         25    1    3    3    0    0  0.19804861265E+02 -0.75531218654E+02 -0.33648512347E+02  0.15125120827E+03  0.12509000000E+03 0.  0.
         25    1    4    4    0    0  0.49351186051E+01  0.16235169535E+02  0.60660696123E+02  0.14005414767E+03  0.12509000000E+03 0.  0.
         25    1    4    4    0    0 -0.24739979870E+02  0.59296049118E+02  0.15152121945E+03  0.20672270337E+03  0.12509000000E+03 0.  0.
<mgrwt>
<rscale>  2 0.46492771E+03</rscale>
<asrwt>0</asrwt>
<pdfrwt beam="1">  1       21 0.49747166E-01 0.46492771E+03</pdfrwt>
<pdfrwt beam="2">  1       21 0.23492254E-01 0.46492771E+03</pdfrwt>
<totfact> 0.60498933E+04</totfact>
</mgrwt>
</event>
<event>
 7    0  0.4770865E-002  0.4430108E+03  0.7546771E-02  0.1029827E+00
         21   -1    0    0  502  501  0.00000000000E+00  0.00000000000E+00  0.60470384323E+03  0.60470384323E+03  0.00000000000E+00 0.  1.
         21   -1    0    0  501  502 -0.00000000000E+00 -0.00000000000E+00 -0.81138303934E+02  0.81138303934E+02  0.00000000000E+00 0.  1.
      99926    2    1    2    0    0  0.00000000000E+00 -0.17763568394E-14  0.52356553930E+03  0.68584214716E+03  0.44301080900E+03 0.  0.
      99925    2    3    3    0    0 -0.49511862239E+01 -0.85223923152E+01  0.17676881898E+03  0.31704326059E+03  0.26300583322E+03 0.  0.
         25    1    3    3    0    0  0.49511862239E+01  0.85223923152E+01  0.34679672032E+03  0.36879888657E+03  0.12509000000E+03 0.  0.
         25    1    4    4    0    0  0.25160192054E+02  0.24294896994E+02  0.77450865403E+02  0.15122639299E+03  0.12509000000E+03 0.  0.
         25    1    4    4    0    0 -0.30111378278E+02 -0.32817289309E+02  0.99317953578E+02  0.16581686761E+03  0.12509000000E+03 0.  0.
<mgrwt>
<rscale>  2 0.44301081E+03</rscale>
<asrwt>0</asrwt>
<pdfrwt beam="1">  1       21 0.88927033E-01 0.44301081E+03</pdfrwt>
<pdfrwt beam="2">  1       21 0.11932104E-01 0.44301081E+03</pdfrwt>
<totfact> 0.59058648E+04</totfact>
</mgrwt>
</event>
<event>
 7    0  0.4770865E-002  0.4589515E+03  0.7546771E-02  0.1025086E+00
         21   -1    0    0  502  501  0.00000000000E+00  0.00000000000E+00  0.16317654454E+03  0.16317654454E+03  0.00000000000E+00 0. -1.
         21   -1    0    0  501  502 -0.00000000000E+00 -0.00000000000E+00 -0.32271250590E+03  0.32271250590E+03  0.00000000000E+00 0. -1.
      99926    2    1    2    0    0  0.00000000000E+00  0.00000000000E+00 -0.15953596135E+03  0.48588905044E+03  0.45895146407E+03 0.  0.
      99925    2    3    3    0    0 -0.36290930906E+02 -0.11005063511E+03 -0.83924657450E+02  0.29936089886E+03  0.26295517809E+03 0.  0.
         25    1    4    4    0    0 -0.89375549042E+01 -0.13386808385E+02 -0.25889641147E+02  0.12875118697E+03  0.12509000000E+03 0.  0.
         25    1    4    4    0    0 -0.27353376002E+02 -0.96663826721E+02 -0.58035016303E+02  0.17060971189E+03  0.12509000000E+03 0.  0.
         25    1    3    3    0    0  0.36290930906E+02  0.11005063511E+03 -0.75611303904E+02  0.18652815158E+03  0.12509000000E+03 0.  0.
<mgrwt>
<rscale>  2 0.45895146E+03</rscale>
<asrwt>0</asrwt>
<pdfrwt beam="1">  1       21 0.23996551E-01 0.45895146E+03</pdfrwt>
<pdfrwt beam="2">  1       21 0.47457721E-01 0.45895146E+03</pdfrwt>
<totfact> 0.64235202E+04</totfact>
</mgrwt>
</event>
<event>
 7    0  0.4770865E-002  0.4576766E+03  0.7546771E-02  0.1025457E+00
         21   -1    0    0  502  501  0.00000000000E+00  0.00000000000E+00  0.16418843949E+03  0.16418843949E+03  0.00000000000E+00 0.  1.
         21   -1    0    0  501  502 -0.00000000000E+00 -0.00000000000E+00 -0.31894431354E+03  0.31894431354E+03  0.00000000000E+00 0.  1.
      99926    2    1    2    0    0  0.35527136788E-14  0.00000000000E+00 -0.15475587405E+03  0.48313275303E+03  0.45767660689E+03 0.  0.
      99925    2    3    3    0    0 -0.24639194221E+02  0.33641248156E+02  0.15446188358E+02  0.26783046875E+03  0.26411314201E+03 0.  0.
         25    1    4    4    0    0 -0.25660482293E+02  0.55873252991E+01 -0.30917324775E+02  0.13150310881E+03  0.12509000000E+03 0.  0.
         25    1    3    3    0    0  0.24639194221E+02 -0.33641248156E+02 -0.17020206241E+03  0.21530228429E+03  0.12509000000E+03 0.  0.
         25    1    4    4    0    0  0.10212880720E+01  0.28053922857E+02  0.46363513133E+02  0.13632735994E+03  0.12509000000E+03 0.  0.
<mgrwt>
<rscale>  2 0.45767661E+03</rscale>
<asrwt>0</asrwt>
<pdfrwt beam="1">  1       21 0.24145359E-01 0.45767661E+03</pdfrwt>
<pdfrwt beam="2">  1       21 0.46903575E-01 0.45767661E+03</pdfrwt>
<totfact> 0.65079034E+04</totfact>
</mgrwt>
</event>
<event>
 7    0  0.4770865E-002  0.4165338E+03  0.7546771E-02  0.1038200E+00
         21   -1    0    0  502  501  0.00000000000E+00  0.00000000000E+00  0.20463993229E+03  0.20463993229E+03  0.00000000000E+00 0. -1.
         21   -1    0    0  501  502 -0.00000000000E+00 -0.00000000000E+00 -0.21195818502E+03  0.21195818502E+03  0.00000000000E+00 0. -1.
      99926    2    1    2    0    0  0.00000000000E+00  0.00000000000E+00 -0.73182527265E+01  0.41659811731E+03  0.41653383359E+03 0.  0.
      99925    2    3    3    0    0  0.43304155375E+02 -0.50272776541E+02 -0.31109956584E+02  0.27301484807E+03  0.26299558159E+03 0.  0.
         25    1    4    4    0    0  0.23616998000E+02  0.10889595680E+02 -0.34521825404E+02  0.13234655423E+03  0.12509000000E+03 0.  0.
         25    1    3    3    0    0 -0.43304155375E+02  0.50272776541E+02  0.23791703858E+02  0.14358326924E+03  0.12509000000E+03 0.  0.
         25    1    4    4    0    0  0.19687157375E+02 -0.61162372222E+02  0.34118688204E+01  0.14066829383E+03  0.12509000000E+03 0.  0.
<mgrwt>
<rscale>  2 0.41653383E+03</rscale>
<asrwt>0</asrwt>
<pdfrwt beam="1">  1       21 0.30094108E-01 0.41653383E+03</pdfrwt>
<pdfrwt beam="2">  1       21 0.31170321E-01 0.41653383E+03</pdfrwt>
<totfact> 0.98349095E+04</totfact>
</mgrwt>
</event>
<event>
 7    0  0.4770865E-002  0.4400727E+03  0.7546771E-02  0.1030725E+00
         21   -1    0    0  502  501  0.00000000000E+00  0.00000000000E+00  0.38708734629E+02  0.38708734629E+02  0.00000000000E+00 0.  1.
         21   -1    0    0  501  502 -0.00000000000E+00 -0.00000000000E+00 -0.12507768900E+04  0.12507768900E+04  0.00000000000E+00 0.  1.
      99926    2    1    2    0    0  0.00000000000E+00  0.00000000000E+00 -0.12120681554E+04  0.12894856246E+04  0.44007267907E+03 0.  0.
      99925    2    3    3    0    0  0.56337441597E+02 -0.30685314385E+02 -0.99260016023E+03  0.10288533073E+04  0.26299915212E+03 0.  0.
         25    1    3    3    0    0 -0.56337441597E+02  0.30685314385E+02 -0.21946799515E+03  0.26063231733E+03  0.12509000000E+03 0.  0.
         25    1    4    4    0    0  0.61081720383E+02 -0.40926993947E+02 -0.53723133566E+03  0.55648091748E+03  0.12509000000E+03 0.  0.
         25    1    4    4    0    0 -0.47442787864E+01  0.10241679562E+02 -0.45536882456E+03  0.47237238982E+03  0.12509000000E+03 0.  0.
<mgrwt>
<rscale>  2 0.44007268E+03</rscale>
<asrwt>0</asrwt>
<pdfrwt beam="1">  1       21 0.56924616E-02 0.44007268E+03</pdfrwt>
<pdfrwt beam="2">  1       21 0.18393776E+00 0.44007268E+03</pdfrwt>
<totfact> 0.33101049E+04</totfact>
</mgrwt>
</event>
<event>
 6    0  0.4770865E-002  0.4572559E+03  0.7546771E-02  0.1025580E+00
         21   -1    0    0  502  501  0.00000000000E+00  0.00000000000E+00  0.20616864136E+03  0.20616864136E+03  0.00000000000E+00 0. -1.
         21   -1    0    0  501  502 -0.00000000000E+00 -0.00000000000E+00 -0.25353388658E+03  0.25353388658E+03  0.00000000000E+00 0. -1.
      99926    2    1    2    0    0  0.00000000000E+00  0.00000000000E+00 -0.47365245216E+02  0.45970252794E+03  0.45725588869E+03 0.  0.
         25    1    3    3    0    0 -0.46135297765E+02 -0.10086330673E+02 -0.48544422597E+02  0.14224721028E+03  0.12509000000E+03 0.  0.
         25    1    3    3    0    0  0.85154360667E+02 -0.53269124720E+02  0.42870439085E+02  0.16605495306E+03  0.12509000000E+03 0.  0.
         25    1    3    3    0    0 -0.39019062903E+02  0.63355455394E+02 -0.41691261704E+02  0.15140036460E+03  0.12509000000E+03 0.  0.
<mgrwt>
<rscale>  2 0.45725589E+03</rscale>
<asrwt>0</asrwt>
<pdfrwt beam="1">  1       21 0.30318918E-01 0.45725589E+03</pdfrwt>
<pdfrwt beam="2">  1       21 0.37284395E-01 0.45725589E+03</pdfrwt>
<totfact> 0.66988776E+04</totfact>
</mgrwt>
</event>
<event>
 7    0  0.4770865E-002  0.4570394E+03  0.7546771E-02  0.1025643E+00
         21   -1    0    0  502  501  0.00000000000E+00  0.00000000000E+00  0.25421895115E+03  0.25421895115E+03  0.00000000000E+00 0. -1.
         21   -1    0    0  501  502 -0.00000000000E+00 -0.00000000000E+00 -0.20541839530E+03  0.20541839530E+03  0.00000000000E+00 0. -1.
      99926    2    1    2    0    0 -0.14210854715E-13  0.00000000000E+00  0.48800555847E+02  0.45963734644E+03  0.45703938123E+03 0.  0.
      99925    2    3    3    0    0  0.82497455073E+02 -0.17099109318E+02 -0.48240091438E+02  0.28029798947E+03  0.26294799267E+03 0.  0.
         25    1    3    3    0    0 -0.82497455073E+02  0.17099109318E+02  0.97040647285E+02  0.17933935697E+03  0.12509000000E+03 0.  0.
         25    1    4    4    0    0  0.82417914303E+01 -0.28269842167E+02 -0.70745630754E+01  0.12870380198E+03  0.12509000000E+03 0.  0.
         25    1    4    4    0    0  0.74255663643E+02  0.11170732850E+02 -0.41165528362E+02  0.15159418749E+03  0.12509000000E+03 0.  0.
<mgrwt>
<rscale>  2 0.45703938E+03</rscale>
<asrwt>0</asrwt>
<pdfrwt beam="1">  1       21 0.37385140E-01 0.45703938E+03</pdfrwt>
<pdfrwt beam="2">  1       21 0.30208587E-01 0.45703938E+03</pdfrwt>
<totfact> 0.67108747E+04</totfact>
</mgrwt>
</event>
<event>
 7    0  0.4770865E-002  0.4578144E+03  0.7546771E-02  0.1025417E+00
         21   -1    0    0  502  501  0.00000000000E+00  0.00000000000E+00  0.82774197607E+02  0.82774197607E+02  0.00000000000E+00 0. -1.
         21   -1    0    0  501  502 -0.00000000000E+00 -0.00000000000E+00 -0.63302955845E+03  0.63302955845E+03  0.00000000000E+00 0. -1.
      99926    2    1    2    0    0  0.00000000000E+00  0.67723604502E-14 -0.55025536085E+03  0.71580375606E+03  0.45781443298E+03 0.  0.
      99925    2    3    3    0    0 -0.17287727859E+02 -0.94103398470E+00 -0.16644223360E+03  0.31174958169E+03  0.26303048013E+03 0.  0.
         25    1    3    3    0    0  0.17287727859E+02  0.94103398470E+00 -0.38381312724E+03  0.40405417437E+03  0.12509000000E+03 0.  0.
         25    1    4    4    0    0 -0.19631970070E+02 -0.39411105543E+02 -0.87925372715E+02  0.15911325764E+03  0.12509000000E+03 0.  0.
         25    1    4    4    0    0  0.23442422108E+01  0.38470071558E+02 -0.78516860888E+02  0.15263632405E+03  0.12509000000E+03 0.  0.
<mgrwt>
<rscale>  2 0.45781443E+03</rscale>
<asrwt>0</asrwt>
<pdfrwt beam="1">  1       21 0.12172676E-01 0.45781443E+03</pdfrwt>
<pdfrwt beam="2">  1       21 0.93092583E-01 0.45781443E+03</pdfrwt>
<totfact> 0.50916650E+04</totfact>
</mgrwt>
</event>
<event>
 7    0  0.4770865E-002  0.4537228E+03  0.7546771E-02  0.1026618E+00
         21   -1    0    0  502  501  0.00000000000E+00  0.00000000000E+00  0.56332612085E+02  0.56332612085E+02  0.00000000000E+00 0.  1.
         21   -1    0    0  501  502 -0.00000000000E+00 -0.00000000000E+00 -0.91361110099E+03  0.91361110099E+03  0.00000000000E+00 0.  1.
      99926    2    1    2    0    0  0.00000000000E+00  0.00000000000E+00 -0.85727848891E+03  0.96994371308E+03  0.45372282177E+03 0.  0.
      99925    2    3    3    0    0  0.51620918599E+02 -0.71678481008E+02 -0.68717807179E+03  0.74106779936E+03  0.26299288397E+03 0.  0.
         25    1    4    4    0    0  0.20161115741E+02 -0.27830297478E+02 -0.44127816144E+03  0.45995099729E+03  0.12509000000E+03 0.  0.
         25    1    4    4    0    0  0.31459802857E+02 -0.43848183530E+02 -0.24589991035E+03  0.28111680207E+03  0.12509000000E+03 0.  0.
         25    1    3    3    0    0 -0.51620918599E+02  0.71678481008E+02 -0.17010041712E+03  0.22887591372E+03  0.12509000000E+03 0.  0.
<mgrwt>
<rscale>  2 0.45372282E+03</rscale>
<asrwt>0</asrwt>
<pdfrwt beam="1">  1       21 0.82842083E-02 0.45372282E+03</pdfrwt>
<pdfrwt beam="2">  1       21 0.13435456E+00 0.45372282E+03</pdfrwt>
<totfact> 0.40748977E+04</totfact>
</mgrwt>
</event>
<event>
 7    0  0.4770865E-002  0.4535875E+03  0.7546771E-02  0.1026658E+00
         21   -1    0    0  502  501  0.00000000000E+00  0.00000000000E+00  0.29283356560E+03  0.29283356560E+03  0.00000000000E+00 0. -1.
         21   -1    0    0  501  502 -0.00000000000E+00 -0.00000000000E+00 -0.17564719564E+03  0.17564719564E+03  0.00000000000E+00 0. -1.
      99926    2    1    2    0    0  0.00000000000E+00  0.00000000000E+00  0.11718636996E+03  0.46848076124E+03  0.45358745391E+03 0.  0.
      99925    2    3    3    0    0  0.81491603999E+02 -0.76467361324E+02  0.68326075440E+02  0.29377250342E+03  0.26295568507E+03 0.  0.
         25    1    3    3    0    0 -0.81491603999E+02  0.76467361324E+02  0.48860294516E+02  0.17470825782E+03  0.12509000000E+03 0.  0.
         25    1    4    4    0    0  0.18384539917E+02 -0.71864319396E+02  0.38738915638E+02  0.15050143984E+03  0.12509000000E+03 0.  0.
         25    1    4    4    0    0  0.63107064082E+02 -0.46030419286E+01  0.29587159802E+02  0.14327106357E+03  0.12509000000E+03 0.  0.
<mgrwt>
<rscale>  2 0.45358745E+03</rscale>
<asrwt>0</asrwt>
<pdfrwt beam="1">  1       21 0.43063760E-01 0.45358745E+03</pdfrwt>
<pdfrwt beam="2">  1       21 0.25830470E-01 0.45358745E+03</pdfrwt>
<totfact> 0.68311146E+04</totfact>
</mgrwt>
</event>
<event>
 7    0  0.4770865E-002  0.4605893E+03  0.7546771E-02  0.1024610E+00
         21   -1    0    0  502  501  0.00000000000E+00  0.00000000000E+00  0.30374754665E+03  0.30374754665E+03  0.00000000000E+00 0.  1.
         21   -1    0    0  501  502 -0.00000000000E+00 -0.00000000000E+00 -0.17460429940E+03  0.17460429940E+03  0.00000000000E+00 0.  1.
      99926    2    1    2    0    0  0.00000000000E+00  0.14210854715E-13  0.12914324725E+03  0.47835184604E+03  0.46058930763E+03 0.  0.
      99925    2    3    3    0    0 -0.73154504187E+02 -0.84092863113E+02  0.39740225963E+02  0.28844766119E+03  0.26305812395E+03 0.  0.
         25    1    3    3    0    0  0.73154504187E+02  0.84092863113E+02  0.89403021286E+02  0.18990418485E+03  0.12509000000E+03 0.  0.
         25    1    4    4    0    0 -0.40311712667E+02 -0.56589704897E+02 -0.17904658354E+02  0.14420649697E+03  0.12509000000E+03 0.  0.
         25    1    4    4    0    0 -0.32842791520E+02 -0.27503158216E+02  0.57644884316E+02  0.14424116422E+03  0.12509000000E+03 0.  0.
<mgrwt>
<rscale>  2 0.46058931E+03</rscale>
<asrwt>0</asrwt>
<pdfrwt beam="1">  1       21 0.44668757E-01 0.46058931E+03</pdfrwt>
<pdfrwt beam="2">  1       21 0.25677103E-01 0.46058931E+03</pdfrwt>
<totfact> 0.63936899E+04</totfact>
</mgrwt>
</event>
<event>
 7    0  0.4770865E-002  0.4510317E+03  0.7546771E-02  0.1027415E+00
         21   -1    0    0  502  501  0.00000000000E+00  0.00000000000E+00  0.47382364021E+02  0.47382364021E+02  0.00000000000E+00 0. -1.
         21   -1    0    0  501  502 -0.00000000000E+00 -0.00000000000E+00 -0.10733403662E+04  0.10733403662E+04  0.00000000000E+00 0. -1.
      99926    2    1    2    0    0  0.00000000000E+00  0.00000000000E+00 -0.10259580021E+04  0.11207227302E+04  0.45103172371E+03 0.  0.
      99925    2    3    3    0    0 -0.80081093249E+02 -0.74068191819E+02 -0.64651739205E+03  0.70657087009E+03  0.26336016725E+03 0.  0.
         25    1    4    4    0    0 -0.62122383398E+01 -0.11437940993E+02 -0.31733808345E+03  0.34135082497E+03  0.12509000000E+03 0.  0.
         25    1    4    4    0    0 -0.73868854909E+02 -0.62630250826E+02 -0.32917930860E+03  0.36522004512E+03  0.12509000000E+03 0.  0.
         25    1    3    3    0    0  0.80081093249E+02  0.74068191819E+02 -0.37944061008E+03  0.41415186009E+03  0.12509000000E+03 0.  0.
<mgrwt>
<rscale>  2 0.45103172E+03</rscale>
<asrwt>0</asrwt>
<pdfrwt beam="1">  1       21 0.69679948E-02 0.45103172E+03</pdfrwt>
<pdfrwt beam="2">  1       21 0.15784417E+00 0.45103172E+03</pdfrwt>
<totfact> 0.35872020E+04</totfact>
</mgrwt>
</event>
<event>
 7    0  0.4770865E-002  0.4545025E+03  0.7546771E-02  0.1026388E+00
         21   -1    0    0  502  501  0.00000000000E+00  0.00000000000E+00  0.23194529230E+03  0.23194529230E+03  0.00000000000E+00 0.  1.
         21   -1    0    0  501  502 -0.00000000000E+00 -0.00000000000E+00 -0.22265216817E+03  0.22265216817E+03  0.00000000000E+00 0.  1.
      99926    2    1    2    0    0 -0.17763568394E-14  0.33306690739E-15  0.92931241322E+01  0.45459746046E+03  0.45450246303E+03 0.  0.
      99925    2    3    3    0    0  0.83862192168E+01 -0.55247910668E+00  0.11825161756E+03  0.28849479554E+03  0.26301172615E+03 0.  0.
         25    1    4    4    0    0 -0.12428814776E+02 -0.55661598600E+01  0.99059163971E+02  0.16014269774E+03  0.12509000000E+03 0.  0.
         25    1    3    3    0    0 -0.83862192168E+01  0.55247910668E+00 -0.10895849342E+03  0.16610266492E+03  0.12509000000E+03 0.  0.
         25    1    4    4    0    0  0.20815033992E+02  0.50136807533E+01  0.19192453585E+02  0.12835209780E+03  0.12509000000E+03 0.  0.
<mgrwt>
<rscale>  2 0.45450246E+03</rscale>
<asrwt>0</asrwt>
<pdfrwt beam="1">  1       21 0.34109602E-01 0.45450246E+03</pdfrwt>
<pdfrwt beam="2">  1       21 0.32742966E-01 0.45450246E+03</pdfrwt>
<totfact> 0.68848205E+04</totfact>
</mgrwt>
</event>
<event>
 7    0  0.4770865E-002  0.4547420E+03  0.7546771E-02  0.1026317E+00
         21   -1    0    0  502  501  0.00000000000E+00  0.00000000000E+00  0.16696102809E+03  0.16696102809E+03  0.00000000000E+00 0.  1.
         21   -1    0    0  501  502 -0.00000000000E+00 -0.00000000000E+00 -0.30963850552E+03  0.30963850552E+03  0.00000000000E+00 0.  1.
      99926    2    1    2    0    0  0.00000000000E+00  0.00000000000E+00 -0.14267747743E+03  0.47659953360E+03  0.45474196295E+03 0.  0.
      99925    2    3    3    0    0  0.78481001476E+02  0.74556540336E+02 -0.12370640715E+03  0.31009020982E+03  0.26293481656E+03 0.  0.
         25    1    4    4    0    0  0.67738040153E+02  0.89650874173E+01 -0.67232038078E+02  0.15759590705E+03  0.12509000000E+03 0.  0.
         25    1    3    3    0    0 -0.78481001476E+02 -0.74556540336E+02 -0.18971070284E+02  0.16650932379E+03  0.12509000000E+03 0.  0.
         25    1    4    4    0    0  0.10742961323E+02  0.65591452919E+02 -0.56474369070E+02  0.15249430277E+03  0.12509000000E+03 0.  0.
<mgrwt>
<rscale>  2 0.45474196E+03</rscale>
<asrwt>0</asrwt>
<pdfrwt beam="1">  1       21 0.24553093E-01 0.45474196E+03</pdfrwt>
<pdfrwt beam="2">  1       21 0.45535074E-01 0.45474196E+03</pdfrwt>
<totfact> 0.67085750E+04</totfact>
</mgrwt>
</event>
<event>
 7    0  0.4770865E-002  0.4416138E+03  0.7546771E-02  0.1030253E+00
         21   -1    0    0  502  501  0.00000000000E+00  0.00000000000E+00  0.12551031431E+04  0.12551031431E+04  0.00000000000E+00 0.  1.
         21   -1    0    0  501  502 -0.00000000000E+00 -0.00000000000E+00 -0.38845959723E+02  0.38845959723E+02  0.00000000000E+00 0.  1.
      99926    2    1    2    0    0  0.14210854715E-13  0.00000000000E+00  0.12162571833E+04  0.12939491028E+04  0.44161379573E+03 0.  0.
      99925    2    3    3    0    0 -0.92782361485E+02 -0.37393476306E+02  0.76514300177E+03  0.81524423380E+03  0.26300667087E+03 0.  0.
         25    1    3    3    0    0  0.92782361485E+02  0.37393476306E+02  0.45111418158E+03  0.47870486899E+03  0.12509000000E+03 0.  0.
         25    1    4    4    0    0 -0.81416436109E+02 -0.99405770553E+01  0.47227266426E+03  0.49539522469E+03  0.12509000000E+03 0.  0.
         25    1    4    4    0    0 -0.11365925377E+02 -0.27452899250E+02  0.29287033750E+03  0.31984900911E+03  0.12509000000E+03 0.  0.
<mgrwt>
<rscale>  2 0.44161380E+03</rscale>
<asrwt>0</asrwt>
<pdfrwt beam="1">  1       21 0.18457396E+00 0.44161380E+03</pdfrwt>
<pdfrwt beam="2">  1       21 0.57126420E-02 0.44161380E+03</pdfrwt>
<totfact> 0.32550114E+04</totfact>
</mgrwt>
</event>
<event>
 7    0  0.4770865E-002  0.4522447E+03  0.7546771E-02  0.1027055E+00
         21   -1    0    0  502  501  0.00000000000E+00  0.00000000000E+00  0.60342691324E+03  0.60342691324E+03  0.00000000000E+00 0. -1.
         21   -1    0    0  501  502 -0.00000000000E+00 -0.00000000000E+00 -0.84734894257E+02  0.84734894257E+02  0.00000000000E+00 0. -1.
      99926    2    1    2    0    0  0.00000000000E+00  0.00000000000E+00  0.51869201899E+03  0.68816180750E+03  0.45224469344E+03 0.  0.
      99925    2    3    3    0    0  0.88362152290E+02 -0.42870943528E+02  0.40451974755E+03  0.49238488491E+03  0.26298452610E+03 0.  0.
         25    1    4    4    0    0  0.78462195073E+02 -0.14921190802E+02  0.25641157595E+03  0.29626569557E+03  0.12509000000E+03 0.  0.
         25    1    3    3    0    0 -0.88362152290E+02  0.42870943528E+02  0.11417227143E+03  0.19577692259E+03  0.12509000000E+03 0.  0.
         25    1    4    4    0    0  0.98999572168E+01 -0.27949752727E+02  0.14810817161E+03  0.19611918934E+03  0.12509000000E+03 0.  0.
<mgrwt>
<rscale>  2 0.45224469E+03</rscale>
<asrwt>0</asrwt>
<pdfrwt beam="1">  1       21 0.88739250E-01 0.45224469E+03</pdfrwt>
<pdfrwt beam="2">  1       21 0.12461014E-01 0.45224469E+03</pdfrwt>
<totfact> 0.54728021E+04</totfact>
</mgrwt>
</event>
<event>
 7    0  0.4770865E-002  0.4576207E+03  0.7546771E-02  0.1025474E+00
         21   -1    0    0  502  501  0.00000000000E+00  0.00000000000E+00  0.35724594803E+03  0.35724594803E+03  0.00000000000E+00 0.  1.
         21   -1    0    0  501  502 -0.00000000000E+00 -0.00000000000E+00 -0.14654942262E+03  0.14654942262E+03  0.00000000000E+00 0.  1.
      99926    2    1    2    0    0 -0.71054273576E-14 -0.14210854715E-13  0.21069652541E+03  0.50379537065E+03  0.45762074873E+03 0.  0.
      99925    2    3    3    0    0  0.57758282887E+02  0.75955952453E+02  0.60582072972E+02  0.28633920751E+03  0.26308673140E+03 0.  0.
         25    1    4    4    0    0  0.68487855878E+02  0.32112621874E+02  0.41752867561E+02  0.15202834254E+03  0.12509000000E+03 0.  0.
         25    1    3    3    0    0 -0.57758282887E+02 -0.75955952453E+02  0.15011445244E+03  0.21745616314E+03  0.12509000000E+03 0.  0.
         25    1    4    4    0    0 -0.10729572991E+02  0.43843330579E+02  0.18829205411E+02  0.13431086497E+03  0.12509000000E+03 0.  0.
<mgrwt>
<rscale>  2 0.45762075E+03</rscale>
<asrwt>0</asrwt>
<pdfrwt beam="1">  1       21 0.52536169E-01 0.45762075E+03</pdfrwt>
<pdfrwt beam="2">  1       21 0.21551386E-01 0.45762075E+03</pdfrwt>
<totfact> 0.63669982E+04</totfact>
</mgrwt>
</event>
<event>
 7    0  0.4770865E-002  0.4603648E+03  0.7546771E-02  0.1024675E+00
         21   -1    0    0  502  501  0.00000000000E+00  0.00000000000E+00  0.82184528204E+02  0.82184528204E+02  0.00000000000E+00 0.  1.
         21   -1    0    0  501  502 -0.00000000000E+00 -0.00000000000E+00 -0.64469480252E+03  0.64469480252E+03  0.00000000000E+00 0.  1.
      99926    2    1    2    0    0 -0.17763568394E-14  0.00000000000E+00 -0.56251027431E+03  0.72687933072E+03  0.46036480396E+03 0.  0.
      99925    2    3    3    0    0  0.87759219579E+01 -0.94842569795E+02 -0.24189143641E+03  0.36978539746E+03  0.26297840846E+03 0.  0.
         25    1    4    4    0    0  0.19245919359E+02 -0.21949704904E+02 -0.15217681526E+03  0.19914187445E+03  0.12509000000E+03 0.  0.
         25    1    4    4    0    0 -0.10469997401E+02 -0.72892864891E+02 -0.89714621149E+02  0.17064352301E+03  0.12509000000E+03 0.  0.
         25    1    3    3    0    0 -0.87759219579E+01  0.94842569795E+02 -0.32061883791E+03  0.35709393326E+03  0.12509000000E+03 0.  0.
<mgrwt>
<rscale>  2 0.46036480E+03</rscale>
<asrwt>0</asrwt>
<pdfrwt beam="1">  1       21 0.12085960E-01 0.46036480E+03</pdfrwt>
<pdfrwt beam="2">  1       21 0.94808061E-01 0.46036480E+03</pdfrwt>
<totfact> 0.49352423E+04</totfact>
</mgrwt>
</event>
<event>
 7    0  0.4770865E-002  0.4367677E+03  0.7546771E-02  0.1031743E+00
         21   -1    0    0  502  501  0.00000000000E+00  0.00000000000E+00  0.53283755020E+03  0.53283755020E+03  0.00000000000E+00 0. -1.
         21   -1    0    0  501  502 -0.00000000000E+00 -0.00000000000E+00 -0.89504795426E+02  0.89504795426E+02  0.00000000000E+00 0. -1.
      99926    2    1    2    0    0  0.00000000000E+00  0.00000000000E+00  0.44333275477E+03  0.62234234563E+03  0.43676774572E+03 0.  0.
      99925    2    3    3    0    0 -0.86466108246E+02 -0.37652405648E+02  0.30109949752E+03  0.41074863330E+03  0.26298182604E+03 0.  0.
         25    1    4    4    0    0 -0.24314022441E+02 -0.24120035747E+02  0.92350057757E+02  0.15921365858E+03  0.12509000000E+03 0.  0.
         25    1    3    3    0    0  0.86466108246E+02  0.37652405648E+02  0.14223325725E+03  0.21159371232E+03  0.12509000000E+03 0.  0.
         25    1    4    4    0    0 -0.62152085805E+02 -0.13532369902E+02  0.20874943976E+03  0.25153497472E+03  0.12509000000E+03 0.  0.
<mgrwt>
<rscale>  2 0.43676775E+03</rscale>
<asrwt>0</asrwt>
<pdfrwt beam="1">  1       21 0.78358462E-01 0.43676775E+03</pdfrwt>
<pdfrwt beam="2">  1       21 0.13162470E-01 0.43676775E+03</pdfrwt>
<totfact> 0.66374174E+04</totfact>
</mgrwt>
</event>
<event>
 7    0  0.4770865E-002  0.4557154E+03  0.7546771E-02  0.1026031E+00
         21   -1    0    0  502  501  0.00000000000E+00  0.00000000000E+00  0.13465999273E+03  0.13465999273E+03  0.00000000000E+00 0.  1.
         21   -1    0    0  501  502 -0.00000000000E+00 -0.00000000000E+00 -0.38555714840E+03  0.38555714840E+03  0.00000000000E+00 0.  1.
      99926    2    1    2    0    0 -0.14210854715E-13 -0.71054273576E-14 -0.25089715567E+03  0.52021714112E+03  0.45571536204E+03 0.  0.
      99925    2    3    3    0    0  0.97871258798E+02  0.50794754771E+02 -0.12429294208E+03  0.31084898354E+03  0.26271555856E+03 0.  0.
         25    1    4    4    0    0  0.74140772988E+02  0.30947011246E+01 -0.88500933203E+02  0.17025379488E+03  0.12509000000E+03 0.  0.
         25    1    3    3    0    0 -0.97871258798E+02 -0.50794754771E+02 -0.12660421359E+03  0.20936815758E+03  0.12509000000E+03 0.  0.
         25    1    4    4    0    0  0.23730485810E+02  0.47700053647E+02 -0.35792008875E+02  0.14059518866E+03  0.12509000000E+03 0.  0.
<mgrwt>
<rscale>  2 0.45571536E+03</rscale>
<asrwt>0</asrwt>
<pdfrwt beam="1">  1       21 0.19802940E-01 0.45571536E+03</pdfrwt>
<pdfrwt beam="2">  1       21 0.56699580E-01 0.45571536E+03</pdfrwt>
<totfact> 0.63511246E+04</totfact>
</mgrwt>
</event>
<event>
 7    0  0.4770865E-002  0.4618019E+03  0.7546771E-02  0.1024260E+00
         21   -1    0    0  502  501  0.00000000000E+00  0.00000000000E+00  0.42611281005E+02  0.42611281005E+02  0.00000000000E+00 0. -1.
         21   -1    0    0  501  502 -0.00000000000E+00 -0.00000000000E+00 -0.12512005442E+04  0.12512005442E+04  0.00000000000E+00 0. -1.
      99926    2    1    2    0    0  0.00000000000E+00  0.00000000000E+00 -0.12085892632E+04  0.12938118252E+04  0.46180194016E+03 0.  0.
      99925    2    3    3    0    0 -0.87529936199E+02  0.68609117651E+02 -0.63404958704E+03  0.69538718639E+03  0.26301285030E+03 0.  0.
         25    1    3    3    0    0  0.87529936199E+02 -0.68609117651E+02 -0.57453967616E+03  0.59842463882E+03  0.12509000000E+03 0.  0.
         25    1    4    4    0    0 -0.51395979639E+02  0.47321471264E+01 -0.24036045840E+03  0.27583436697E+03  0.12509000000E+03 0.  0.
         25    1    4    4    0    0 -0.36133956561E+02  0.63876970524E+02 -0.39368912864E+03  0.41955281943E+03  0.12509000000E+03 0.  0.
<mgrwt>
<rscale>  2 0.46180194E+03</rscale>
<asrwt>0</asrwt>
<pdfrwt beam="1">  1       21 0.62663650E-02 0.46180194E+03</pdfrwt>
<pdfrwt beam="2">  1       21 0.18400007E+00 0.46180194E+03</pdfrwt>
<totfact> 0.27794657E+04</totfact>
</mgrwt>
</event>
<event>
 7    0  0.4770865E-002  0.4499610E+03  0.7546771E-02  0.1027734E+00
         21   -1    0    0  502  501  0.00000000000E+00  0.00000000000E+00  0.62358324776E+03  0.62358324776E+03  0.00000000000E+00 0.  1.
         21   -1    0    0  501  502 -0.00000000000E+00 -0.00000000000E+00 -0.81169969085E+02  0.81169969085E+02  0.00000000000E+00 0.  1.
      99926    2    1    2    0    0  0.00000000000E+00  0.00000000000E+00  0.54241327868E+03  0.70475321685E+03  0.44996103362E+03 0.  0.
      99925    2    3    3    0    0  0.58493968964E+02  0.67285197561E+02  0.43961194122E+03  0.51991689656E+03  0.26288034968E+03 0.  0.
         25    1    4    4    0    0  0.54249355707E+02  0.23601852990E+02  0.28083063798E+03  0.31307091111E+03  0.12509000000E+03 0.  0.
         25    1    3    3    0    0 -0.58493968964E+02 -0.67285197561E+02  0.10280133746E+03  0.18483632030E+03  0.12509000000E+03 0.  0.
         25    1    4    4    0    0  0.42446132572E+01  0.43683344571E+02  0.15878130324E+03  0.20684598544E+03  0.12509000000E+03 0.  0.
<mgrwt>
<rscale>  2 0.44996103E+03</rscale>
<asrwt>0</asrwt>
<pdfrwt beam="1">  1       21 0.91703417E-01 0.44996103E+03</pdfrwt>
<pdfrwt beam="2">  1       21 0.11936760E-01 0.44996103E+03</pdfrwt>
<totfact> 0.54785805E+04</totfact>
</mgrwt>
</event>
<event>
 7    0  0.4770865E-002  0.4620163E+03  0.7546771E-02  0.1024198E+00
         21   -1    0    0  502  501  0.00000000000E+00  0.00000000000E+00  0.13142895608E+04  0.13142895608E+04  0.00000000000E+00 0.  1.
         21   -1    0    0  501  502 -0.00000000000E+00 -0.00000000000E+00 -0.40603500313E+02  0.40603500313E+02  0.00000000000E+00 0.  1.
      99926    2    1    2    0    0  0.00000000000E+00 -0.71054273576E-14  0.12736860605E+04  0.13548930611E+04  0.46201626202E+03 0.  0.
      99925    2    3    3    0    0 -0.70117762879E+02 -0.48321208498E+02  0.54917475056E+03  0.61474740911E+03  0.26281177770E+03 0.  0.
         25    1    4    4    0    0 -0.50601932203E+02 -0.62466877470E+02  0.30673128359E+03  0.34087278383E+03  0.12509000000E+03 0.  0.
         25    1    4    4    0    0 -0.19515830676E+02  0.14145668972E+02  0.24244346697E+03  0.27387462528E+03  0.12509000000E+03 0.  0.
         25    1    3    3    0    0  0.70117762879E+02  0.48321208498E+02  0.72451130993E+03  0.74014565200E+03  0.12509000000E+03 0.  0.
<mgrwt>
<rscale>  2 0.46201626E+03</rscale>
<asrwt>0</asrwt>
<pdfrwt beam="1">  1       21 0.19327785E+00 0.46201626E+03</pdfrwt>
<pdfrwt beam="2">  1       21 0.59711039E-02 0.46201626E+03</pdfrwt>
<totfact> 0.26106146E+04</totfact>
</mgrwt>
</event>
<event>
 7    0  0.4770865E-002  0.4498748E+03  0.7546771E-02  0.1027759E+00
         21   -1    0    0  502  501  0.00000000000E+00  0.00000000000E+00  0.13446330372E+03  0.13446330372E+03  0.00000000000E+00 0.  1.
         21   -1    0    0  501  502 -0.00000000000E+00 -0.00000000000E+00 -0.37628724400E+03  0.37628724400E+03  0.00000000000E+00 0.  1.
      99926    2    1    2    0    0  0.14210854715E-13  0.00000000000E+00 -0.24182394028E+03  0.51075054772E+03  0.44987476469E+03 0.  0.
      99925    2    3    3    0    0 -0.87829489241E+02  0.61638763282E+02 -0.13725463509E+03  0.31556959576E+03  0.26311970393E+03 0.  0.
         25    1    4    4    0    0 -0.82695353797E+02  0.38133760976E+02 -0.56360387329E+02  0.16467151128E+03  0.12509000000E+03 0.  0.
         25    1    4    4    0    0 -0.51341354444E+01  0.23505002306E+02 -0.80894247759E+02  0.15089808448E+03  0.12509000000E+03 0.  0.
         25    1    3    3    0    0  0.87829489241E+02 -0.61638763282E+02 -0.10456930519E+03  0.19518095196E+03  0.12509000000E+03 0.  0.
<mgrwt>
<rscale>  2 0.44987476E+03</rscale>
<asrwt>0</asrwt>
<pdfrwt beam="1">  1       21 0.19774015E-01 0.44987476E+03</pdfrwt>
<pdfrwt beam="2">  1       21 0.55336359E-01 0.44987476E+03</pdfrwt>
<totfact> 0.67214147E+04</totfact>
</mgrwt>
</event>
<event>
 6    0  0.4770865E-002  0.4578025E+03  0.7546771E-02  0.1025420E+00
         21   -1    0    0  502  501  0.00000000000E+00  0.00000000000E+00  0.12099003245E+03  0.12099003245E+03  0.00000000000E+00 0.  1.
         21   -1    0    0  501  502 -0.00000000000E+00 -0.00000000000E+00 -0.43305858955E+03  0.43305858955E+03  0.00000000000E+00 0.  1.
      99926    2    1    2    0    0  0.00000000000E+00  0.00000000000E+00 -0.31206855710E+03  0.55404862199E+03  0.45780245872E+03 0.  0.
         25    1    3    3    0    0  0.36857113698E+02  0.81274984314E+01 -0.11274145736E+03  0.17257649715E+03  0.12509000000E+03 0.  0.
         25    1    3    3    0    0  0.23066608508E+02  0.24661027445E+02  0.80755904954E+01  0.12981894301E+03  0.12509000000E+03 0.  0.
         25    1    3    3    0    0 -0.59923722206E+02 -0.32788525877E+02 -0.20740269023E+03  0.25165318183E+03  0.12509000000E+03 0.  0.
<mgrwt>
<rscale>  2 0.45780246E+03</rscale>
<asrwt>0</asrwt>
<pdfrwt beam="1">  1       21 0.17792652E-01 0.45780246E+03</pdfrwt>
<pdfrwt beam="2">  1       21 0.63685086E-01 0.45780246E+03</pdfrwt>
<totfact> 0.60252771E+04</totfact>
</mgrwt>
</event>
<event>
 7    0  0.4770865E-002  0.4516359E+03  0.7546771E-02  0.1027235E+00
         21   -1    0    0  502  501  0.00000000000E+00  0.00000000000E+00  0.16517672586E+03  0.16517672586E+03  0.00000000000E+00 0.  1.
         21   -1    0    0  501  502 -0.00000000000E+00 -0.00000000000E+00 -0.30872235891E+03  0.30872235891E+03  0.00000000000E+00 0.  1.
      99926    2    1    2    0    0 -0.35527136788E-14  0.00000000000E+00 -0.14354563305E+03  0.47389908477E+03  0.45163590843E+03 0.  0.
      99925    2    3    3    0    0 -0.11631697866E+02  0.10025196725E+03 -0.13489428120E+03  0.31293912913E+03  0.26372083366E+03 0.  0.
         25    1    4    4    0    0  0.31160619081E+02  0.69119967232E+02 -0.76851595728E+02  0.16523386432E+03  0.12509000000E+03 0.  0.
         25    1    4    4    0    0 -0.42792316947E+02  0.31132000019E+02 -0.58042685476E+02  0.14770526481E+03  0.12509000000E+03 0.  0.
         25    1    3    3    0    0  0.11631697866E+02 -0.10025196725E+03 -0.86513518436E+01  0.16095995565E+03  0.12509000000E+03 0.  0.
<mgrwt>
<rscale>  2 0.45163591E+03</rscale>
<asrwt>0</asrwt>
<pdfrwt beam="1">  1       21 0.24290695E-01 0.45163591E+03</pdfrwt>
<pdfrwt beam="2">  1       21 0.45400347E-01 0.45163591E+03</pdfrwt>
<totfact> 0.68970001E+04</totfact>
</mgrwt>
</event>
<event>
 7    0  0.4770865E-002  0.4488985E+03  0.7546771E-02  0.1028051E+00
         21   -1    0    0  502  501  0.00000000000E+00  0.00000000000E+00  0.28253531130E+03  0.28253531130E+03  0.00000000000E+00 0. -1.
         21   -1    0    0  501  502 -0.00000000000E+00 -0.00000000000E+00 -0.17830498726E+03  0.17830498726E+03  0.00000000000E+00 0. -1.
      99926    2    1    2    0    0  0.00000000000E+00  0.00000000000E+00  0.10423032404E+03  0.46084029856E+03  0.44889845214E+03 0.  0.
      99925    2    3    3    0    0  0.27524826184E+02 -0.73929391459E+02 -0.87330715521E+01  0.27474514059E+03  0.26303128095E+03 0.  0.
         25    1    4    4    0    0  0.40448520686E+02 -0.16243218474E+02 -0.26996011168E+02  0.13518956206E+03  0.12509000000E+03 0.  0.
         25    1    4    4    0    0 -0.12923694503E+02 -0.57686172985E+02  0.18262939616E+02  0.13955557852E+03  0.12509000000E+03 0.  0.
         25    1    3    3    0    0 -0.27524826184E+02  0.73929391459E+02  0.11296339560E+03  0.18609515798E+03  0.12509000000E+03 0.  0.
<mgrwt>
<rscale>  2 0.44889845E+03</rscale>
<asrwt>0</asrwt>
<pdfrwt beam="1">  1       21 0.41549311E-01 0.44889845E+03</pdfrwt>
<pdfrwt beam="2">  1       21 0.26221321E-01 0.44889845E+03</pdfrwt>
<totfact> 0.71522708E+04</totfact>
</mgrwt>
</event>
<event>
 7    0  0.4770865E-002  0.4526312E+03  0.7546771E-02  0.1026940E+00
         21   -1    0    0  502  501  0.00000000000E+00  0.00000000000E+00  0.16335295405E+03  0.16335295405E+03  0.00000000000E+00 0.  1.
         21   -1    0    0  501  502 -0.00000000000E+00 -0.00000000000E+00 -0.31354653177E+03  0.31354653177E+03  0.00000000000E+00 0.  1.
      99926    2    1    2    0    0  0.00000000000E+00 -0.17763568394E-14 -0.15019357773E+03  0.47689948582E+03  0.45263120616E+03 0.  0.
      99925    2    3    3    0    0 -0.51682237022E+02 -0.12563662878E+02 -0.19735192962E+03  0.33302343673E+03  0.26292190102E+03 0.  0.
         25    1    4    4    0    0 -0.20178976293E+02 -0.46087025065E+02 -0.93896771257E+02  0.16430251585E+03  0.12509000000E+03 0.  0.
         25    1    4    4    0    0 -0.31503260729E+02  0.33523362187E+02 -0.10345515837E+03  0.16872092088E+03  0.12509000000E+03 0.  0.
         25    1    3    3    0    0  0.51682237022E+02  0.12563662878E+02  0.47158351895E+02  0.14387604909E+03  0.12509000000E+03 0.  0.
<mgrwt>
<rscale>  2 0.45263121E+03</rscale>
<asrwt>0</asrwt>
<pdfrwt beam="1">  1       21 0.24022493E-01 0.45263121E+03</pdfrwt>
<pdfrwt beam="2">  1       21 0.46109784E-01 0.45263121E+03</pdfrwt>
<totfact> 0.68199725E+04</totfact>
</mgrwt>
</event>
<event>
 7    0  0.4770865E-002  0.4518758E+03  0.7546771E-02  0.1027164E+00
         21   -1    0    0  502  501  0.00000000000E+00  0.00000000000E+00  0.11926600598E+04  0.11926600598E+04  0.00000000000E+00 0.  1.
         21   -1    0    0  501  502 -0.00000000000E+00 -0.00000000000E+00 -0.42801750401E+02  0.42801750401E+02  0.00000000000E+00 0.  1.
      99926    2    1    2    0    0  0.00000000000E+00  0.00000000000E+00  0.11498583094E+04  0.12354618102E+04  0.45187581565E+03 0.  0.
      99925    2    3    3    0    0  0.73485308799E+02 -0.80717497877E+02  0.68363826331E+03  0.74056379591E+03  0.26297919248E+03 0.  0.
         25    1    3    3    0    0 -0.73485308799E+02  0.80717497877E+02  0.46622004606E+03  0.49489801426E+03  0.12509000000E+03 0.  0.
         25    1    4    4    0    0  0.81177493431E+01 -0.52235901767E+02  0.26346458678E+03  0.29640442621E+03  0.12509000000E+03 0.  0.
         25    1    4    4    0    0  0.65367559455E+02 -0.28481596110E+02  0.42017367653E+03  0.44415936970E+03  0.12509000000E+03 0.  0.
<mgrwt>
<rscale>  2 0.45187582E+03</rscale>
<asrwt>0</asrwt>
<pdfrwt beam="1">  1       21 0.17539116E+00 0.45187582E+03</pdfrwt>
<pdfrwt beam="2">  1       21 0.62943758E-02 0.45187582E+03</pdfrwt>
<totfact> 0.31814952E+04</totfact>
</mgrwt>
</event>
<event>
 7    0  0.4770865E-002  0.4410866E+03  0.7546771E-02  0.1030414E+00
         21   -1    0    0  502  501  0.00000000000E+00  0.00000000000E+00  0.25894491048E+02  0.25894491048E+02  0.00000000000E+00 0. -1.
         21   -1    0    0  501  502 -0.00000000000E+00 -0.00000000000E+00 -0.18783667564E+04  0.18783667564E+04  0.00000000000E+00 0. -1.
      99926    2    1    2    0    0  0.71054273576E-14 -0.14210854715E-13 -0.18524722654E+04  0.19042612475E+04  0.44108661807E+03 0.  0.
      99925    2    3    3    0    0 -0.33026008688E+02  0.85546273964E+02 -0.10138451171E+04  0.10514119735E+04  0.26301394308E+03 0.  0.
         25    1    3    3    0    0  0.33026008688E+02 -0.85546273964E+02 -0.83862714827E+03  0.85284927399E+03  0.12509000000E+03 0.  0.
         25    1    4    4    0    0  0.14835645651E+02  0.56610521799E+02 -0.42679802237E+03  0.44858545180E+03  0.12509000000E+03 0.  0.
         25    1    4    4    0    0 -0.47861654339E+02  0.28935752165E+02 -0.58704709475E+03  0.60282652170E+03  0.12509000000E+03 0.  0.
<mgrwt>
<rscale>  2 0.44108662E+03</rscale>
<asrwt>0</asrwt>
<pdfrwt beam="1">  1       21 0.38080126E-02 0.44108662E+03</pdfrwt>
<pdfrwt beam="2">  1       21 0.27623046E+00 0.44108662E+03</pdfrwt>
<totfact> 0.17110873E+04</totfact>
</mgrwt>
</event>
<event>
 7    0  0.4770865E-002  0.4567089E+03  0.7546771E-02  0.1025740E+00
         21   -1    0    0  502  501  0.00000000000E+00  0.00000000000E+00  0.21713530829E+03  0.21713530829E+03  0.00000000000E+00 0.  1.
         21   -1    0    0  501  502 -0.00000000000E+00 -0.00000000000E+00 -0.24015330528E+03  0.24015330528E+03  0.00000000000E+00 0.  1.
      99926    2    1    2    0    0 -0.14210854715E-13  0.00000000000E+00 -0.23017996985E+02  0.45728861357E+03  0.45670893128E+03 0.  0.
      99925    2    3    3    0    0  0.91531631317E+02 -0.47684182410E+02 -0.65717733723E+02  0.28959068155E+03  0.26247308726E+03 0.  0.
         25    1    4    4    0    0  0.11285626498E+02 -0.14594326384E+02 -0.77747507996E+01  0.12668194259E+03  0.12509000000E+03 0.  0.
         25    1    3    3    0    0 -0.91531631317E+02  0.47684182410E+02  0.42699736738E+02  0.16769793201E+03  0.12509000000E+03 0.  0.
         25    1    4    4    0    0  0.80246004819E+02 -0.33089856026E+02 -0.57942982923E+02  0.16290873897E+03  0.12509000000E+03 0.  0.
<mgrwt>
<rscale>  2 0.45670893E+03</rscale>
<asrwt>0</asrwt>
<pdfrwt beam="1">  1       21 0.31931663E-01 0.45670893E+03</pdfrwt>
<pdfrwt beam="2">  1       21 0.35316662E-01 0.45670893E+03</pdfrwt>
<totfact> 0.67454023E+04</totfact>
</mgrwt>
</event>
<event>
 7    0  0.4770865E-002  0.4586725E+03  0.7546771E-02  0.1025167E+00
         21   -1    0    0  502  501  0.00000000000E+00  0.00000000000E+00  0.30584531566E+03  0.30584531566E+03  0.00000000000E+00 0. -1.
         21   -1    0    0  501  502 -0.00000000000E+00 -0.00000000000E+00 -0.17196642908E+03  0.17196642908E+03  0.00000000000E+00 0. -1.
      99926    2    1    2    0    0  0.14210854715E-13  0.00000000000E+00  0.13387888658E+03  0.47781174474E+03  0.45867254893E+03 0.  0.
      99925    2    3    3    0    0 -0.68291674207E+02  0.85263857763E+02  0.41651402977E+02  0.28784570820E+03  0.26303352287E+03 0.  0.
         25    1    4    4    0    0 -0.24154715283E+01  0.20072704751E+02  0.37351647411E+02  0.13210375333E+03  0.12509000000E+03 0.  0.
         25    1    3    3    0    0  0.68291674207E+02 -0.85263857763E+02  0.92227483603E+02  0.18996603654E+03  0.12509000000E+03 0.  0.
         25    1    4    4    0    0 -0.65876202679E+02  0.65191153012E+02  0.42997555665E+01  0.15574195488E+03  0.12509000000E+03 0.  0.
<mgrwt>
<rscale>  2 0.45867255E+03</rscale>
<asrwt>0</asrwt>
<pdfrwt beam="1">  1       21 0.44977252E-01 0.45867255E+03</pdfrwt>
<pdfrwt beam="2">  1       21 0.25289181E-01 0.45867255E+03</pdfrwt>
<totfact> 0.64946104E+04</totfact>
</mgrwt>
</event>
<event>
 7    0  0.4770865E-002  0.4605129E+03  0.7546771E-02  0.1024633E+00
         21   -1    0    0  502  501  0.00000000000E+00  0.00000000000E+00  0.36353660321E+02  0.36353660321E+02  0.00000000000E+00 0.  1.
         21   -1    0    0  501  502 -0.00000000000E+00 -0.00000000000E+00 -0.14583961963E+04  0.14583961963E+04  0.00000000000E+00 0.  1.
      99926    2    1    2    0    0  0.00000000000E+00 -0.44408920985E-15 -0.14220425360E+04  0.14947498566E+04  0.46051293113E+03 0.  0.
      99925    2    3    3    0    0 -0.43165057687E+02 -0.26844833730E+01 -0.12478371123E+04  0.12759680786E+04  0.26291947464E+03 0.  0.
         25    1    3    3    0    0  0.43165057687E+02  0.26844833730E+01 -0.17420542374E+03  0.21878177808E+03  0.12509000000E+03 0.  0.
         25    1    4    4    0    0 -0.16232777562E+02  0.37413671607E+01 -0.81000010826E+03  0.81977142203E+03  0.12509000000E+03 0.  0.
         25    1    4    4    0    0 -0.26932280125E+02 -0.64258505337E+01 -0.43783700400E+03  0.45619665654E+03  0.12509000000E+03 0.  0.
<mgrwt>
<rscale>  2 0.46051293E+03</rscale>
<asrwt>0</asrwt>
<pdfrwt beam="1">  1       21 0.53461279E-02 0.46051293E+03</pdfrwt>
<pdfrwt beam="2">  1       21 0.21446997E+00 0.46051293E+03</pdfrwt>
<totfact> 0.22911202E+04</totfact>
</mgrwt>
</event>
<event>
 7    0  0.4770865E-002  0.4567758E+03  0.7546771E-02  0.1025720E+00
         21   -1    0    0  502  501  0.00000000000E+00  0.00000000000E+00  0.17583508560E+03  0.17583508560E+03  0.00000000000E+00 0.  1.
         21   -1    0    0  501  502 -0.00000000000E+00 -0.00000000000E+00 -0.29664742377E+03  0.29664742377E+03  0.00000000000E+00 0.  1.
      99926    2    1    2    0    0  0.71054273576E-14  0.00000000000E+00 -0.12081233817E+03  0.47248250936E+03  0.45677576621E+03 0.  0.
      99925    2    3    3    0    0 -0.55824995294E+02  0.19984398867E+02  0.25724343239E+02  0.27089800253E+03  0.26307447547E+03 0.  0.
         25    1    3    3    0    0  0.55824995294E+02 -0.19984398867E+02 -0.14653668141E+03  0.20158450683E+03  0.12509000000E+03 0.  0.
         25    1    4    4    0    0 -0.49834732549E+02  0.25639299817E+02 -0.17744505708E+02  0.13821450664E+03  0.12509000000E+03 0.  0.
         25    1    4    4    0    0 -0.59902627456E+01 -0.56549009505E+01  0.43468848947E+02  0.13268349589E+03  0.12509000000E+03 0.  0.
<mgrwt>
<rscale>  2 0.45677577E+03</rscale>
<asrwt>0</asrwt>
<pdfrwt beam="1">  1       21 0.25858101E-01 0.45677577E+03</pdfrwt>
<pdfrwt beam="2">  1       21 0.43624621E-01 0.45677577E+03</pdfrwt>
<totfact> 0.66312390E+04</totfact>
</mgrwt>
</event>
<event>
 7    0  0.4770865E-002  0.4517005E+03  0.7546771E-02  0.1027216E+00
         21   -1    0    0  502  501  0.00000000000E+00  0.00000000000E+00  0.24913546076E+03  0.24913546076E+03  0.00000000000E+00 0.  1.
         21   -1    0    0  501  502 -0.00000000000E+00 -0.00000000000E+00 -0.20474135235E+03  0.20474135235E+03  0.00000000000E+00 0.  1.
      99926    2    1    2    0    0  0.14210854715E-13 -0.44408920985E-15  0.44394108404E+02  0.45387681311E+03  0.45170048109E+03 0.  0.
      99925    2    3    3    0    0  0.10239671664E+03 -0.24207976470E+01 -0.12469002852E+02  0.28249458135E+03  0.26297673779E+03 0.  0.
         25    1    4    4    0    0  0.93305023006E+02  0.78903425780E+01 -0.11022106227E+02  0.15664316056E+03  0.12509000000E+03 0.  0.
         25    1    4    4    0    0  0.90916936356E+01 -0.10311140225E+02 -0.14468966254E+01  0.12585142079E+03  0.12509000000E+03 0.  0.
         25    1    3    3    0    0 -0.10239671664E+03  0.24207976470E+01  0.56863111256E+02  0.17138223176E+03  0.12509000000E+03 0.  0.
<mgrwt>
<rscale>  2 0.45170048E+03</rscale>
<asrwt>0</asrwt>
<pdfrwt beam="1">  1       21 0.36637568E-01 0.45170048E+03</pdfrwt>
<pdfrwt beam="2">  1       21 0.30109022E-01 0.45170048E+03</pdfrwt>
<totfact> 0.70464982E+04</totfact>
</mgrwt>
</event>
<event>
 7    0  0.4770865E-002  0.4527167E+03  0.7546771E-02  0.1026915E+00
         21   -1    0    0  502  501  0.00000000000E+00  0.00000000000E+00  0.16645674530E+03  0.16645674530E+03  0.00000000000E+00 0.  1.
         21   -1    0    0  501  502 -0.00000000000E+00 -0.00000000000E+00 -0.30781631218E+03  0.30781631218E+03  0.00000000000E+00 0.  1.
      99926    2    1    2    0    0  0.00000000000E+00  0.00000000000E+00 -0.14135956688E+03  0.47427305748E+03  0.45271669497E+03 0.  0.
      99925    2    3    3    0    0 -0.77392091084E+02 -0.41624246235E+02 -0.16017520358E+03  0.32024822208E+03  0.26302226952E+03 0.  0.
         25    1    4    4    0    0 -0.18854356759E+02 -0.34994821405E+02 -0.11579593657E+03  0.17503237221E+03  0.12509000000E+03 0.  0.
         25    1    4    4    0    0 -0.58537734325E+02 -0.66294248303E+01 -0.44379267004E+02  0.14521584987E+03  0.12509000000E+03 0.  0.
         25    1    3    3    0    0  0.77392091084E+02  0.41624246235E+02  0.18815636695E+02  0.15402483540E+03  0.12509000000E+03 0.  0.
<mgrwt>
<rscale>  2 0.45271669E+03</rscale>
<asrwt>0</asrwt>
<pdfrwt beam="1">  1       21 0.24478933E-01 0.45271669E+03</pdfrwt>
<pdfrwt beam="2">  1       21 0.45267104E-01 0.45271669E+03</pdfrwt>
<totfact> 0.68349556E+04</totfact>
</mgrwt>
</event>
<event>
 7    0  0.4770865E-002  0.4611269E+03  0.7546771E-02  0.1024455E+00
         21   -1    0    0  502  501  0.00000000000E+00  0.00000000000E+00  0.69241883381E+03  0.69241883381E+03  0.00000000000E+00 0.  1.
         21   -1    0    0  501  502 -0.00000000000E+00 -0.00000000000E+00 -0.76773611520E+02  0.76773611520E+02  0.00000000000E+00 0.  1.
      99926    2    1    2    0    0 -0.71054273576E-14 -0.14210854715E-13  0.61564522229E+03  0.76919244533E+03  0.46112685698E+03 0.  0.
      99925    2    3    3    0    0  0.33197208813E+02  0.11232959158E+03  0.35147392245E+03  0.45430520269E+03  0.26294354377E+03 0.  0.
         25    1    4    4    0    0 -0.57957603930E+01  0.40561694795E+02  0.21424121142E+03  0.25144710516E+03  0.12509000000E+03 0.  0.
         25    1    3    3    0    0 -0.33197208813E+02 -0.11232959158E+03  0.26417129984E+03  0.31488724264E+03  0.12509000000E+03 0.  0.
         25    1    4    4    0    0  0.38992969206E+02  0.71767896786E+02  0.13723271103E+03  0.20285809753E+03  0.12509000000E+03 0.  0.
<mgrwt>
<rscale>  2 0.46112686E+03</rscale>
<asrwt>0</asrwt>
<pdfrwt beam="1">  1       21 0.10182630E+00 0.46112686E+03</pdfrwt>
<pdfrwt beam="2">  1       21 0.11290237E-01 0.46112686E+03</pdfrwt>
<totfact> 0.46989809E+04</totfact>
</mgrwt>
</event>
<event>
 7    0  0.4770865E-002  0.4550211E+03  0.7546771E-02  0.1026235E+00
         21   -1    0    0  502  501  0.00000000000E+00  0.00000000000E+00  0.12964547654E+03  0.12964547654E+03  0.00000000000E+00 0.  1.
         21   -1    0    0  501  502 -0.00000000000E+00 -0.00000000000E+00 -0.39925069650E+03  0.39925069650E+03  0.00000000000E+00 0.  1.
      99926    2    1    2    0    0  0.00000000000E+00  0.00000000000E+00 -0.26960521995E+03  0.52889617304E+03  0.45502108438E+03 0.  0.
      99925    2    3    3    0    0  0.59359263487E+02 -0.60443394044E+02 -0.25682805420E+03  0.37727925409E+03  0.26306284439E+03 0.  0.
         25    1    4    4    0    0  0.24786978132E+02 -0.63953882203E+02 -0.16575768925E+03  0.21869525139E+03  0.12509000000E+03 0.  0.
         25    1    4    4    0    0  0.34572285354E+02  0.35104881595E+01 -0.91070364955E+02  0.15858400271E+03  0.12509000000E+03 0.  0.
         25    1    3    3    0    0 -0.59359263487E+02  0.60443394044E+02 -0.12777165752E+02  0.15161691894E+03  0.12509000000E+03 0.  0.
<mgrwt>
<rscale>  2 0.45502108E+03</rscale>
<asrwt>0</asrwt>
<pdfrwt beam="1">  1       21 0.19065511E-01 0.45502108E+03</pdfrwt>
<pdfrwt beam="2">  1       21 0.58713338E-01 0.45502108E+03</pdfrwt>
<totfact> 0.63270748E+04</totfact>
</mgrwt>
</event>
<event>
 7    0  0.4770865E-002  0.4489428E+03  0.7546771E-02  0.1028038E+00
         21   -1    0    0  502  501  0.00000000000E+00  0.00000000000E+00  0.20398572469E+03  0.20398572469E+03  0.00000000000E+00 0. -1.
         21   -1    0    0  501  502 -0.00000000000E+00 -0.00000000000E+00 -0.24701436920E+03  0.24701436920E+03  0.00000000000E+00 0. -1.
      99926    2    1    2    0    0 -0.14210854715E-13  0.00000000000E+00 -0.43028644512E+02  0.45100009389E+03  0.44894278081E+03 0.  0.
      99925    2    3    3    0    0 -0.74998814623E+02 -0.74681081739E+02 -0.45585926815E+02  0.28712168178E+03  0.26298041231E+03 0.  0.
         25    1    4    4    0    0 -0.15995916979E+02 -0.36955856498E+02  0.13415913035E+02  0.13209503970E+03  0.12509000000E+03 0.  0.
         25    1    4    4    0    0 -0.59002897644E+02 -0.37725225241E+02 -0.59001839850E+02  0.15502664208E+03  0.12509000000E+03 0.  0.
         25    1    3    3    0    0  0.74998814623E+02  0.74681081739E+02  0.25572823023E+01  0.16387841211E+03  0.12509000000E+03 0.  0.
<mgrwt>
<rscale>  2 0.44894278E+03</rscale>
<asrwt>0</asrwt>
<pdfrwt beam="1">  1       21 0.29997901E-01 0.44894278E+03</pdfrwt>
<pdfrwt beam="2">  1       21 0.36325643E-01 0.44894278E+03</pdfrwt>
<totfact> 0.72269840E+04</totfact>
</mgrwt>
</event>
<event>
 7    0  0.4770865E-002  0.4574244E+03  0.7546771E-02  0.1025531E+00
         21   -1    0    0  502  501  0.00000000000E+00  0.00000000000E+00  0.66848727645E+02  0.66848727645E+02  0.00000000000E+00 0.  1.
         21   -1    0    0  501  502 -0.00000000000E+00 -0.00000000000E+00 -0.78250221290E+03  0.78250221290E+03  0.00000000000E+00 0.  1.
      99926    2    1    2    0    0  0.35527136788E-14  0.00000000000E+00 -0.71565348525E+03  0.84935094054E+03  0.45742443009E+03 0.  0.
      99925    2    3    3    0    0 -0.12808200658E+02 -0.11261500035E+03 -0.40830629877E+03  0.49870013212E+03  0.26294790331E+03 0.  0.
         25    1    4    4    0    0 -0.45071980836E+02 -0.64356502248E+02 -0.22871205266E+03  0.27226816554E+03  0.12509000000E+03 0.  0.
         25    1    4    4    0    0  0.32263780178E+02 -0.48258498103E+02 -0.17959424611E+03  0.22643196657E+03  0.12509000000E+03 0.  0.
         25    1    3    3    0    0  0.12808200658E+02  0.11261500035E+03 -0.30734718649E+03  0.35065080843E+03  0.12509000000E+03 0.  0.
<mgrwt>
<rscale>  2 0.45742443E+03</rscale>
<asrwt>0</asrwt>
<pdfrwt beam="1">  1       21 0.98306951E-02 0.45742443E+03</pdfrwt>
<pdfrwt beam="2">  1       21 0.11507386E+00 0.45742443E+03</pdfrwt>
<totfact> 0.44613851E+04</totfact>
</mgrwt>
</event>
<event>
 7    0  0.4770865E-002  0.4579881E+03  0.7546771E-02  0.1025366E+00
         21   -1    0    0  502  501  0.00000000000E+00  0.00000000000E+00  0.12361689661E+03  0.12361689661E+03  0.00000000000E+00 0. -1.
         21   -1    0    0  501  502 -0.00000000000E+00 -0.00000000000E+00 -0.42419982150E+03  0.42419982150E+03  0.00000000000E+00 0. -1.
      99926    2    1    2    0    0  0.00000000000E+00  0.00000000000E+00 -0.30058292489E+03  0.54781671811E+03  0.45798805870E+03 0.  0.
      99925    2    3    3    0    0 -0.64854492707E+02  0.81666001524E+02 -0.24933305207E+03  0.37708447572E+03  0.26296442714E+03 0.  0.
         25    1    4    4    0    0 -0.20695673198E+02  0.79992719728E+02 -0.12350124929E+03  0.19423494221E+03  0.12509000000E+03 0.  0.
         25    1    4    4    0    0 -0.44158819510E+02  0.16732817960E+01 -0.12583180278E+03  0.18284953351E+03  0.12509000000E+03 0.  0.
         25    1    3    3    0    0  0.64854492707E+02 -0.81666001524E+02 -0.51249872814E+02  0.17073224239E+03  0.12509000000E+03 0.  0.
<mgrwt>
<rscale>  2 0.45798806E+03</rscale>
<asrwt>0</asrwt>
<pdfrwt beam="1">  1       21 0.18178956E-01 0.45798806E+03</pdfrwt>
<pdfrwt beam="2">  1       21 0.62382325E-01 0.45798806E+03</pdfrwt>
<totfact> 0.60566312E+04</totfact>
</mgrwt>
</event>
<event>
 7    0  0.4770865E-002  0.4557160E+03  0.7546771E-02  0.1026031E+00
         21   -1    0    0  502  501  0.00000000000E+00  0.00000000000E+00  0.37886956963E+02  0.37886956963E+02  0.00000000000E+00 0. -1.
         21   -1    0    0  501  502 -0.00000000000E+00 -0.00000000000E+00 -0.13703731561E+04  0.13703731561E+04  0.00000000000E+00 0. -1.
      99926    2    1    2    0    0  0.00000000000E+00  0.00000000000E+00 -0.13324861991E+04  0.14082601130E+04  0.45571600274E+03 0.  0.
      99925    2    3    3    0    0  0.85331107520E+02  0.55917378044E+02 -0.68336013398E+03  0.73936527257E+03  0.26319533142E+03 0.  0.
         25    1    4    4    0    0  0.18097183867E+02  0.26163129253E+02 -0.41066094635E+03  0.43046711646E+03  0.12509000000E+03 0.  0.
         25    1    3    3    0    0 -0.85331107520E+02 -0.55917378044E+02 -0.64912606513E+03  0.66889484047E+03  0.12509000000E+03 0.  0.
         25    1    4    4    0    0  0.67233923654E+02  0.29754248791E+02 -0.27269918763E+03  0.30889815611E+03  0.12509000000E+03 0.  0.
<mgrwt>
<rscale>  2 0.45571600E+03</rscale>
<asrwt>0</asrwt>
<pdfrwt beam="1">  1       21 0.55716115E-02 0.45571600E+03</pdfrwt>
<pdfrwt beam="2">  1       21 0.20152546E+00 0.45571600E+03</pdfrwt>
<totfact> 0.25967931E+04</totfact>
</mgrwt>
</event>
<event>
 7    0  0.4770865E-002  0.4528686E+03  0.7546771E-02  0.1026870E+00
         21   -1    0    0  502  501  0.00000000000E+00  0.00000000000E+00  0.16092958933E+03  0.16092958933E+03  0.00000000000E+00 0. -1.
         21   -1    0    0  501  502 -0.00000000000E+00 -0.00000000000E+00 -0.31860204420E+03  0.31860204420E+03  0.00000000000E+00 0. -1.
      99926    2    1    2    0    0  0.00000000000E+00  0.00000000000E+00 -0.15767245488E+03  0.47953163353E+03  0.45286861729E+03 0.  0.
      99925    2    3    3    0    0  0.24064823470E+02 -0.77849872228E+02 -0.19350636052E+02  0.27601221923E+03  0.26299920098E+03 0.  0.
         25    1    4    4    0    0  0.15430544998E+02 -0.55097675787E+02  0.27427571037E+02  0.14026273685E+03  0.12509000000E+03 0.  0.
         25    1    3    3    0    0 -0.24064823470E+02  0.77849872228E+02 -0.13832181882E+03  0.20351941430E+03  0.12509000000E+03 0.  0.
         25    1    4    4    0    0  0.86342784713E+01 -0.22752196441E+02 -0.46778207089E+02  0.13574948238E+03  0.12509000000E+03 0.  0.
<mgrwt>
<rscale>  2 0.45286862E+03</rscale>
<asrwt>0</asrwt>
<pdfrwt beam="1">  1       21 0.23666116E-01 0.45286862E+03</pdfrwt>
<pdfrwt beam="2">  1       21 0.46853241E-01 0.45286862E+03</pdfrwt>
<totfact> 0.67875281E+04</totfact>
</mgrwt>
</event>
<event>
 7    0  0.4770865E-002  0.4505344E+03  0.7546771E-02  0.1027563E+00
         21   -1    0    0  502  501  0.00000000000E+00  0.00000000000E+00  0.20061597582E+04  0.20061597582E+04  0.00000000000E+00 0.  1.
         21   -1    0    0  501  502 -0.00000000000E+00 -0.00000000000E+00 -0.25294751371E+02  0.25294751371E+02  0.00000000000E+00 0.  1.
      99926    2    1    2    0    0  0.71054273576E-14  0.00000000000E+00  0.19808650068E+04  0.20314545095E+04  0.45053440399E+03 0.  0.
      99925    2    3    3    0    0 -0.44081762393E+02  0.91319432711E+02  0.10724544290E+04  0.11088821674E+04  0.26301847517E+03 0.  0.
         25    1    3    3    0    0  0.44081762393E+02 -0.91319432711E+02  0.90841057780E+03  0.92257234216E+03  0.12509000000E+03 0.  0.
         25    1    4    4    0    0 -0.21211313781E+02  0.25851552878E+02  0.65298896495E+03  0.66570287596E+03  0.12509000000E+03 0.  0.
         25    1    4    4    0    0 -0.22870448612E+02  0.65467879833E+02  0.41946546405E+03  0.44317929142E+03  0.12509000000E+03 0.  0.
<mgrwt>
<rscale>  2 0.45053440E+03</rscale>
<asrwt>0</asrwt>
<pdfrwt beam="1">  1       21 0.29502338E+00 0.45053440E+03</pdfrwt>
<pdfrwt beam="2">  1       21 0.37198178E-02 0.45053440E+03</pdfrwt>
<totfact> 0.13670716E+04</totfact>
</mgrwt>
</event>
<event>
 7    0  0.4770865E-002  0.4584434E+03  0.7546771E-02  0.1025234E+00
         21   -1    0    0  502  501  0.00000000000E+00  0.00000000000E+00  0.14569699212E+03  0.14569699212E+03  0.00000000000E+00 0.  1.
         21   -1    0    0  501  502 -0.00000000000E+00 -0.00000000000E+00 -0.36062926427E+03  0.36062926427E+03  0.00000000000E+00 0.  1.
      99926    2    1    2    0    0  0.00000000000E+00  0.00000000000E+00 -0.21493227215E+03  0.50632625639E+03  0.45844344940E+03 0.  0.
      99925    2    3    3    0    0  0.23742691902E+02 -0.11326502439E+03 -0.12159399960E+03  0.31202694504E+03  0.26302667645E+03 0.  0.
         25    1    4    4    0    0  0.11804253429E+02 -0.13746070871E+02 -0.64221510870E+02  0.14177519325E+03  0.12509000000E+03 0.  0.
         25    1    3    3    0    0 -0.23742691902E+02  0.11326502439E+03 -0.93338272546E+02  0.19429931135E+03  0.12509000000E+03 0.  0.
         25    1    4    4    0    0  0.11938438473E+02 -0.99518953519E+02 -0.57372488729E+02  0.17025175178E+03  0.12509000000E+03 0.  0.
<mgrwt>
<rscale>  2 0.45844345E+03</rscale>
<asrwt>0</asrwt>
<pdfrwt beam="1">  1       21 0.21426029E-01 0.45844345E+03</pdfrwt>
<pdfrwt beam="2">  1       21 0.53033715E-01 0.45844345E+03</pdfrwt>
<totfact> 0.63086476E+04</totfact>
</mgrwt>
</event>
<event>
 7    0  0.4770865E-002  0.4513587E+03  0.7546771E-02  0.1027318E+00
         21   -1    0    0  502  501  0.00000000000E+00  0.00000000000E+00  0.13243175849E+04  0.13243175849E+04  0.00000000000E+00 0. -1.
         21   -1    0    0  501  502 -0.00000000000E+00 -0.00000000000E+00 -0.38458422771E+02  0.38458422771E+02  0.00000000000E+00 0. -1.
      99926    2    1    2    0    0  0.00000000000E+00  0.00000000000E+00  0.12858591621E+04  0.13627760077E+04  0.45135868470E+03 0.  0.
      99925    2    3    3    0    0  0.17780883332E+02  0.87660140774E+02  0.62054736042E+03  0.67992334297E+03  0.26308984340E+03 0.  0.
         25    1    4    4    0    0  0.60982917886E+01  0.30685168013E+02  0.39521174139E+03  0.41571456233E+03  0.12509000000E+03 0.  0.
         25    1    3    3    0    0 -0.17780883332E+02 -0.87660140774E+02  0.66531180171E+03  0.68285266470E+03  0.12509000000E+03 0.  0.
         25    1    4    4    0    0  0.11682591543E+02  0.56974972762E+02  0.22533561903E+03  0.26420878064E+03  0.12509000000E+03 0.  0.
<mgrwt>
<rscale>  2 0.45135868E+03</rscale>
<asrwt>0</asrwt>
<pdfrwt beam="1">  1       21 0.19475256E+00 0.45135868E+03</pdfrwt>
<pdfrwt beam="2">  1       21 0.56556513E-02 0.45135868E+03</pdfrwt>
<totfact> 0.28128822E+04</totfact>
</mgrwt>
</event>
<event>
 7    0  0.4770865E-002  0.4507273E+03  0.7546771E-02  0.1027505E+00
         21   -1    0    0  502  501  0.00000000000E+00  0.00000000000E+00  0.71571164377E+03  0.71571164377E+03  0.00000000000E+00 0. -1.
         21   -1    0    0  501  502 -0.00000000000E+00 -0.00000000000E+00 -0.70962629562E+02  0.70962629562E+02  0.00000000000E+00 0. -1.
      99926    2    1    2    0    0 -0.14210854715E-13  0.00000000000E+00  0.64474901421E+03  0.78667427333E+03  0.45072732444E+03 0.  0.
      99925    2    3    3    0    0  0.97766510914E+02 -0.44426162103E+02  0.44011083171E+03  0.52388867941E+03  0.26311562039E+03 0.  0.
         25    1    4    4    0    0  0.58537204425E+02 -0.10086804009E+02  0.29177276736E+03  0.32296625797E+03  0.12509000000E+03 0.  0.
         25    1    3    3    0    0 -0.97766510914E+02  0.44426162103E+02  0.20463818250E+03  0.26278559392E+03  0.12509000000E+03 0.  0.
         25    1    4    4    0    0  0.39229306489E+02 -0.34339358094E+02  0.14833806435E+03  0.20092242144E+03  0.12509000000E+03 0.  0.
<mgrwt>
<rscale>  2 0.45072732E+03</rscale>
<asrwt>0</asrwt>
<pdfrwt beam="1">  1       21 0.10525171E+00 0.45072732E+03</pdfrwt>
<pdfrwt beam="2">  1       21 0.10435681E-01 0.45072732E+03</pdfrwt>
<totfact> 0.50074392E+04</totfact>
</mgrwt>
</event>
<event>
 7    0  0.4770865E-002  0.3962185E+03  0.7546771E-02  0.1045097E+00
         21   -1    0    0  502  501  0.00000000000E+00  0.00000000000E+00  0.29545192918E+03  0.29545192918E+03  0.00000000000E+00 0. -1.
         21   -1    0    0  501  502 -0.00000000000E+00 -0.00000000000E+00 -0.13283807765E+03  0.13283807765E+03  0.00000000000E+00 0. -1.
      99926    2    1    2    0    0  0.00000000000E+00  0.00000000000E+00  0.16261385153E+03  0.42829000683E+03  0.39621845646E+03 0.  0.
      99925    2    3    3    0    0  0.33625364435E+02 -0.88680029874E+01  0.12458109042E+03  0.29300029684E+03  0.26290572312E+03 0.  0.
         25    1    4    4    0    0  0.61941389515E+01 -0.38467254088E+02  0.41189730062E+02  0.13733972097E+03  0.12509000000E+03 0.  0.
         25    1    4    4    0    0  0.27431225483E+02  0.29599251100E+02  0.83391360361E+02  0.15566057587E+03  0.12509000000E+03 0.  0.
         25    1    3    3    0    0 -0.33625364435E+02  0.88680029874E+01  0.38032761112E+02  0.13528970999E+03  0.12509000000E+03 0.  0.
<mgrwt>
<rscale>  2 0.39621846E+03</rscale>
<asrwt>0</asrwt>
<pdfrwt beam="1">  1       21 0.43448813E-01 0.39621846E+03</pdfrwt>
<pdfrwt beam="2">  1       21 0.19535011E-01 0.39621846E+03</pdfrwt>
<totfact> 0.11607352E+05</totfact>
</mgrwt>
</event>
<event>
 7    0  0.4770865E-002  0.4571075E+03  0.7546771E-02  0.1025623E+00
         21   -1    0    0  502  501  0.00000000000E+00  0.00000000000E+00  0.10898905275E+04  0.10898905275E+04  0.00000000000E+00 0.  1.
         21   -1    0    0  501  502 -0.00000000000E+00 -0.00000000000E+00 -0.47928501664E+02  0.47928501664E+02  0.00000000000E+00 0.  1.
      99926    2    1    2    0    0  0.00000000000E+00  0.71054273576E-14  0.10419620259E+04  0.11378190292E+04  0.45710751454E+03 0.  0.
      99925    2    3    3    0    0 -0.58413690757E+02  0.42767703096E+02  0.43114671828E+03  0.51013751459E+03  0.26289076707E+03 0.  0.
         25    1    4    4    0    0 -0.56466735505E+02  0.43908408745E+02  0.27085545144E+03  0.30680062623E+03  0.12509000000E+03 0.  0.
         25    1    4    4    0    0 -0.19469552515E+01 -0.11407056495E+01  0.16029126684E+03  0.20333688836E+03  0.12509000000E+03 0.  0.
         25    1    3    3    0    0  0.58413690757E+02 -0.42767703096E+02  0.61081530758E+03  0.62768151460E+03  0.12509000000E+03 0.  0.
<mgrwt>
<rscale>  2 0.45710751E+03</rscale>
<asrwt>0</asrwt>
<pdfrwt beam="1">  1       21 0.16027800E+00 0.45710751E+03</pdfrwt>
<pdfrwt beam="2">  1       21 0.70483098E-02 0.45710751E+03</pdfrwt>
<totfact> 0.33635729E+04</totfact>
</mgrwt>
</event>
<event>
 7    0  0.4770865E-002  0.4604016E+03  0.7546771E-02  0.1024665E+00
         21   -1    0    0  502  501  0.00000000000E+00  0.00000000000E+00  0.81669366890E+02  0.81669366890E+02  0.00000000000E+00 0.  1.
         21   -1    0    0  501  502 -0.00000000000E+00 -0.00000000000E+00 -0.64886522769E+03  0.64886522769E+03  0.00000000000E+00 0.  1.
      99926    2    1    2    0    0  0.35527136788E-14  0.14210854715E-13 -0.56719586080E+03  0.73053459458E+03  0.46040161747E+03 0.  0.
      99925    2    3    3    0    0  0.26984908124E+02  0.10485318032E+03 -0.27910258816E+03  0.39831837503E+03  0.26274873641E+03 0.  0.
         25    1    3    3    0    0 -0.26984908124E+02 -0.10485318032E+03 -0.28809327264E+03  0.33221621954E+03  0.12509000000E+03 0.  0.
         25    1    4    4    0    0  0.12008625250E+01  0.67873582975E+02 -0.94594934940E+02  0.17089170592E+03  0.12509000000E+03 0.  0.
         25    1    4    4    0    0  0.25784045599E+02  0.36979597340E+02 -0.18450765322E+03  0.22742666911E+03  0.12509000000E+03 0.  0.
<mgrwt>
<rscale>  2 0.46040162E+03</rscale>
<asrwt>0</asrwt>
<pdfrwt beam="1">  1       21 0.12010201E-01 0.46040162E+03</pdfrwt>
<pdfrwt beam="2">  1       21 0.95421354E-01 0.46040162E+03</pdfrwt>
<totfact> 0.49154922E+04</totfact>
</mgrwt>
</event>
<event>
 7    0  0.4770865E-002  0.4562916E+03  0.7546771E-02  0.1025862E+00
         21   -1    0    0  502  501  0.00000000000E+00  0.00000000000E+00  0.65304669703E+03  0.65304669703E+03  0.00000000000E+00 0. -1.
         21   -1    0    0  501  502 -0.00000000000E+00 -0.00000000000E+00 -0.79704103421E+02  0.79704103421E+02  0.00000000000E+00 0. -1.
      99926    2    1    2    0    0  0.00000000000E+00  0.00000000000E+00  0.57334259361E+03  0.73275080045E+03  0.45629157993E+03 0.  0.
      99925    2    3    3    0    0  0.90822782615E+02 -0.66360458081E+02  0.39523651797E+03  0.48775739132E+03  0.26276011762E+03 0.  0.
         25    1    4    4    0    0  0.21966206966E+02 -0.53536443258E+02  0.15012501197E+03  0.20379816565E+03  0.12509000000E+03 0.  0.
         25    1    3    3    0    0 -0.90822782615E+02  0.66360458081E+02  0.17810607563E+03  0.24499340913E+03  0.12509000000E+03 0.  0.
         25    1    4    4    0    0  0.68856575649E+02 -0.12824014823E+02  0.24511150601E+03  0.28395922567E+03  0.12509000000E+03 0.  0.
<mgrwt>
<rscale>  2 0.45629158E+03</rscale>
<asrwt>0</asrwt>
<pdfrwt beam="1">  1       21 0.96036276E-01 0.45629158E+03</pdfrwt>
<pdfrwt beam="2">  1       21 0.11721192E-01 0.45629158E+03</pdfrwt>
<totfact> 0.50644350E+04</totfact>
</mgrwt>
</event>
<event>
 7    0  0.4770865E-002  0.4537497E+03  0.7546771E-02  0.1026610E+00
         21   -1    0    0  502  501  0.00000000000E+00  0.00000000000E+00  0.23383997634E+04  0.23383997634E+04  0.00000000000E+00 0. -1.
         21   -1    0    0  501  502 -0.00000000000E+00 -0.00000000000E+00 -0.22011721328E+02  0.22011721328E+02  0.00000000000E+00 0. -1.
      99926    2    1    2    0    0  0.00000000000E+00 -0.35527136788E-14  0.23163880421E+04  0.23604114847E+04  0.45374972813E+03 0.  0.
      99925    2    3    3    0    0  0.10081054962E+03  0.19916078765E+02  0.12271116043E+04  0.12591712370E+04  0.26296368135E+03 0.  0.
         25    1    4    4    0    0  0.20065610226E+02  0.35744863349E+02  0.52240902010E+03  0.53873835612E+03  0.12509000000E+03 0.  0.
         25    1    4    4    0    0  0.80744939393E+02 -0.15828784584E+02  0.70470258417E+03  0.72043288091E+03  0.12509000000E+03 0.  0.
         25    1    3    3    0    0 -0.10081054962E+03 -0.19916078765E+02  0.10892764378E+04  0.11012402477E+04  0.12509000000E+03 0.  0.
<mgrwt>
<rscale>  2 0.45374973E+03</rscale>
<asrwt>0</asrwt>
<pdfrwt beam="1">  1       21 0.34388215E+00 0.45374973E+03</pdfrwt>
<pdfrwt beam="2">  1       21 0.32370195E-02 0.45374973E+03</pdfrwt>
<totfact> 0.87522732E+03</totfact>
</mgrwt>
</event>
<event>
 7    0  0.4770865E-002  0.4572592E+03  0.7546771E-02  0.1025579E+00
         21   -1    0    0  502  501  0.00000000000E+00  0.00000000000E+00  0.95264577319E+02  0.95264577319E+02  0.00000000000E+00 0.  1.
         21   -1    0    0  501  502 -0.00000000000E+00 -0.00000000000E+00 -0.54869814618E+03  0.54869814618E+03  0.00000000000E+00 0.  1.
      99926    2    1    2    0    0  0.00000000000E+00  0.35527136788E-14 -0.45343356886E+03  0.64396272350E+03  0.45725921301E+03 0.  0.
      99925    2    3    3    0    0  0.97657032000E+02  0.26241023703E+02 -0.36270301896E+03  0.45928725678E+03  0.26299394869E+03 0.  0.
         25    1    3    3    0    0 -0.97657032000E+02 -0.26241023703E+02 -0.90730549895E+02  0.18467546672E+03  0.12509000000E+03 0.  0.
         25    1    4    4    0    0  0.15664880814E+02  0.37633651317E+02 -0.17813084877E+03  0.22144928897E+03  0.12509000000E+03 0.  0.
         25    1    4    4    0    0  0.81992151186E+02 -0.11392627614E+02 -0.18457217019E+03  0.23783796781E+03  0.12509000000E+03 0.  0.
<mgrwt>
<rscale>  2 0.45725921E+03</rscale>
<asrwt>0</asrwt>
<pdfrwt beam="1">  1       21 0.14009497E-01 0.45725921E+03</pdfrwt>
<pdfrwt beam="2">  1       21 0.80690902E-01 0.45725921E+03</pdfrwt>
<totfact> 0.55062475E+04</totfact>
</mgrwt>
</event>
<event>
 7    0  0.4770865E-002  0.4323205E+03  0.7546771E-02  0.1033129E+00
         21   -1    0    0  502  501  0.00000000000E+00  0.00000000000E+00  0.85968661918E+03  0.85968661918E+03  0.00000000000E+00 0.  1.
         21   -1    0    0  501  502 -0.00000000000E+00 -0.00000000000E+00 -0.54351490822E+02  0.54351490822E+02  0.00000000000E+00 0.  1.
      99926    2    1    2    0    0  0.71054273576E-14  0.00000000000E+00  0.80533512836E+03  0.91403811000E+03  0.43232048016E+03 0.  0.
      99925    2    3    3    0    0 -0.38145089565E+02  0.72964366373E+02  0.44035918277E+03  0.51953361627E+03  0.26309717210E+03 0.  0.
         25    1    4    4    0    0 -0.30539825066E+02  0.17406157491E+02  0.27922437094E+03  0.30797631834E+03  0.12509000000E+03 0.  0.
         25    1    3    3    0    0  0.38145089565E+02 -0.72964366373E+02  0.36497594559E+03  0.39450449373E+03  0.12509000000E+03 0.  0.
         25    1    4    4    0    0 -0.76052644989E+01  0.55558208881E+02  0.16113481183E+03  0.21155729793E+03  0.12509000000E+03 0.  0.
<mgrwt>
<rscale>  2 0.43232048E+03</rscale>
<asrwt>0</asrwt>
<pdfrwt beam="1">  1       21 0.12642449E+00 0.43232048E+03</pdfrwt>
<pdfrwt beam="2">  1       21 0.79928668E-02 0.43232048E+03</pdfrwt>
<totfact> 0.51116505E+04</totfact>
</mgrwt>
</event>
<event>
 7    0  0.4770865E-002  0.4470581E+03  0.7546771E-02  0.1028603E+00
         21   -1    0    0  502  501  0.00000000000E+00  0.00000000000E+00  0.10372928245E+04  0.10372928245E+04  0.00000000000E+00 0. -1.
         21   -1    0    0  501  502 -0.00000000000E+00 -0.00000000000E+00 -0.48168882958E+02  0.48168882958E+02  0.00000000000E+00 0. -1.
      99926    2    1    2    0    0  0.88817841970E-15  0.00000000000E+00  0.98912394151E+03  0.10854617074E+04  0.44705810207E+03 0.  0.
      99925    2    3    3    0    0 -0.32343851007E+01  0.10506173440E+03  0.65000512124E+03  0.70903440815E+03  0.26301084581E+03 0.  0.
         25    1    4    4    0    0 -0.11130716438E+02  0.69360855834E+02  0.24887819267E+03  0.28726761749E+03  0.12509000000E+03 0.  0.
         25    1    3    3    0    0  0.32343851007E+01 -0.10506173440E+03  0.33911882027E+03  0.37642729928E+03  0.12509000000E+03 0.  0.
         25    1    4    4    0    0  0.78963313375E+01  0.35700878566E+02  0.40112692857E+03  0.42176679066E+03  0.12509000000E+03 0.  0.
<mgrwt>
<rscale>  2 0.44705810E+03</rscale>
<asrwt>0</asrwt>
<pdfrwt beam="1">  1       21 0.15254305E+00 0.44705810E+03</pdfrwt>
<pdfrwt beam="2">  1       21 0.70836599E-02 0.44705810E+03</pdfrwt>
<totfact> 0.38322591E+04</totfact>
</mgrwt>
</event>
<event>
 7    0  0.4770865E-002  0.4390403E+03  0.7546771E-02  0.1031042E+00
         21   -1    0    0  502  501  0.00000000000E+00  0.00000000000E+00  0.56230178904E+02  0.56230178904E+02  0.00000000000E+00 0.  1.
         21   -1    0    0  501  502 -0.00000000000E+00 -0.00000000000E+00 -0.85699720938E+03  0.85699720938E+03  0.00000000000E+00 0.  1.
      99926    2    1    2    0    0  0.00000000000E+00  0.00000000000E+00 -0.80076703048E+03  0.91322738829E+03  0.43904034623E+03 0.  0.
      99925    2    3    3    0    0 -0.61505656892E+02 -0.64956586378E+02 -0.43235643991E+03  0.51400793074E+03  0.26319148501E+03 0.  0.
         25    1    3    3    0    0  0.61505656892E+02  0.64956586378E+02 -0.36841059057E+03  0.39921945755E+03  0.12509000000E+03 0.  0.
         25    1    4    4    0    0 -0.44478860554E+02 -0.36867264252E+02 -0.29360346612E+03  0.32432709974E+03  0.12509000000E+03 0.  0.
         25    1    4    4    0    0 -0.17026796338E+02 -0.28089322126E+02 -0.13875297379E+03  0.18968083100E+03  0.12509000000E+03 0.  0.
<mgrwt>
<rscale>  2 0.43904035E+03</rscale>
<asrwt>0</asrwt>
<pdfrwt beam="1">  1       21 0.82691446E-02 0.43904035E+03</pdfrwt>
<pdfrwt beam="2">  1       21 0.12602899E+00 0.43904035E+03</pdfrwt>
<totfact> 0.48437435E+04</totfact>
</mgrwt>
</event>
<event>
 7    0  0.4770865E-002  0.4344359E+03  0.7546771E-02  0.1032468E+00
         21   -1    0    0  502  501  0.00000000000E+00  0.00000000000E+00  0.21088887630E+03  0.21088887630E+03  0.00000000000E+00 0. -1.
         21   -1    0    0  501  502 -0.00000000000E+00 -0.00000000000E+00 -0.22373694443E+03  0.22373694443E+03  0.00000000000E+00 0. -1.
      99926    2    1    2    0    0  0.00000000000E+00  0.00000000000E+00 -0.12848068129E+02  0.43462582073E+03  0.43443587696E+03 0.  0.
      99925    2    3    3    0    0  0.69129542096E+02  0.59239684113E+02 -0.24266073256E+02  0.27949325579E+03  0.26313381378E+03 0.  0.
         25    1    3    3    0    0 -0.69129542096E+02 -0.59239684113E+02  0.11418005127E+02  0.15513256494E+03  0.12509000000E+03 0.  0.
         25    1    4    4    0    0  0.73468544467E+01  0.54506233861E+02  0.55057787750E+01  0.13675791568E+03  0.12509000000E+03 0.  0.
         25    1    4    4    0    0  0.61782687649E+02  0.47334502519E+01 -0.29771852031E+02  0.14273534012E+03  0.12509000000E+03 0.  0.
<mgrwt>
<rscale>  2 0.43443588E+03</rscale>
<asrwt>0</asrwt>
<pdfrwt beam="1">  1       21 0.31013070E-01 0.43443588E+03</pdfrwt>
<pdfrwt beam="2">  1       21 0.32902492E-01 0.43443588E+03</pdfrwt>
<totfact> 0.82846498E+04</totfact>
</mgrwt>
</event>
<event>
 7    0  0.4770865E-002  0.4543505E+03  0.7546771E-02  0.1026433E+00
         21   -1    0    0  502  501  0.00000000000E+00  0.00000000000E+00  0.60251070221E+02  0.60251070221E+02  0.00000000000E+00 0.  1.
         21   -1    0    0  501  502 -0.00000000000E+00 -0.00000000000E+00 -0.85655894371E+03  0.85655894371E+03  0.00000000000E+00 0.  1.
      99926    2    1    2    0    0 -0.14210854715E-13  0.00000000000E+00 -0.79630787349E+03  0.91681001393E+03  0.45435049495E+03 0.  0.
      99925    2    3    3    0    0  0.75702134937E+02 -0.57486549076E+02 -0.37988553860E+03  0.47173632829E+03  0.26303350439E+03 0.  0.
         25    1    4    4    0    0  0.59305138027E+02 -0.48376702848E+02 -0.25391994369E+03  0.29322389173E+03  0.12509000000E+03 0.  0.
         25    1    3    3    0    0 -0.75702134937E+02  0.57486549076E+02 -0.41642233489E+03  0.44507368564E+03  0.12509000000E+03 0.  0.
         25    1    4    4    0    0  0.16396996910E+02 -0.91098462282E+01 -0.12596559491E+03  0.17851243656E+03  0.12509000000E+03 0.  0.
<mgrwt>
<rscale>  2 0.45435049E+03</rscale>
<asrwt>0</asrwt>
<pdfrwt beam="1">  1       21 0.88604516E-02 0.45435049E+03</pdfrwt>
<pdfrwt beam="2">  1       21 0.12596455E+00 0.45435049E+03</pdfrwt>
<totfact> 0.42731609E+04</totfact>
</mgrwt>
</event>
<event>
 7    0  0.4770865E-002  0.4485362E+03  0.7546771E-02  0.1028159E+00
         21   -1    0    0  502  501  0.00000000000E+00  0.00000000000E+00  0.53537518860E+03  0.53537518860E+03  0.00000000000E+00 0. -1.
         21   -1    0    0  501  502 -0.00000000000E+00 -0.00000000000E+00 -0.93945679149E+02  0.93945679149E+02  0.00000000000E+00 0. -1.
      99926    2    1    2    0    0  0.00000000000E+00  0.00000000000E+00  0.44142950945E+03  0.62932086775E+03  0.44853622236E+03 0.  0.
      99925    2    3    3    0    0 -0.44446773811E+02 -0.91208209388E+02  0.32773449578E+03  0.43216986624E+03  0.26280494744E+03 0.  0.
         25    1    3    3    0    0  0.44446773811E+02  0.91208209388E+02  0.11369501367E+03  0.19715100151E+03  0.12509000000E+03 0.  0.
         25    1    4    4    0    0 -0.10622473522E+02 -0.85609300203E+02  0.17252081029E+03  0.22989721031E+03  0.12509000000E+03 0.  0.
         25    1    4    4    0    0 -0.33824300289E+02 -0.55989091845E+01  0.15521368549E+03  0.20227265593E+03  0.12509000000E+03 0.  0.
<mgrwt>
<rscale>  2 0.44853622E+03</rscale>
<asrwt>0</asrwt>
<pdfrwt beam="1">  1       21 0.78731644E-01 0.44853622E+03</pdfrwt>
<pdfrwt beam="2">  1       21 0.13815541E-01 0.44853622E+03</pdfrwt>
<totfact> 0.59907548E+04</totfact>
</mgrwt>
</event>
<event>
 7    0  0.4770865E-002  0.4296153E+03  0.7546771E-02  0.1033982E+00
         21   -1    0    0  502  501  0.00000000000E+00  0.00000000000E+00  0.36212743672E+03  0.36212743672E+03  0.00000000000E+00 0. -1.
         21   -1    0    0  501  502 -0.00000000000E+00 -0.00000000000E+00 -0.12742012626E+03  0.12742012626E+03  0.00000000000E+00 0. -1.
      99926    2    1    2    0    0 -0.35527136788E-14  0.00000000000E+00  0.23470731046E+03  0.48954756298E+03  0.42961528701E+03 0.  0.
      99925    2    3    3    0    0  0.59690479869E+01 -0.65216728634E+02  0.85709144351E+02  0.28427502991E+03  0.26301593864E+03 0.  0.
         25    1    3    3    0    0 -0.59690479869E+01  0.65216728634E+02  0.14899816611E+03  0.20527253307E+03  0.12509000000E+03 0.  0.
         25    1    4    4    0    0 -0.34581562418E+02 -0.45827139697E+02  0.35050538930E+02  0.14202837594E+03  0.12509000000E+03 0.  0.
         25    1    4    4    0    0  0.40550610405E+02 -0.19389588937E+02  0.50658605422E+02  0.14224665397E+03  0.12509000000E+03 0.  0.
<mgrwt>
<rscale>  2 0.42961529E+03</rscale>
<asrwt>0</asrwt>
<pdfrwt beam="1">  1       21 0.53254034E-01 0.42961529E+03</pdfrwt>
<pdfrwt beam="2">  1       21 0.18738254E-01 0.42961529E+03</pdfrwt>
<totfact> 0.81174657E+04</totfact>
</mgrwt>
</event>
<event>
 7    0  0.4770865E-002  0.4556190E+03  0.7546771E-02  0.1026060E+00
         21   -1    0    0  502  501  0.00000000000E+00  0.00000000000E+00  0.34286541278E+03  0.34286541278E+03  0.00000000000E+00 0.  1.
         21   -1    0    0  501  502 -0.00000000000E+00 -0.00000000000E+00 -0.15136306883E+03  0.15136306883E+03  0.00000000000E+00 0.  1.
      99926    2    1    2    0    0  0.24424906542E-14  0.00000000000E+00  0.19150234395E+03  0.49422848161E+03  0.45561896832E+03 0.  0.
      99925    2    3    3    0    0  0.81385989866E+00  0.11063454638E+03  0.14862949596E+03  0.32181544725E+03  0.26312314569E+03 0.  0.
         25    1    3    3    0    0 -0.81385989866E+00 -0.11063454638E+03  0.42872847981E+02  0.17241303435E+03  0.12509000000E+03 0.  0.
         25    1    4    4    0    0  0.31803652071E+02  0.69839867460E+02  0.10242660876E+03  0.17896311814E+03  0.12509000000E+03 0.  0.
         25    1    4    4    0    0 -0.30989792173E+02  0.40794678922E+02  0.46202887207E+02  0.14285232911E+03  0.12509000000E+03 0.  0.
<mgrwt>
<rscale>  2 0.45561897E+03</rscale>
<asrwt>0</asrwt>
<pdfrwt beam="1">  1       21 0.50421384E-01 0.45561897E+03</pdfrwt>
<pdfrwt beam="2">  1       21 0.22259275E-01 0.45561897E+03</pdfrwt>
<totfact> 0.65356319E+04</totfact>
</mgrwt>
</event>
<event>
 7    0  0.4770865E-002  0.4556248E+03  0.7546771E-02  0.1026058E+00
         21   -1    0    0  502  501  0.00000000000E+00  0.00000000000E+00  0.44016838676E+02  0.44016838676E+02  0.00000000000E+00 0.  1.
         21   -1    0    0  501  502 -0.00000000000E+00 -0.00000000000E+00 -0.11790599917E+04  0.11790599917E+04  0.00000000000E+00 0.  1.
      99926    2    1    2    0    0  0.00000000000E+00  0.13322676296E-14 -0.11350431530E+04  0.12230768303E+04  0.45562481689E+03 0.  0.
      99925    2    3    3    0    0  0.29979539722E+02  0.38757746302E+01 -0.10081163040E+04  0.10423236076E+04  0.26310877245E+03 0.  0.
         25    1    3    3    0    0 -0.29979539722E+02 -0.38757746302E+01 -0.12692684893E+03  0.18075322268E+03  0.12509000000E+03 0.  0.
         25    1    4    4    0    0 -0.39936360320E+01 -0.16537306648E+02 -0.37270361114E+03  0.39350339452E+03  0.12509000000E+03 0.  0.
         25    1    4    4    0    0  0.33973175754E+02  0.20413081278E+02 -0.63541269290E+03  0.64882021313E+03  0.12509000000E+03 0.  0.
<mgrwt>
<rscale>  2 0.45562482E+03</rscale>
<asrwt>0</asrwt>
<pdfrwt beam="1">  1       21 0.64730636E-02 0.45562482E+03</pdfrwt>
<pdfrwt beam="2">  1       21 0.17339120E+00 0.45562482E+03</pdfrwt>
<totfact> 0.31280441E+04</totfact>
</mgrwt>
</event>
<event>
 7    0  0.4770865E-002  0.4529768E+03  0.7546771E-02  0.1026838E+00
         21   -1    0    0  502  501  0.00000000000E+00  0.00000000000E+00  0.85812073153E+03  0.85812073153E+03  0.00000000000E+00 0.  1.
         21   -1    0    0  501  502 -0.00000000000E+00 -0.00000000000E+00 -0.59778286912E+02  0.59778286912E+02  0.00000000000E+00 0.  1.
      99926    2    1    2    0    0  0.00000000000E+00  0.00000000000E+00  0.79834244461E+03  0.91789901844E+03  0.45297676450E+03 0.  0.
      99925    2    3    3    0    0 -0.73009749609E+01  0.64297065648E+02  0.68660872329E+03  0.73812318728E+03  0.26307201262E+03 0.  0.
         25    1    3    3    0    0  0.73009749609E+01 -0.64297065648E+02  0.11173372133E+03  0.17977583116E+03  0.12509000000E+03 0.  0.
         25    1    4    4    0    0 -0.17923376069E+02  0.40951079606E+02  0.24839258696E+03  0.28168177734E+03  0.12509000000E+03 0.  0.
         25    1    4    4    0    0  0.10622401109E+02  0.23345986042E+02  0.43821613633E+03  0.45644140994E+03  0.12509000000E+03 0.  0.
<mgrwt>
<rscale>  2 0.45297676E+03</rscale>
<asrwt>0</asrwt>
<pdfrwt beam="1">  1       21 0.12619422E+00 0.45297676E+03</pdfrwt>
<pdfrwt beam="2">  1       21 0.87909250E-02 0.45297676E+03</pdfrwt>
<totfact> 0.43147698E+04</totfact>
</mgrwt>
</event>
<event>
 7    0  0.4770865E-002  0.4583958E+03  0.7546771E-02  0.1025248E+00
         21   -1    0    0  502  501  0.00000000000E+00  0.00000000000E+00  0.22659870436E+02  0.22659870436E+02  0.00000000000E+00 0.  1.
         21   -1    0    0  501  502 -0.00000000000E+00 -0.00000000000E+00 -0.23182690792E+04  0.23182690792E+04  0.00000000000E+00 0.  1.
      99926    2    1    2    0    0  0.35527136788E-14  0.00000000000E+00 -0.22956092088E+04  0.23409289497E+04  0.45839579828E+03 0.  0.
      99925    2    3    3    0    0 -0.17563568892E+02  0.99502221368E+02 -0.11468663582E+04  0.11809863580E+04  0.26309154920E+03 0.  0.
         25    1    4    4    0    0  0.25692773515E+02  0.34109748248E+02 -0.61264690832E+03  0.62674343707E+03  0.12509000000E+03 0.  0.
         25    1    4    4    0    0 -0.43256342407E+02  0.65392473120E+02 -0.53421944986E+03  0.55424292094E+03  0.12509000000E+03 0.  0.
         25    1    3    3    0    0  0.17563568892E+02 -0.99502221368E+02 -0.11487428506E+04  0.11599425917E+04  0.12509000000E+03 0.  0.
<mgrwt>
<rscale>  2 0.45839580E+03</rscale>
<asrwt>0</asrwt>
<pdfrwt beam="1">  1       21 0.33323325E-02 0.45839580E+03</pdfrwt>
<pdfrwt beam="2">  1       21 0.34092207E+00 0.45839580E+03</pdfrwt>
<totfact> 0.86684976E+03</totfact>
</mgrwt>
</event>
<event>
 7    0  0.4770865E-002  0.4676622E+03  0.7546771E-02  0.1022582E+00
         21   -1    0    0  502  501  0.00000000000E+00  0.00000000000E+00  0.51744594278E+03  0.51744594278E+03  0.00000000000E+00 0.  1.
         21   -1    0    0  501  502 -0.00000000000E+00 -0.00000000000E+00 -0.10566704542E+03  0.10566704542E+03  0.00000000000E+00 0.  1.
      99926    2    1    2    0    0 -0.17763568394E-14  0.00000000000E+00  0.41177889736E+03  0.62311298819E+03  0.46766220261E+03 0.  0.
      99925    2    3    3    0    0 -0.10872362069E+02  0.10163741874E+03  0.16118686555E+03  0.32496495843E+03  0.26300693040E+03 0.  0.
         25    1    4    4    0    0  0.27888450001E+02  0.48336030676E+02  0.10595469474E+03  0.17317056027E+03  0.12509000000E+03 0.  0.
         25    1    3    3    0    0  0.10872362069E+02 -0.10163741874E+03  0.25059203181E+03  0.29814802976E+03  0.12509000000E+03 0.  0.
         25    1    4    4    0    0 -0.38760812070E+02  0.53301388068E+02  0.55232170813E+02  0.15179439817E+03  0.12509000000E+03 0.  0.
<mgrwt>
<rscale>  2 0.46766220E+03</rscale>
<asrwt>0</asrwt>
<pdfrwt beam="1">  1       21 0.76094990E-01 0.46766220E+03</pdfrwt>
<pdfrwt beam="2">  1       21 0.15539272E-01 0.46766220E+03</pdfrwt>
<totfact> 0.51891353E+04</totfact>
</mgrwt>
</event>
<event>
 7    0  0.4770865E-002  0.4514998E+03  0.7546771E-02  0.1027276E+00
         21   -1    0    0  502  501  0.00000000000E+00  0.00000000000E+00  0.10831570663E+03  0.10831570663E+03  0.00000000000E+00 0. -1.
         21   -1    0    0  501  502 -0.00000000000E+00 -0.00000000000E+00 -0.47050431289E+03  0.47050431289E+03  0.00000000000E+00 0. -1.
      99926    2    1    2    0    0 -0.14210854715E-13  0.00000000000E+00 -0.36218860625E+03  0.57882001952E+03  0.45149975470E+03 0.  0.
      99925    2    3    3    0    0 -0.64961780923E+02  0.87921360680E+02 -0.21483102323E+03  0.35675704643E+03  0.26300764815E+03 0.  0.
         25    1    3    3    0    0  0.64961780923E+02 -0.87921360680E+02 -0.14735758302E+03  0.22206297309E+03  0.12509000000E+03 0.  0.
         25    1    4    4    0    0  0.19313354096E+01  0.38733491855E+02 -0.71612561364E+02  0.14926446494E+03  0.12509000000E+03 0.  0.
         25    1    4    4    0    0 -0.66893116332E+02  0.49187868826E+02 -0.14321846187E+03  0.20749258149E+03  0.12509000000E+03 0.  0.
<mgrwt>
<rscale>  2 0.45149975E+03</rscale>
<asrwt>0</asrwt>
<pdfrwt beam="1">  1       21 0.15928781E-01 0.45149975E+03</pdfrwt>
<pdfrwt beam="2">  1       21 0.69191809E-01 0.45149975E+03</pdfrwt>
<totfact> 0.61690760E+04</totfact>
</mgrwt>
</event>
<event>
 7    0  0.4770865E-002  0.4591704E+03  0.7546771E-02  0.1025022E+00
         21   -1    0    0  502  501  0.00000000000E+00  0.00000000000E+00  0.27320176477E+03  0.27320176477E+03  0.00000000000E+00 0.  1.
         21   -1    0    0  501  502 -0.00000000000E+00 -0.00000000000E+00 -0.19293199180E+03  0.19293199180E+03  0.00000000000E+00 0.  1.
      99926    2    1    2    0    0  0.00000000000E+00  0.00000000000E+00  0.80269772970E+02  0.46613375658E+03  0.45917038512E+03 0.  0.
      99925    2    3    3    0    0  0.33244863146E+02 -0.10113572662E+02  0.16378405311E+03  0.31176520938E+03  0.26299206157E+03 0.  0.
         25    1    4    4    0    0  0.32400353990E+02 -0.65943350131E+01  0.12706804934E+03  0.18134791274E+03  0.12509000000E+03 0.  0.
         25    1    3    3    0    0 -0.33244863146E+02  0.10113572662E+02 -0.83514280137E+02  0.15436854720E+03  0.12509000000E+03 0.  0.
         25    1    4    4    0    0  0.84450915570E+00 -0.35192376484E+01  0.36716003769E+02  0.13041729664E+03  0.12509000000E+03 0.  0.
<mgrwt>
<rscale>  2 0.45917039E+03</rscale>
<asrwt>0</asrwt>
<pdfrwt beam="1">  1       21 0.40176730E-01 0.45917039E+03</pdfrwt>
<pdfrwt beam="2">  1       21 0.28372352E-01 0.45917039E+03</pdfrwt>
<totfact> 0.65526618E+04</totfact>
</mgrwt>
</event>
<event>
 7    0  0.4770865E-002  0.4599334E+03  0.7546771E-02  0.1024801E+00
         21   -1    0    0  502  501  0.00000000000E+00  0.00000000000E+00  0.13458925992E+03  0.13458925992E+03  0.00000000000E+00 0.  1.
         21   -1    0    0  501  502 -0.00000000000E+00 -0.00000000000E+00 -0.39293382971E+03  0.39293382971E+03  0.00000000000E+00 0.  1.
      99926    2    1    2    0    0 -0.14210854715E-13  0.71054273576E-14 -0.25834456979E+03  0.52752308963E+03  0.45993335752E+03 0.  0.
      99925    2    3    3    0    0  0.99977096691E+02 -0.53590198058E+02 -0.12565561796E+03  0.31276463176E+03  0.26299249298E+03 0.  0.
         25    1    3    3    0    0 -0.99977096691E+02  0.53590198058E+02 -0.13268895183E+03  0.21475845787E+03  0.12509000000E+03 0.  0.
         25    1    4    4    0    0  0.19701070703E+02 -0.35928612577E+02 -0.88272607488E+02  0.15848835516E+03  0.12509000000E+03 0.  0.
         25    1    4    4    0    0  0.80276025989E+02 -0.17661585481E+02 -0.37383010477E+02  0.15427627660E+03  0.12509000000E+03 0.  0.
<mgrwt>
<rscale>  2 0.45993336E+03</rscale>
<asrwt>0</asrwt>
<pdfrwt beam="1">  1       21 0.19792538E-01 0.45993336E+03</pdfrwt>
<pdfrwt beam="2">  1       21 0.57784386E-01 0.45993336E+03</pdfrwt>
<totfact> 0.60955520E+04</totfact>
</mgrwt>
</event>
<event>
 7    0  0.4770865E-002  0.4560814E+03  0.7546771E-02  0.1025924E+00
         21   -1    0    0  502  501  0.00000000000E+00  0.00000000000E+00  0.25919353862E+03  0.25919353862E+03  0.00000000000E+00 0. -1.
         21   -1    0    0  501  502 -0.00000000000E+00 -0.00000000000E+00 -0.20063219281E+03  0.20063219281E+03  0.00000000000E+00 0. -1.
      99926    2    1    2    0    0  0.00000000000E+00  0.00000000000E+00  0.58561345816E+02  0.45982573143E+03  0.45608143139E+03 0.  0.
      99925    2    3    3    0    0  0.74270698615E+02 -0.65845356791E+02  0.93831300812E+02  0.29629217063E+03  0.26293153040E+03 0.  0.
         25    1    3    3    0    0 -0.74270698615E+02  0.65845356791E+02 -0.35269954996E+02  0.16353356080E+03  0.12509000000E+03 0.  0.
         25    1    4    4    0    0  0.73545522466E+02 -0.23816652055E+02  0.31674221643E+02  0.15042254222E+03  0.12509000000E+03 0.  0.
         25    1    4    4    0    0  0.72517614874E+00 -0.42028704736E+02  0.62157079169E+02  0.14586962841E+03  0.12509000000E+03 0.  0.
<mgrwt>
<rscale>  2 0.45608143E+03</rscale>
<asrwt>0</asrwt>
<pdfrwt beam="1">  1       21 0.38116697E-01 0.45608143E+03</pdfrwt>
<pdfrwt beam="2">  1       21 0.29504734E-01 0.45608143E+03</pdfrwt>
<totfact> 0.67608295E+04</totfact>
</mgrwt>
</event>
<event>
 7    0  0.4770865E-002  0.4568013E+03  0.7546771E-02  0.1025713E+00
         21   -1    0    0  502  501  0.00000000000E+00  0.00000000000E+00  0.16085951978E+03  0.16085951978E+03  0.00000000000E+00 0. -1.
         21   -1    0    0  501  502 -0.00000000000E+00 -0.00000000000E+00 -0.32430065231E+03  0.32430065231E+03  0.00000000000E+00 0. -1.
      99926    2    1    2    0    0 -0.35527136788E-14 -0.71054273576E-14 -0.16344113253E+03  0.48516017209E+03  0.45680125742E+03 0.  0.
      99925    2    3    3    0    0 -0.29271533020E+02 -0.50397830857E+02  0.24377821141E+01  0.26938230848E+03  0.26299072482E+03 0.  0.
         25    1    4    4    0    0 -0.48099487441E+02 -0.23722264485E+01  0.29585904676E+01  0.13407255315E+03  0.12509000000E+03 0.  0.
         25    1    4    4    0    0  0.18827954422E+02 -0.48025604408E+02 -0.52080835350E+00  0.13530975533E+03  0.12509000000E+03 0.  0.
         25    1    3    3    0    0  0.29271533020E+02  0.50397830857E+02 -0.16587891464E+03  0.21577786361E+03  0.12509000000E+03 0.  0.
<mgrwt>
<rscale>  2 0.45680126E+03</rscale>
<asrwt>0</asrwt>
<pdfrwt beam="1">  1       21 0.23655812E-01 0.45680126E+03</pdfrwt>
<pdfrwt beam="2">  1       21 0.47691272E-01 0.45680126E+03</pdfrwt>
<totfact> 0.65386395E+04</totfact>
</mgrwt>
</event>
<event>
 7    0  0.4770865E-002  0.4489391E+03  0.7546771E-02  0.1028039E+00
         21   -1    0    0  502  501  0.00000000000E+00  0.00000000000E+00  0.20291694268E+03  0.20291694268E+03  0.00000000000E+00 0.  1.
         21   -1    0    0  501  502 -0.00000000000E+00 -0.00000000000E+00 -0.24831135028E+03  0.24831135028E+03  0.00000000000E+00 0.  1.
      99926    2    1    2    0    0  0.71054273576E-14 -0.14210854715E-13 -0.45394407607E+02  0.45122829296E+03  0.44893910514E+03 0.  0.
      99925    2    3    3    0    0 -0.62866898074E+02  0.87157749899E+02 -0.28488754858E+02  0.28545124558E+03  0.26291079136E+03 0.  0.
         25    1    4    4    0    0 -0.13505442474E+02  0.22229118338E+02 -0.44433016997E+02  0.13527132652E+03  0.12509000000E+03 0.  0.
         25    1    4    4    0    0 -0.49361455600E+02  0.64928631561E+02  0.15944262139E+02  0.15017991907E+03  0.12509000000E+03 0.  0.
         25    1    3    3    0    0  0.62866898074E+02 -0.87157749899E+02 -0.16905652748E+02  0.16577704737E+03  0.12509000000E+03 0.  0.
<mgrwt>
<rscale>  2 0.44893911E+03</rscale>
<asrwt>0</asrwt>
<pdfrwt beam="1">  1       21 0.29840727E-01 0.44893911E+03</pdfrwt>
<pdfrwt beam="2">  1       21 0.36516375E-01 0.44893911E+03</pdfrwt>
<totfact> 0.72254282E+04</totfact>
</mgrwt>
</event>
<event>
 7    0  0.4770865E-002  0.4547084E+03  0.7546771E-02  0.1026327E+00
         21   -1    0    0  502  501  0.00000000000E+00  0.00000000000E+00  0.66994572082E+02  0.66994572082E+02  0.00000000000E+00 0.  1.
         21   -1    0    0  501  502 -0.00000000000E+00 -0.00000000000E+00 -0.77155404759E+03  0.77155404759E+03  0.00000000000E+00 0.  1.
      99926    2    1    2    0    0 -0.35527136788E-14  0.14210854715E-13 -0.70455947550E+03  0.83854861967E+03  0.45470840439E+03 0.  0.
      99925    2    3    3    0    0 -0.29630138297E+02  0.99046847521E+02 -0.35991501309E+03  0.45760828750E+03  0.26301768960E+03 0.  0.
         25    1    4    4    0    0 -0.34871794169E+02  0.88109789312E+02 -0.20030075864E+03  0.25445486636E+03  0.12509000000E+03 0.  0.
         25    1    3    3    0    0  0.29630138297E+02 -0.99046847521E+02 -0.34464446241E+03  0.38094033216E+03  0.12509000000E+03 0.  0.
         25    1    4    4    0    0  0.52416558727E+01  0.10937058209E+02 -0.15961425446E+03  0.20315342115E+03  0.12509000000E+03 0.  0.
<mgrwt>
<rscale>  2 0.45470840E+03</rscale>
<asrwt>0</asrwt>
<pdfrwt beam="1">  1       21 0.98521431E-02 0.45470840E+03</pdfrwt>
<pdfrwt beam="2">  1       21 0.11346383E+00 0.45470840E+03</pdfrwt>
<totfact> 0.46061348E+04</totfact>
</mgrwt>
</event>
<event>
 7    0  0.4770865E-002  0.4566034E+03  0.7546771E-02  0.1025771E+00
         21   -1    0    0  502  501  0.00000000000E+00  0.00000000000E+00  0.13591450151E+03  0.13591450151E+03  0.00000000000E+00 0.  1.
         21   -1    0    0  501  502 -0.00000000000E+00 -0.00000000000E+00 -0.38348869912E+03  0.38348869912E+03  0.00000000000E+00 0.  1.
      99926    2    1    2    0    0  0.00000000000E+00  0.00000000000E+00 -0.24757419761E+03  0.51940320062E+03  0.45660344008E+03 0.  0.
      99925    2    3    3    0    0  0.11485187222E+03 -0.30682107631E+01 -0.14666510139E+03  0.32184176645E+03  0.26243304707E+03 0.  0.
         25    1    3    3    0    0 -0.11485187222E+03  0.30682107631E+01 -0.10090909622E+03  0.19756143417E+03  0.12509000000E+03 0.  0.
         25    1    4    4    0    0  0.41935528083E+02  0.29629591008E+02 -0.47458683777E+02  0.14330504508E+03  0.12509000000E+03 0.  0.
         25    1    4    4    0    0  0.72916344142E+02 -0.32697801771E+02 -0.99206417615E+02  0.17853672138E+03  0.12509000000E+03 0.  0.
<mgrwt>
<rscale>  2 0.45660344E+03</rscale>
<asrwt>0</asrwt>
<pdfrwt beam="1">  1       21 0.19987427E-01 0.45660344E+03</pdfrwt>
<pdfrwt beam="2">  1       21 0.56395397E-01 0.45660344E+03</pdfrwt>
<totfact> 0.63121094E+04</totfact>
</mgrwt>
</event>
<event>
 7    0  0.4770865E-002  0.4485231E+03  0.7546771E-02  0.1028163E+00
         21   -1    0    0  502  501  0.00000000000E+00  0.00000000000E+00  0.66814824262E+02  0.66814824262E+02  0.00000000000E+00 0. -1.
         21   -1    0    0  501  502 -0.00000000000E+00 -0.00000000000E+00 -0.75272572821E+03  0.75272572821E+03  0.00000000000E+00 0. -1.
      99926    2    1    2    0    0  0.35527136788E-14  0.00000000000E+00 -0.68591090395E+03  0.81954055247E+03  0.44852307521E+03 0.  0.
      99925    2    3    3    0    0  0.16838912187E+02 -0.32758965534E+02 -0.25042053917E+03  0.36494615666E+03  0.26290407383E+03 0.  0.
         25    1    4    4    0    0  0.16966576752E+02 -0.45476420690E+02 -0.16623909486E+03  0.21363266212E+03  0.12509000000E+03 0.  0.
         25    1    4    4    0    0 -0.12766456565E+00  0.12717455156E+02 -0.84181444306E+02  0.15131349454E+03  0.12509000000E+03 0.  0.
         25    1    3    3    0    0 -0.16838912187E+02  0.32758965534E+02 -0.43549036478E+03  0.45459439581E+03  0.12509000000E+03 0.  0.
<mgrwt>
<rscale>  2 0.44852308E+03</rscale>
<asrwt>0</asrwt>
<pdfrwt beam="1">  1       21 0.98257104E-02 0.44852308E+03</pdfrwt>
<pdfrwt beam="2">  1       21 0.11069495E+00 0.44852308E+03</pdfrwt>
<totfact> 0.49291938E+04</totfact>
</mgrwt>
</event>
<event>
 7    0  0.4770865E-002  0.4535440E+03  0.7546771E-02  0.1026670E+00
         21   -1    0    0  502  501  0.00000000000E+00  0.00000000000E+00  0.51121141426E+03  0.51121141426E+03  0.00000000000E+00 0. -1.
         21   -1    0    0  501  502 -0.00000000000E+00 -0.00000000000E+00 -0.10059544462E+03  0.10059544462E+03  0.00000000000E+00 0. -1.
      99926    2    1    2    0    0  0.00000000000E+00  0.00000000000E+00  0.41061596964E+03  0.61180685888E+03  0.45354399792E+03 0.  0.
      99925    2    3    3    0    0 -0.95701567717E+02  0.57780742614E+02  0.25632360081E+03  0.38387913468E+03  0.26299048924E+03 0.  0.
         25    1    3    3    0    0  0.95701567717E+02 -0.57780742614E+02  0.15429236883E+03  0.22792772420E+03  0.12509000000E+03 0.  0.
         25    1    4    4    0    0 -0.25030542047E+02  0.85285737233E+01  0.78531813365E+02  0.15004672078E+03  0.12509000000E+03 0.  0.
         25    1    4    4    0    0 -0.70671025670E+02  0.49252168891E+02  0.17779178745E+03  0.23383241391E+03  0.12509000000E+03 0.  0.
<mgrwt>
<rscale>  2 0.45354400E+03</rscale>
<asrwt>0</asrwt>
<pdfrwt beam="1">  1       21 0.75178148E-01 0.45354400E+03</pdfrwt>
<pdfrwt beam="2">  1       21 0.14793448E-01 0.45354400E+03</pdfrwt>
<totfact> 0.58628684E+04</totfact>
</mgrwt>
</event>
<event>
 7    0  0.4770865E-002  0.4510671E+03  0.7546771E-02  0.1027404E+00
         21   -1    0    0  502  501  0.00000000000E+00  0.00000000000E+00  0.25889312581E+02  0.25889312581E+02  0.00000000000E+00 0.  1.
         21   -1    0    0  501  502 -0.00000000000E+00 -0.00000000000E+00 -0.19647251441E+04  0.19647251441E+04  0.00000000000E+00 0.  1.
      99926    2    1    2    0    0  0.00000000000E+00  0.00000000000E+00 -0.19388358315E+04  0.19906144567E+04  0.45106710539E+03 0.  0.
      99925    2    3    3    0    0  0.66840423308E+02 -0.85440507018E+02 -0.11606582030E+04  0.11950167869E+04  0.26300177663E+03 0.  0.
         25    1    4    4    0    0 -0.44006836667E+01 -0.32471648572E+02 -0.46475422164E+03  0.48240830073E+03  0.12509000000E+03 0.  0.
         25    1    3    3    0    0 -0.66840423308E+02  0.85440507018E+02 -0.77817762858E+03  0.79559766978E+03  0.12509000000E+03 0.  0.
         25    1    4    4    0    0  0.71241106975E+02 -0.52968858446E+02 -0.69590398132E+03  0.71260848620E+03  0.12509000000E+03 0.  0.
<mgrwt>
<rscale>  2 0.45106711E+03</rscale>
<asrwt>0</asrwt>
<pdfrwt beam="1">  1       21 0.38072521E-02 0.45106711E+03</pdfrwt>
<pdfrwt beam="2">  1       21 0.28893015E+00 0.45106711E+03</pdfrwt>
<totfact> 0.14294972E+04</totfact>
</mgrwt>
</event>
<event>
 7    0  0.4770865E-002  0.4722301E+03  0.7546771E-02  0.1021293E+00
         21   -1    0    0  502  501  0.00000000000E+00  0.00000000000E+00  0.18829449905E+03  0.18829449905E+03  0.00000000000E+00 0. -1.
         21   -1    0    0  501  502 -0.00000000000E+00 -0.00000000000E+00 -0.29608041801E+03  0.29608041801E+03  0.00000000000E+00 0. -1.
      99926    2    1    2    0    0  0.14210854715E-13  0.00000000000E+00 -0.10778591896E+03  0.48437491706E+03  0.47223008794E+03 0.  0.
      99925    2    3    3    0    0 -0.82561289083E+02  0.93951102084E+02 -0.97697342276E+02  0.30719573229E+03  0.26302332826E+03 0.  0.
         25    1    3    3    0    0  0.82561289083E+02 -0.93951102084E+02 -0.10088576681E+02  0.17717918477E+03  0.12509000000E+03 0.  0.
         25    1    4    4    0    0 -0.71694759281E+02  0.58826746314E+02 -0.81661678189E+02  0.17583191512E+03  0.12509000000E+03 0.  0.
         25    1    4    4    0    0 -0.10866529803E+02  0.35124355770E+02 -0.16035664087E+02  0.13136381717E+03  0.12509000000E+03 0.  0.
<mgrwt>
<rscale>  2 0.47223009E+03</rscale>
<asrwt>0</asrwt>
<pdfrwt beam="1">  1       21 0.27690368E-01 0.47223009E+03</pdfrwt>
<pdfrwt beam="2">  1       21 0.43541238E-01 0.47223009E+03</pdfrwt>
<totfact> 0.58031331E+04</totfact>
</mgrwt>
</event>
<event>
 7    0  0.4770865E-002  0.4513288E+03  0.7546771E-02  0.1027327E+00
         21   -1    0    0  502  501  0.00000000000E+00  0.00000000000E+00  0.98138451252E+02  0.98138451252E+02  0.00000000000E+00 0. -1.
         21   -1    0    0  501  502 -0.00000000000E+00 -0.00000000000E+00 -0.51890378105E+03  0.51890378105E+03  0.00000000000E+00 0. -1.
      99926    2    1    2    0    0  0.17763568394E-14  0.00000000000E+00 -0.42076532980E+03  0.61704223230E+03  0.45132876452E+03 0.  0.
      99925    2    3    3    0    0  0.89330308897E+01 -0.10158588885E+03 -0.21094253742E+03  0.35232992780E+03  0.26313519734E+03 0.  0.
         25    1    4    4    0    0  0.32185459712E+02 -0.47386484134E+02 -0.14230356311E+03  0.19793735087E+03  0.12509000000E+03 0.  0.
         25    1    4    4    0    0 -0.23252428823E+02 -0.54199404712E+02 -0.68638974315E+02  0.15439257693E+03  0.12509000000E+03 0.  0.
         25    1    3    3    0    0 -0.89330308897E+01  0.10158588885E+03 -0.20982279238E+03  0.26471230450E+03  0.12509000000E+03 0.  0.
<mgrwt>
<rscale>  2 0.45132876E+03</rscale>
<asrwt>0</asrwt>
<pdfrwt beam="1">  1       21 0.14432126E-01 0.45132876E+03</pdfrwt>
<pdfrwt beam="2">  1       21 0.76309377E-01 0.45132876E+03</pdfrwt>
<totfact> 0.59343204E+04</totfact>
</mgrwt>
</event>
<event>
 7    0  0.4770865E-002  0.4577213E+03  0.7546771E-02  0.1025444E+00
         21   -1    0    0  502  501  0.00000000000E+00  0.00000000000E+00  0.59317753258E+02  0.59317753258E+02  0.00000000000E+00 0.  1.
         21   -1    0    0  501  502 -0.00000000000E+00 -0.00000000000E+00 -0.88299344210E+03  0.88299344210E+03  0.00000000000E+00 0.  1.
      99926    2    1    2    0    0  0.14210854715E-13 -0.71054273576E-14 -0.82367568884E+03  0.94231119536E+03  0.45772125634E+03 0.  0.
      99925    2    3    3    0    0  0.99446828807E+02 -0.56230742814E+02 -0.47901438709E+03  0.55826629014E+03  0.26297319155E+03 0.  0.
         25    1    4    4    0    0  0.60093699137E+02 -0.13200081858E+02 -0.17011160402E+03  0.21993399182E+03  0.12509000000E+03 0.  0.
         25    1    3    3    0    0 -0.99446828807E+02  0.56230742814E+02 -0.34466130175E+03  0.38404490521E+03  0.12509000000E+03 0.  0.
         25    1    4    4    0    0  0.39353129670E+02 -0.43030660956E+02 -0.30890278307E+03  0.33833229832E+03  0.12509000000E+03 0.  0.
<mgrwt>
<rscale>  2 0.45772126E+03</rscale>
<asrwt>0</asrwt>
<pdfrwt beam="1">  1       21 0.87231992E-02 0.45772126E+03</pdfrwt>
<pdfrwt beam="2">  1       21 0.12985197E+00 0.45772126E+03</pdfrwt>
<totfact> 0.40583138E+04</totfact>
</mgrwt>
</event>
<event>
 7    0  0.4770865E-002  0.4531008E+03  0.7546771E-02  0.1026801E+00
         21   -1    0    0  502  501  0.00000000000E+00  0.00000000000E+00  0.48405816688E+03  0.48405816688E+03  0.00000000000E+00 0. -1.
         21   -1    0    0  501  502 -0.00000000000E+00 -0.00000000000E+00 -0.10603080160E+03  0.10603080160E+03  0.00000000000E+00 0. -1.
      99926    2    1    2    0    0 -0.14210854715E-13  0.00000000000E+00  0.37802736529E+03  0.59008896848E+03  0.45310076342E+03 0.  0.
      99925    2    3    3    0    0  0.91388228254E+02 -0.32536571564E+02  0.16705974159E+03  0.32633665455E+03  0.26301372225E+03 0.  0.
         25    1    4    4    0    0  0.14449595476E+02 -0.19529251063E+02  0.45680573999E+02  0.13536766747E+03  0.12509000000E+03 0.  0.
         25    1    3    3    0    0 -0.91388228254E+02  0.32536571564E+02  0.21096762370E+03  0.26375231393E+03  0.12509000000E+03 0.  0.
         25    1    4    4    0    0  0.76938632779E+02 -0.13007320501E+02  0.12137916759E+03  0.19096898708E+03  0.12509000000E+03 0.  0.
<mgrwt>
<rscale>  2 0.45310076E+03</rscale>
<asrwt>0</asrwt>
<pdfrwt beam="1">  1       21 0.71185024E-01 0.45310076E+03</pdfrwt>
<pdfrwt beam="2">  1       21 0.15592765E-01 0.45310076E+03</pdfrwt>
<totfact> 0.60190921E+04</totfact>
</mgrwt>
</event>
<event>
 7    0  0.4770865E-002  0.4525941E+03  0.7546771E-02  0.1026951E+00
         21   -1    0    0  502  501  0.00000000000E+00  0.00000000000E+00  0.68702688743E+03  0.68702688743E+03  0.00000000000E+00 0. -1.
         21   -1    0    0  501  502 -0.00000000000E+00 -0.00000000000E+00 -0.74539082846E+02  0.74539082846E+02  0.00000000000E+00 0. -1.
      99926    2    1    2    0    0 -0.35527136788E-14  0.00000000000E+00  0.61248780459E+03  0.76156597028E+03  0.45259409665E+03 0.  0.
      99925    2    3    3    0    0  0.27434997068E+02 -0.24642294078E+02  0.21027366996E+03  0.33873782562E+03  0.26299881465E+03 0.  0.
         25    1    4    4    0    0 -0.66806497159E+01 -0.46578190134E+02  0.96431280300E+02  0.16480491133E+03  0.12509000000E+03 0.  0.
         25    1    3    3    0    0 -0.27434997068E+02  0.24642294078E+02  0.40221413463E+03  0.42282814466E+03  0.12509000000E+03 0.  0.
         25    1    4    4    0    0  0.34115646784E+02  0.21935896055E+02  0.11384238966E+03  0.17393291429E+03  0.12509000000E+03 0.  0.
<mgrwt>
<rscale>  2 0.45259410E+03</rscale>
<asrwt>0</asrwt>
<pdfrwt beam="1">  1       21 0.10103336E+00 0.45259410E+03</pdfrwt>
<pdfrwt beam="2">  1       21 0.10961630E-01 0.45259410E+03</pdfrwt>
<totfact> 0.50629227E+04</totfact>
</mgrwt>
</event>
<event>
 7    0  0.4770865E-002  0.4436063E+03  0.7546771E-02  0.1029646E+00
         21   -1    0    0  502  501  0.00000000000E+00  0.00000000000E+00  0.13087980542E+03  0.13087980542E+03  0.00000000000E+00 0. -1.
         21   -1    0    0  501  502 -0.00000000000E+00 -0.00000000000E+00 -0.37589177697E+03  0.37589177697E+03  0.00000000000E+00 0. -1.
      99926    2    1    2    0    0  0.00000000000E+00  0.00000000000E+00 -0.24501197156E+03  0.50677158239E+03  0.44360632380E+03 0.  0.
      99925    2    3    3    0    0  0.35057690515E+02 -0.22632061069E+02 -0.49828955641E+02  0.27121868036E+03  0.26331615200E+03 0.  0.
         25    1    4    4    0    0  0.65611121162E+01 -0.31498145170E+01 -0.63967339262E+02  0.14068510268E+03  0.12509000000E+03 0.  0.
         25    1    4    4    0    0  0.28496578399E+02 -0.19482246552E+02  0.14138383621E+02  0.13053357768E+03  0.12509000000E+03 0.  0.
         25    1    3    3    0    0 -0.35057690515E+02  0.22632061069E+02 -0.19518301592E+03  0.23555290203E+03  0.12509000000E+03 0.  0.
<mgrwt>
<rscale>  2 0.44360632E+03</rscale>
<asrwt>0</asrwt>
<pdfrwt beam="1">  1       21 0.19247030E-01 0.44360632E+03</pdfrwt>
<pdfrwt beam="2">  1       21 0.55278202E-01 0.44360632E+03</pdfrwt>
<totfact> 0.71003281E+04</totfact>
</mgrwt>
</event>
<event>
 7    0  0.4770865E-002  0.4603827E+03  0.7546771E-02  0.1024670E+00
         21   -1    0    0  502  501  0.00000000000E+00  0.00000000000E+00  0.17307152879E+03  0.17307152879E+03  0.00000000000E+00 0.  1.
         21   -1    0    0  501  502 -0.00000000000E+00 -0.00000000000E+00 -0.30616279502E+03  0.30616279502E+03  0.00000000000E+00 0.  1.
      99926    2    1    2    0    0  0.00000000000E+00 -0.35527136788E-14 -0.13309126622E+03  0.47923432381E+03  0.46038272337E+03 0.  0.
      99925    2    3    3    0    0  0.92772751624E+02  0.18307759455E+02 -0.98060350649E+01  0.27976323864E+03  0.26311471618E+03 0.  0.
         25    1    4    4    0    0  0.25054583817E+02 -0.22122071597E+02  0.13031496982E+02  0.13013241808E+03  0.12509000000E+03 0.  0.
         25    1    4    4    0    0  0.67718167807E+02  0.40429831052E+02 -0.22837532047E+02  0.14963082056E+03  0.12509000000E+03 0.  0.
         25    1    3    3    0    0 -0.92772751624E+02 -0.18307759455E+02 -0.12328523116E+03  0.19947108518E+03  0.12509000000E+03 0.  0.
<mgrwt>
<rscale>  2 0.46038272E+03</rscale>
<asrwt>0</asrwt>
<pdfrwt beam="1">  1       21 0.25451696E-01 0.46038272E+03</pdfrwt>
<pdfrwt beam="2">  1       21 0.45023940E-01 0.46038272E+03</pdfrwt>
<totfact> 0.63978810E+04</totfact>
</mgrwt>
</event>
<event>
 7    0  0.4770865E-002  0.4526916E+03  0.7546771E-02  0.1026922E+00
         21   -1    0    0  502  501  0.00000000000E+00  0.00000000000E+00  0.14632571089E+04  0.14632571089E+04  0.00000000000E+00 0. -1.
         21   -1    0    0  501  502 -0.00000000000E+00 -0.00000000000E+00 -0.35012594873E+02  0.35012594873E+02  0.00000000000E+00 0. -1.
      99926    2    1    2    0    0  0.00000000000E+00  0.00000000000E+00  0.14282445140E+04  0.14982697037E+04  0.45269163168E+03 0.  0.
      99925    2    3    3    0    0 -0.56927881062E+02  0.71347414399E+02  0.68693568657E+03  0.74096030666E+03  0.26231717707E+03 0.  0.
         25    1    4    4    0    0 -0.57041021938E+02  0.37848243152E+02  0.43359709700E+03  0.45644289710E+03  0.12509000000E+03 0.  0.
         25    1    3    3    0    0  0.56927881062E+02 -0.71347414399E+02  0.74130882743E+03  0.75730939708E+03  0.12509000000E+03 0.  0.
         25    1    4    4    0    0  0.11314087597E+00  0.33499171247E+02  0.25333858957E+03  0.28451740956E+03  0.12509000000E+03 0.  0.
<mgrwt>
<rscale>  2 0.45269163E+03</rscale>
<asrwt>0</asrwt>
<pdfrwt beam="1">  1       21 0.21518483E+00 0.45269163E+03</pdfrwt>
<pdfrwt beam="2">  1       21 0.51489120E-02 0.45269163E+03</pdfrwt>
<totfact> 0.24253526E+04</totfact>
</mgrwt>
</event>
<event>
 7    0  0.4770865E-002  0.4674759E+03  0.7546771E-02  0.1022635E+00
         21   -1    0    0  502  501  0.00000000000E+00  0.00000000000E+00  0.63197146102E+03  0.63197146102E+03  0.00000000000E+00 0. -1.
         21   -1    0    0  501  502 -0.00000000000E+00 -0.00000000000E+00 -0.86449207722E+02  0.86449207722E+02  0.00000000000E+00 0. -1.
      99926    2    1    2    0    0  0.35527136788E-14 -0.14210854715E-13  0.54552225330E+03  0.71842066875E+03  0.46747591214E+03 0.  0.
      99925    2    3    3    0    0 -0.26387360309E+02  0.12161146792E+03  0.34210232448E+03  0.44913862802E+03  0.26307007594E+03 0.  0.
         25    1    4    4    0    0  0.19128733589E+02  0.57161052869E+02  0.12751803630E+03  0.18852493759E+03  0.12509000000E+03 0.  0.
         25    1    4    4    0    0 -0.45516093898E+02  0.64450415051E+02  0.21458428818E+03  0.26061369043E+03  0.12509000000E+03 0.  0.
         25    1    3    3    0    0  0.26387360309E+02 -0.12161146792E+03  0.20341992882E+03  0.26928204072E+03  0.12509000000E+03 0.  0.
<mgrwt>
<rscale>  2 0.46747591E+03</rscale>
<asrwt>0</asrwt>
<pdfrwt beam="1">  1       21 0.92936977E-01 0.46747591E+03</pdfrwt>
<pdfrwt beam="2">  1       21 0.12713119E-01 0.46747591E+03</pdfrwt>
<totfact> 0.47117180E+04</totfact>
</mgrwt>
</event>
<event>
 7    0  0.4770865E-002  0.4495714E+03  0.7546771E-02  0.1027850E+00
         21   -1    0    0  502  501  0.00000000000E+00  0.00000000000E+00  0.36228235387E+03  0.36228235387E+03  0.00000000000E+00 0.  1.
         21   -1    0    0  501  502 -0.00000000000E+00 -0.00000000000E+00 -0.13947299630E+03  0.13947299630E+03  0.00000000000E+00 0.  1.
      99926    2    1    2    0    0  0.00000000000E+00  0.00000000000E+00  0.22280935757E+03  0.50175535017E+03  0.44957137543E+03 0.  0.
      99925    2    3    3    0    0  0.15099577008E+02 -0.85911729088E+02  0.21199198195E+03  0.34887191047E+03  0.26298704736E+03 0.  0.
         25    1    3    3    0    0 -0.15099577008E+02  0.85911729088E+02  0.10817375619E+02  0.15288343970E+03  0.12509000000E+03 0.  0.
         25    1    4    4    0    0  0.15043666345E+02 -0.25970373124E+01  0.10961087088E+03  0.16701828527E+03  0.12509000000E+03 0.  0.
         25    1    4    4    0    0  0.55910662513E-01 -0.83314691775E+02  0.10238111107E+03  0.18185362519E+03  0.12509000000E+03 0.  0.
<mgrwt>
<rscale>  2 0.44957138E+03</rscale>
<asrwt>0</asrwt>
<pdfrwt beam="1">  1       21 0.53276817E-01 0.44957138E+03</pdfrwt>
<pdfrwt beam="2">  1       21 0.20510735E-01 0.44957138E+03</pdfrwt>
<totfact> 0.68032004E+04</totfact>
</mgrwt>
</event>
<event>
 7    0  0.4770865E-002  0.4585240E+03  0.7546771E-02  0.1025210E+00
         21   -1    0    0  502  501  0.00000000000E+00  0.00000000000E+00  0.11072090795E+03  0.11072090795E+03  0.00000000000E+00 0.  1.
         21   -1    0    0  501  502 -0.00000000000E+00 -0.00000000000E+00 -0.47471671407E+03  0.47471671407E+03  0.00000000000E+00 0.  1.
      99926    2    1    2    0    0  0.00000000000E+00 -0.44408920985E-15 -0.36399580611E+03  0.58543762202E+03  0.45852400418E+03 0.  0.
      99925    2    3    3    0    0  0.13986329842E+02 -0.27375194643E+01 -0.37580268759E+03  0.45898596333E+03  0.26312989777E+03 0.  0.
         25    1    4    4    0    0 -0.13794077752E+02 -0.10936632192E+02 -0.12768152921E+03  0.17961059965E+03  0.12509000000E+03 0.  0.
         25    1    3    3    0    0 -0.13986329842E+02  0.27375194643E+01  0.11806881479E+02  0.12645165869E+03  0.12509000000E+03 0.  0.
         25    1    4    4    0    0  0.27780407594E+02  0.81991127273E+01 -0.24812115839E+03  0.27937536368E+03  0.12509000000E+03 0.  0.
<mgrwt>
<rscale>  2 0.45852400E+03</rscale>
<asrwt>0</asrwt>
<pdfrwt beam="1">  1       21 0.16282487E-01 0.45852400E+03</pdfrwt>
<pdfrwt beam="2">  1       21 0.69811281E-01 0.45852400E+03</pdfrwt>
<totfact> 0.57952422E+04</totfact>
</mgrwt>
</event>
<event>
 7    0  0.4770865E-002  0.4597190E+03  0.7546771E-02  0.1024863E+00
         21   -1    0    0  502  501  0.00000000000E+00  0.00000000000E+00  0.29716169166E+03  0.29716169166E+03  0.00000000000E+00 0.  1.
         21   -1    0    0  501  502 -0.00000000000E+00 -0.00000000000E+00 -0.17780016619E+03  0.17780016619E+03  0.00000000000E+00 0.  1.
      99926    2    1    2    0    0  0.00000000000E+00 -0.71054273576E-14  0.11936152547E+03  0.47496185785E+03  0.45971903664E+03 0.  0.
      99925    2    3    3    0    0  0.27686136873E+02  0.55047867511E+02  0.17815721519E+03  0.32363033066E+03  0.26305856326E+03 0.  0.
         25    1    4    4    0    0  0.26978115155E+02  0.31601896903E+02  0.44619145068E+02  0.13915773350E+03  0.12509000000E+03 0.  0.
         25    1    4    4    0    0  0.70802171834E+00  0.23445970608E+02  0.13353807012E+03  0.18447259716E+03  0.12509000000E+03 0.  0.
         25    1    3    3    0    0 -0.27686136873E+02 -0.55047867511E+02 -0.58795689718E+02  0.15133152719E+03  0.12509000000E+03 0.  0.
<mgrwt>
<rscale>  2 0.45971904E+03</rscale>
<asrwt>0</asrwt>
<pdfrwt beam="1">  1       21 0.43700249E-01 0.45971904E+03</pdfrwt>
<pdfrwt beam="2">  1       21 0.26147083E-01 0.45971904E+03</pdfrwt>
<totfact> 0.64615267E+04</totfact>
</mgrwt>
</event>
<event>
 7    0  0.4770865E-002  0.4530860E+03  0.7546771E-02  0.1026806E+00
         21   -1    0    0  502  501  0.00000000000E+00  0.00000000000E+00  0.95627117828E+02  0.95627117828E+02  0.00000000000E+00 0. -1.
         21   -1    0    0  501  502 -0.00000000000E+00 -0.00000000000E+00 -0.53668586885E+03  0.53668586885E+03  0.00000000000E+00 0. -1.
      99926    2    1    2    0    0 -0.71054273576E-14  0.00000000000E+00 -0.44105875102E+03  0.63231298668E+03  0.45308596455E+03 0.  0.
      99925    2    3    3    0    0 -0.59834566265E+02  0.34382815147E+02 -0.15564336218E+03  0.31313935746E+03  0.26280990793E+03 0.  0.
         25    1    4    4    0    0 -0.30683426521E+02  0.55067248735E+02 -0.63994950656E+02  0.15400239075E+03  0.12509000000E+03 0.  0.
         25    1    4    4    0    0 -0.29151139745E+02 -0.20684433587E+02 -0.91648411522E+02  0.15913696672E+03  0.12509000000E+03 0.  0.
         25    1    3    3    0    0  0.59834566265E+02 -0.34382815147E+02 -0.28541538884E+03  0.31917362922E+03  0.12509000000E+03 0.  0.
<mgrwt>
<rscale>  2 0.45308596E+03</rscale>
<asrwt>0</asrwt>
<pdfrwt beam="1">  1       21 0.14062812E-01 0.45308596E+03</pdfrwt>
<pdfrwt beam="2">  1       21 0.78924391E-01 0.45308596E+03</pdfrwt>
<totfact> 0.57597394E+04</totfact>
</mgrwt>
</event>
<event>
 7    0  0.4770865E-002  0.4569592E+03  0.7546771E-02  0.1025667E+00
         21   -1    0    0  502  501  0.00000000000E+00  0.00000000000E+00  0.20455506134E+03  0.20455506134E+03  0.00000000000E+00 0.  1.
         21   -1    0    0  501  502 -0.00000000000E+00 -0.00000000000E+00 -0.25520237623E+03  0.25520237623E+03  0.00000000000E+00 0.  1.
      99926    2    1    2    0    0  0.00000000000E+00 -0.14210854715E-13 -0.50647314892E+02  0.45975743756E+03  0.45695924423E+03 0.  0.
      99925    2    3    3    0    0 -0.11410890437E+02  0.84126460391E+02  0.46143091240E+02  0.28024877321E+03  0.26306409914E+03 0.  0.
         25    1    4    4    0    0 -0.35445215960E+02  0.64697590196E+02  0.42626818807E+02  0.15134957976E+03  0.12509000000E+03 0.  0.
         25    1    3    3    0    0  0.11410890437E+02 -0.84126460391E+02 -0.96790406132E+02  0.17950866435E+03  0.12509000000E+03 0.  0.
         25    1    4    4    0    0  0.24034325523E+02  0.19428870195E+02  0.35162724326E+01  0.12889919345E+03  0.12509000000E+03 0.  0.
<mgrwt>
<rscale>  2 0.45695924E+03</rscale>
<asrwt>0</asrwt>
<pdfrwt beam="1">  1       21 0.30081627E-01 0.45695924E+03</pdfrwt>
<pdfrwt beam="2">  1       21 0.37529761E-01 0.45695924E+03</pdfrwt>
<totfact> 0.67142887E+04</totfact>
</mgrwt>
</event>
<event>
 7    0  0.4770865E-002  0.4682464E+03  0.7546771E-02  0.1022416E+00
         21   -1    0    0  502  501  0.00000000000E+00  0.00000000000E+00  0.12651695230E+03  0.12651695230E+03  0.00000000000E+00 0. -1.
         21   -1    0    0  501  502 -0.00000000000E+00 -0.00000000000E+00 -0.43325168371E+03  0.43325168371E+03  0.00000000000E+00 0. -1.
      99926    2    1    2    0    0  0.00000000000E+00  0.00000000000E+00 -0.30673473141E+03  0.55976863601E+03  0.46824644196E+03 0.  0.
      99925    2    3    3    0    0 -0.10763761332E+03  0.13802161461E+02 -0.26539260986E+03  0.38908461632E+03  0.26301567601E+03 0.  0.
         25    1    4    4    0    0 -0.96414626347E+02  0.22016372493E+01 -0.15834211794E+03  0.22365232347E+03  0.12509000000E+03 0.  0.
         25    1    4    4    0    0 -0.11222986977E+02  0.11600524211E+02 -0.10705049192E+03  0.16543229285E+03  0.12509000000E+03 0.  0.
         25    1    3    3    0    0  0.10763761332E+03 -0.13802161461E+02 -0.41342121558E+02  0.17068401969E+03  0.12509000000E+03 0.  0.
<mgrwt>
<rscale>  2 0.46824644E+03</rscale>
<asrwt>0</asrwt>
<pdfrwt beam="1">  1       21 0.18605434E-01 0.46824644E+03</pdfrwt>
<pdfrwt beam="2">  1       21 0.63713484E-01 0.46824644E+03</pdfrwt>
<totfact> 0.55209158E+04</totfact>
</mgrwt>
</event>
<event>
 7    0  0.4770865E-002  0.4557334E+03  0.7546771E-02  0.1026026E+00
         21   -1    0    0  502  501  0.00000000000E+00  0.00000000000E+00  0.17282942554E+03  0.17282942554E+03  0.00000000000E+00 0.  1.
         21   -1    0    0  501  502 -0.00000000000E+00 -0.00000000000E+00 -0.30043057432E+03  0.30043057432E+03  0.00000000000E+00 0.  1.
      99926    2    1    2    0    0  0.22204460493E-15 -0.14210854715E-13 -0.12760114878E+03  0.47325999987E+03  0.45573344655E+03 0.  0.
      99925    2    3    3    0    0 -0.15902345978E+01 -0.10217655218E+03 -0.28049908480E+02  0.28352193250E+03  0.26297397625E+03 0.  0.
         25    1    4    4    0    0 -0.26793266384E+02 -0.28832234603E+02  0.99561761186E+01  0.13151353702E+03  0.12509000000E+03 0.  0.
         25    1    4    4    0    0  0.25203031786E+02 -0.73344317576E+02 -0.38006084599E+02  0.15200839549E+03  0.12509000000E+03 0.  0.
         25    1    3    3    0    0  0.15902345978E+01  0.10217655218E+03 -0.99551240301E+02  0.18973806736E+03  0.12509000000E+03 0.  0.
<mgrwt>
<rscale>  2 0.45573345E+03</rscale>
<asrwt>0</asrwt>
<pdfrwt beam="1">  1       21 0.25416092E-01 0.45573345E+03</pdfrwt>
<pdfrwt beam="2">  1       21 0.44180967E-01 0.45573345E+03</pdfrwt>
<totfact> 0.66804499E+04</totfact>
</mgrwt>
</event>
<event>
 7    0  0.4770865E-002  0.4609448E+03  0.7546771E-02  0.1024508E+00
         21   -1    0    0  502  501  0.00000000000E+00  0.00000000000E+00  0.11262673467E+04  0.11262673467E+04  0.00000000000E+00 0. -1.
         21   -1    0    0  501  502 -0.00000000000E+00 -0.00000000000E+00 -0.47162443091E+02  0.47162443091E+02  0.00000000000E+00 0. -1.
      99926    2    1    2    0    0  0.00000000000E+00  0.00000000000E+00  0.10791049036E+04  0.11734297898E+04  0.46094476738E+03 0.  0.
      99925    2    3    3    0    0 -0.54822561759E+01  0.11740688307E+03  0.63363602850E+03  0.69603639005E+03  0.26297834195E+03 0.  0.
         25    1    4    4    0    0 -0.15944389656E+02  0.90194576934E+02  0.40707634363E+03  0.43560066909E+03  0.12509000000E+03 0.  0.
         25    1    4    4    0    0  0.10462133480E+02  0.27212306136E+02  0.22655968487E+03  0.26043572096E+03  0.12509000000E+03 0.  0.
         25    1    3    3    0    0  0.54822561759E+01 -0.11740688307E+03  0.44546887507E+03  0.47739339971E+03  0.12509000000E+03 0.  0.
<mgrwt>
<rscale>  2 0.46094477E+03</rscale>
<asrwt>0</asrwt>
<pdfrwt beam="1">  1       21 0.16562753E+00 0.46094477E+03</pdfrwt>
<pdfrwt beam="2">  1       21 0.69356541E-02 0.46094477E+03</pdfrwt>
<totfact> 0.31523921E+04</totfact>
</mgrwt>
</event>
<event>
 7    0  0.4770865E-002  0.4585348E+03  0.7546771E-02  0.1025207E+00
         21   -1    0    0  502  501  0.00000000000E+00  0.00000000000E+00  0.55870135073E+03  0.55870135073E+03  0.00000000000E+00 0.  1.
         21   -1    0    0  501  502 -0.00000000000E+00 -0.00000000000E+00 -0.94081629993E+02  0.94081629993E+02  0.00000000000E+00 0.  1.
      99926    2    1    2    0    0  0.35527136788E-14  0.00000000000E+00  0.46461972074E+03  0.65278298073E+03  0.45853476970E+03 0.  0.
      99925    2    3    3    0    0  0.20371394000E+02  0.10801180219E+03  0.23668261012E+03  0.37049876650E+03  0.26300025653E+03 0.  0.
         25    1    4    4    0    0  0.36937654469E+02  0.49959043075E+02  0.79383898449E+02  0.16065368883E+03  0.12509000000E+03 0.  0.
         25    1    3    3    0    0 -0.20371394000E+02 -0.10801180219E+03  0.22793711062E+03  0.28228421423E+03  0.12509000000E+03 0.  0.
         25    1    4    4    0    0 -0.16566260470E+02  0.58052759113E+02  0.15729871167E+03  0.20984507766E+03  0.12509000000E+03 0.  0.
<mgrwt>
<rscale>  2 0.45853477E+03</rscale>
<asrwt>0</asrwt>
<pdfrwt beam="1">  1       21 0.82161962E-01 0.45853477E+03</pdfrwt>
<pdfrwt beam="2">  1       21 0.13835534E-01 0.45853477E+03</pdfrwt>
<totfact> 0.54019345E+04</totfact>
</mgrwt>
</event>
<event>
 7    0  0.4770865E-002  0.4583045E+03  0.7546771E-02  0.1025274E+00
         21   -1    0    0  502  501  0.00000000000E+00  0.00000000000E+00  0.32329960022E+03  0.32329960022E+03  0.00000000000E+00 0. -1.
         21   -1    0    0  501  502 -0.00000000000E+00 -0.00000000000E+00 -0.16242131053E+03  0.16242131053E+03  0.00000000000E+00 0. -1.
      99926    2    1    2    0    0  0.71054273576E-14  0.00000000000E+00  0.16087828969E+03  0.48572091075E+03  0.45830446108E+03 0.  0.
      99925    2    3    3    0    0  0.36373768286E+02  0.27919734298E+02 -0.12180697137E+02  0.26731879628E+03  0.26307490736E+03 0.  0.
         25    1    4    4    0    0 -0.90745926263E+01  0.15242801930E+01  0.22129819659E+02  0.12736525696E+03  0.12509000000E+03 0.  0.
         25    1    4    4    0    0  0.45448360912E+02  0.26395454105E+02 -0.34310516795E+02  0.13995353933E+03  0.12509000000E+03 0.  0.
         25    1    3    3    0    0 -0.36373768286E+02 -0.27919734298E+02  0.17305898682E+03  0.21840211446E+03  0.12509000000E+03 0.  0.
<mgrwt>
<rscale>  2 0.45830446E+03</rscale>
<asrwt>0</asrwt>
<pdfrwt beam="1">  1       21 0.47544059E-01 0.45830446E+03</pdfrwt>
<pdfrwt beam="2">  1       21 0.23885487E-01 0.45830446E+03</pdfrwt>
<totfact> 0.64575361E+04</totfact>
</mgrwt>
</event>
<event>
 7    0  0.4770865E-002  0.4780049E+03  0.7546771E-02  0.1019685E+00
         21   -1    0    0  502  501  0.00000000000E+00  0.00000000000E+00  0.14342191593E+03  0.14342191593E+03  0.00000000000E+00 0. -1.
         21   -1    0    0  501  502 -0.00000000000E+00 -0.00000000000E+00 -0.39828062754E+03  0.39828062754E+03  0.00000000000E+00 0. -1.
      99926    2    1    2    0    0  0.14210854715E-13  0.00000000000E+00 -0.25485871161E+03  0.54170254347E+03  0.47800489821E+03 0.  0.
      99925    2    3    3    0    0 -0.10788952269E+03  0.41716968139E+02 -0.23270464746E+03  0.36989228418E+03  0.26322688770E+03 0.  0.
         25    1    4    4    0    0 -0.93944279175E+02  0.10709654839E+02 -0.11129807676E+03  0.19228883038E+03  0.12509000000E+03 0.  0.
         25    1    3    3    0    0  0.10788952269E+03 -0.41716968139E+02 -0.22154064152E+02  0.17181025929E+03  0.12509000000E+03 0.  0.
         25    1    4    4    0    0 -0.13945243518E+02  0.31007313301E+02 -0.12140657070E+03  0.17760345380E+03  0.12509000000E+03 0.  0.
<mgrwt>
<rscale>  2 0.47800490E+03</rscale>
<asrwt>0</asrwt>
<pdfrwt beam="1">  1       21 0.21091458E-01 0.47800490E+03</pdfrwt>
<pdfrwt beam="2">  1       21 0.58570680E-01 0.47800490E+03</pdfrwt>
<totfact> 0.52227793E+04</totfact>
</mgrwt>
</event>
<event>
 7    0  0.4770865E-002  0.4459441E+03  0.7546771E-02  0.1028938E+00
         21   -1    0    0  502  501  0.00000000000E+00  0.00000000000E+00  0.61282030464E+03  0.61282030464E+03  0.00000000000E+00 0. -1.
         21   -1    0    0  501  502 -0.00000000000E+00 -0.00000000000E+00 -0.81127435877E+02  0.81127435877E+02  0.00000000000E+00 0. -1.
      99926    2    1    2    0    0  0.00000000000E+00  0.17763568394E-14  0.53169286877E+03  0.69394774052E+03  0.44594412192E+03 0.  0.
      99925    2    3    3    0    0 -0.55313483662E+02  0.25462180806E+01  0.19965104444E+03  0.33483028633E+03  0.26302987739E+03 0.  0.
         25    1    4    4    0    0 -0.44158792858E+02  0.34525610575E+02  0.12358880359E+03  0.18456358592E+03  0.12509000000E+03 0.  0.
         25    1    4    4    0    0 -0.11154690804E+02 -0.31979392494E+02  0.76062240847E+02  0.15026670042E+03  0.12509000000E+03 0.  0.
         25    1    3    3    0    0  0.55313483662E+02 -0.25462180806E+01  0.33204182432E+03  0.35911745419E+03  0.12509000000E+03 0.  0.
<mgrwt>
<rscale>  2 0.44594412E+03</rscale>
<asrwt>0</asrwt>
<pdfrwt beam="1">  1       21 0.90120631E-01 0.44594412E+03</pdfrwt>
<pdfrwt beam="2">  1       21 0.11930506E-01 0.44594412E+03</pdfrwt>
<totfact> 0.57202372E+04</totfact>
</mgrwt>
</event>
<event>
 6    0  0.4770865E-002  0.4550708E+03  0.7546771E-02  0.1026221E+00
         21   -1    0    0  502  501  0.00000000000E+00  0.00000000000E+00  0.25971226821E+03  0.25971226821E+03  0.00000000000E+00 0.  1.
         21   -1    0    0  501  502 -0.00000000000E+00 -0.00000000000E+00 -0.19934509642E+03  0.19934509642E+03  0.00000000000E+00 0.  1.
      99926    2    1    2    0    0 -0.14210854715E-13  0.00000000000E+00  0.60367171784E+02  0.45905736463E+03  0.45507083909E+03 0.  0.
         25    1    3    3    0    0 -0.75664008294E+01  0.29997987885E+02 -0.34764422605E+02  0.13346611135E+03  0.12509000000E+03 0.  0.
         25    1    3    3    0    0  0.75694490765E+02  0.13238166186E+02 -0.38015245459E+01  0.14685661260E+03  0.12509000000E+03 0.  0.
         25    1    3    3    0    0 -0.68128089936E+02 -0.43236154071E+02  0.98933118935E+02  0.17873464068E+03  0.12509000000E+03 0.  0.
<mgrwt>
<rscale>  2 0.45507084E+03</rscale>
<asrwt>0</asrwt>
<pdfrwt beam="1">  1       21 0.38192981E-01 0.45507084E+03</pdfrwt>
<pdfrwt beam="2">  1       21 0.29315455E-01 0.45507084E+03</pdfrwt>
<totfact> 0.68210771E+04</totfact>
</mgrwt>
</event>
<event>
 7    0  0.4770865E-002  0.4513718E+03  0.7546771E-02  0.1027314E+00
         21   -1    0    0  502  501  0.00000000000E+00  0.00000000000E+00  0.35734884049E+03  0.35734884049E+03  0.00000000000E+00 0. -1.
         21   -1    0    0  501  502 -0.00000000000E+00 -0.00000000000E+00 -0.14253336155E+03  0.14253336155E+03  0.00000000000E+00 0. -1.
      99926    2    1    2    0    0  0.00000000000E+00  0.71054273576E-14  0.21481547894E+03  0.49988220204E+03  0.45137182669E+03 0.  0.
      99925    2    3    3    0    0 -0.10192533303E+03 -0.36006262303E+02  0.11508742544E+03  0.30680600674E+03  0.26305814155E+03 0.  0.
         25    1    4    4    0    0 -0.30232457178E+02 -0.40282344731E+02  0.85173346017E+02  0.15949506493E+03  0.12509000000E+03 0.  0.
         25    1    3    3    0    0  0.10192533303E+03  0.36006262303E+02  0.99728053497E+02  0.19307619530E+03  0.12509000000E+03 0.  0.
         25    1    4    4    0    0 -0.71692875856E+02  0.42760824276E+01  0.29914079427E+02  0.14731094181E+03  0.12509000000E+03 0.  0.
<mgrwt>
<rscale>  2 0.45137183E+03</rscale>
<asrwt>0</asrwt>
<pdfrwt beam="1">  1       21 0.52551300E-01 0.45137183E+03</pdfrwt>
<pdfrwt beam="2">  1       21 0.20960788E-01 0.45137183E+03</pdfrwt>
<totfact> 0.67193330E+04</totfact>
</mgrwt>
</event>
<event>
 6    0  0.4770865E-002  0.4610293E+03  0.7546771E-02  0.1024483E+00
         21   -1    0    0  502  501  0.00000000000E+00  0.00000000000E+00  0.12657238844E+04  0.12657238844E+04  0.00000000000E+00 0.  1.
         21   -1    0    0  501  502 -0.00000000000E+00 -0.00000000000E+00 -0.41981520882E+02  0.41981520882E+02  0.00000000000E+00 0.  1.
      99926    2    1    2    0    0  0.00000000000E+00  0.71054273576E-14  0.12237423635E+04  0.13077054053E+04  0.46102934260E+03 0.  0.
         25    1    3    3    0    0  0.78917160761E+02 -0.56558353061E+02  0.40436559205E+03  0.43426467240E+03  0.12509000000E+03 0.  0.
         25    1    3    3    0    0  0.30564931294E+02  0.25205801201E+02  0.30715921922E+03  0.33401173855E+03  0.12509000000E+03 0.  0.
         25    1    3    3    0    0 -0.10948209205E+03  0.31352551860E+02  0.51221755224E+03  0.53942899432E+03  0.12509000000E+03 0.  0.
<mgrwt>
<rscale>  2 0.46102934E+03</rscale>
<asrwt>0</asrwt>
<pdfrwt beam="1">  1       21 0.18613584E+00 0.46102934E+03</pdfrwt>
<pdfrwt beam="2">  1       21 0.61737539E-02 0.46102934E+03</pdfrwt>
<totfact> 0.27575733E+04</totfact>
</mgrwt>
</event>
<event>
 7    0  0.4770865E-002  0.4462419E+03  0.7546771E-02  0.1028849E+00
         21   -1    0    0  502  501  0.00000000000E+00  0.00000000000E+00  0.34445089155E+02  0.34445089155E+02  0.00000000000E+00 0.  1.
         21   -1    0    0  501  502 -0.00000000000E+00 -0.00000000000E+00 -0.14452848084E+04  0.14452848084E+04  0.00000000000E+00 0.  1.
      99926    2    1    2    0    0 -0.71054273576E-14  0.00000000000E+00 -0.14108397193E+04  0.14797298976E+04  0.44624192578E+03 0.  0.
      99925    2    3    3    0    0  0.42779958544E+02  0.16757602962E+02 -0.58305008627E+03  0.64128244740E+03  0.26303009739E+03 0.  0.
         25    1    3    3    0    0 -0.42779958544E+02 -0.16757602962E+02 -0.82778963299E+03  0.83844745017E+03  0.12509000000E+03 0.  0.
         25    1    4    4    0    0 -0.45929939414E+01  0.30390795965E+02 -0.23192044619E+03  0.26529096768E+03  0.12509000000E+03 0.  0.
         25    1    4    4    0    0  0.47372952485E+02 -0.13633193003E+02 -0.35112964008E+03  0.37599147972E+03  0.12509000000E+03 0.  0.
<mgrwt>
<rscale>  2 0.44624193E+03</rscale>
<asrwt>0</asrwt>
<pdfrwt beam="1">  1       21 0.50654545E-02 0.44624193E+03</pdfrwt>
<pdfrwt beam="2">  1       21 0.21254188E+00 0.44624193E+03</pdfrwt>
<totfact> 0.26005019E+04</totfact>
</mgrwt>
</event>
<event>
 7    0  0.4770865E-002  0.4589477E+03  0.7546771E-02  0.1025087E+00
         21   -1    0    0  502  501  0.00000000000E+00  0.00000000000E+00  0.50267432306E+02  0.50267432306E+02  0.00000000000E+00 0. -1.
         21   -1    0    0  501  502 -0.00000000000E+00 -0.00000000000E+00 -0.10475619932E+04  0.10475619932E+04  0.00000000000E+00 0. -1.
      99926    2    1    2    0    0  0.00000000000E+00  0.14210854715E-13 -0.99729456088E+03  0.10978294255E+04  0.45894771632E+03 0.  0.
      99925    2    3    3    0    0 -0.57989824581E+02  0.96810292194E+02 -0.69764440111E+03  0.75406674750E+03  0.26300930945E+03 0.  0.
         25    1    4    4    0    0 -0.36143543689E+02  0.58341751327E+02 -0.25784883425E+03  0.29469245855E+03  0.12509000000E+03 0.  0.
         25    1    3    3    0    0  0.57989824581E+02 -0.96810292194E+02 -0.29965015977E+03  0.34376267800E+03  0.12509000000E+03 0.  0.
         25    1    4    4    0    0 -0.21846280892E+02  0.38468540867E+02 -0.43979556686E+03  0.45937428895E+03  0.12509000000E+03 0.  0.
<mgrwt>
<rscale>  2 0.45894772E+03</rscale>
<asrwt>0</asrwt>
<pdfrwt beam="1">  1       21 0.73922697E-02 0.45894772E+03</pdfrwt>
<pdfrwt beam="2">  1       21 0.15405323E+00 0.45894772E+03</pdfrwt>
<totfact> 0.34494957E+04</totfact>
</mgrwt>
</event>
<event>
 7    0  0.4770865E-002  0.4493626E+03  0.7546771E-02  0.1027912E+00
         21   -1    0    0  502  501  0.00000000000E+00  0.00000000000E+00  0.11709584683E+03  0.11709584683E+03  0.00000000000E+00 0.  1.
         21   -1    0    0  501  502 -0.00000000000E+00 -0.00000000000E+00 -0.43111425613E+03  0.43111425613E+03  0.00000000000E+00 0.  1.
      99926    2    1    2    0    0  0.00000000000E+00  0.00000000000E+00 -0.31401840930E+03  0.54821010296E+03  0.44936261037E+03 0.  0.
      99925    2    3    3    0    0  0.33769321379E+02  0.78175843543E+02 -0.27927498207E+03  0.39294760453E+03  0.26298569300E+03 0.  0.
         25    1    3    3    0    0 -0.33769321379E+02 -0.78175843543E+02 -0.34743427235E+02  0.15526249842E+03  0.12509000000E+03 0.  0.
         25    1    4    4    0    0  0.26120018927E+02  0.64536596250E+02 -0.19253157420E+03  0.23992320189E+03  0.12509000000E+03 0.  0.
         25    1    4    4    0    0  0.76493024513E+01  0.13639247293E+02 -0.86743407869E+02  0.15302440264E+03  0.12509000000E+03 0.  0.
<mgrwt>
<rscale>  2 0.44936261E+03</rscale>
<asrwt>0</asrwt>
<pdfrwt beam="1">  1       21 0.17219977E-01 0.44936261E+03</pdfrwt>
<pdfrwt beam="2">  1       21 0.63399155E-01 0.44936261E+03</pdfrwt>
<totfact> 0.64828533E+04</totfact>
</mgrwt>
</event>
<event>
 7    0  0.4770865E-002  0.4531388E+03  0.7546771E-02  0.1026790E+00
         21   -1    0    0  502  501  0.00000000000E+00  0.00000000000E+00  0.62124195793E+02  0.62124195793E+02  0.00000000000E+00 0. -1.
         21   -1    0    0  501  502 -0.00000000000E+00 -0.00000000000E+00 -0.82630759633E+03  0.82630759633E+03  0.00000000000E+00 0. -1.
      99926    2    1    2    0    0 -0.48849813084E-14  0.00000000000E+00 -0.76418340054E+03  0.88843179212E+03  0.45313880831E+03 0.  0.
      99925    2    3    3    0    0 -0.29647484115E+01 -0.10421959087E+03 -0.55801595405E+03  0.62570943497E+03  0.26317290739E+03 0.  0.
         25    1    4    4    0    0  0.33150495934E+02 -0.54986141294E+02 -0.23295886834E+03  0.27210250560E+03  0.12509000000E+03 0.  0.
         25    1    4    4    0    0 -0.36115244345E+02 -0.49233449579E+02 -0.32505708571E+03  0.35360692938E+03  0.12509000000E+03 0.  0.
         25    1    3    3    0    0  0.29647484115E+01  0.10421959087E+03 -0.20616744649E+03  0.26272235715E+03  0.12509000000E+03 0.  0.
<mgrwt>
<rscale>  2 0.45313881E+03</rscale>
<asrwt>0</asrwt>
<pdfrwt beam="1">  1       21 0.91359113E-02 0.45313881E+03</pdfrwt>
<pdfrwt beam="2">  1       21 0.12151582E+00 0.45313881E+03</pdfrwt>
<totfact> 0.44380953E+04</totfact>
</mgrwt>
</event>
<event>
 7    0  0.4770865E-002  0.4539885E+03  0.7546771E-02  0.1026539E+00
         21   -1    0    0  502  501  0.00000000000E+00  0.00000000000E+00  0.34118866015E+03  0.34118866015E+03  0.00000000000E+00 0. -1.
         21   -1    0    0  501  502 -0.00000000000E+00 -0.00000000000E+00 -0.15102021483E+03  0.15102021483E+03  0.00000000000E+00 0. -1.
      99926    2    1    2    0    0 -0.71054273576E-14  0.00000000000E+00  0.19016844531E+03  0.49220887498E+03  0.45398847895E+03 0.  0.
      99925    2    3    3    0    0 -0.55863433902E+02  0.95757145417E+02  0.13802486300E+03  0.31711856850E+03  0.26310296376E+03 0.  0.
         25    1    4    4    0    0  0.76584351224E+01  0.63379970233E+02  0.54355617759E+02  0.15059121335E+03  0.12509000000E+03 0.  0.
         25    1    3    3    0    0  0.55863433902E+02 -0.95757145417E+02  0.52143582317E+02  0.17509030648E+03  0.12509000000E+03 0.  0.
         25    1    4    4    0    0 -0.63521869024E+02  0.32377175185E+02  0.83669245238E+02  0.16652735516E+03  0.12509000000E+03 0.  0.
<mgrwt>
<rscale>  2 0.45398848E+03</rscale>
<asrwt>0</asrwt>
<pdfrwt beam="1">  1       21 0.50174803E-01 0.45398848E+03</pdfrwt>
<pdfrwt beam="2">  1       21 0.22208855E-01 0.45398848E+03</pdfrwt>
<totfact> 0.66352768E+04</totfact>
</mgrwt>
</event>
<event>
 7    0  0.4770865E-002  0.4541458E+03  0.7546771E-02  0.1026493E+00
         21   -1    0    0  502  501  0.00000000000E+00  0.00000000000E+00  0.16245556585E+03  0.16245556585E+03  0.00000000000E+00 0.  1.
         21   -1    0    0  501  502 -0.00000000000E+00 -0.00000000000E+00 -0.31739205514E+03  0.31739205514E+03  0.00000000000E+00 0.  1.
      99926    2    1    2    0    0  0.00000000000E+00  0.14210854715E-13 -0.15493648929E+03  0.47984762098E+03  0.45414581761E+03 0.  0.
      99925    2    3    3    0    0 -0.49598251309E+02 -0.10005324081E+03 -0.83884716434E+02  0.29773090002E+03  0.26293802624E+03 0.  0.
         25    1    4    4    0    0 -0.48350284484E+02 -0.80661200044E+02 -0.66151937500E+02  0.16990457951E+03  0.12509000000E+03 0.  0.
         25    1    4    4    0    0 -0.12479668256E+01 -0.19392040768E+02 -0.17732778934E+02  0.12782632051E+03  0.12509000000E+03 0.  0.
         25    1    3    3    0    0  0.49598251309E+02  0.10005324081E+03 -0.71051772856E+02  0.18211672097E+03  0.12509000000E+03 0.  0.
<mgrwt>
<rscale>  2 0.45414582E+03</rscale>
<asrwt>0</asrwt>
<pdfrwt beam="1">  1       21 0.23890525E-01 0.45414582E+03</pdfrwt>
<pdfrwt beam="2">  1       21 0.46675302E-01 0.45414582E+03</pdfrwt>
<totfact> 0.67165425E+04</totfact>
</mgrwt>
</event>
<event>
 7    0  0.4770865E-002  0.4591564E+03  0.7546771E-02  0.1025026E+00
         21   -1    0    0  502  501  0.00000000000E+00  0.00000000000E+00  0.69575975916E+02  0.69575975916E+02  0.00000000000E+00 0. -1.
         21   -1    0    0  501  502 -0.00000000000E+00 -0.00000000000E+00 -0.75753375170E+03  0.75753375170E+03  0.00000000000E+00 0. -1.
      99926    2    1    2    0    0  0.14210854715E-13 -0.35527136788E-14 -0.68795777579E+03  0.82710972762E+03  0.45915640065E+03 0.  0.
      99925    2    3    3    0    0 -0.10338980625E+03  0.18094176921E+02 -0.33828367240E+03  0.44118701780E+03  0.26304617539E+03 0.  0.
         25    1    4    4    0    0 -0.21558308785E+02 -0.17462129950E+02 -0.17606519497E+03  0.21775249170E+03  0.12509000000E+03 0.  0.
         25    1    4    4    0    0 -0.81831497461E+02  0.35556306871E+02 -0.16221847743E+03  0.22343452610E+03  0.12509000000E+03 0.  0.
         25    1    3    3    0    0  0.10338980625E+03 -0.18094176921E+02 -0.34967410339E+03  0.38592270982E+03  0.12509000000E+03 0.  0.
<mgrwt>
<rscale>  2 0.45915640E+03</rscale>
<asrwt>0</asrwt>
<pdfrwt beam="1">  1       21 0.10231761E-01 0.45915640E+03</pdfrwt>
<pdfrwt beam="2">  1       21 0.11140202E+00 0.45915640E+03</pdfrwt>
<totfact> 0.44995875E+04</totfact>
</mgrwt>
</event>
<event>
 7    0  0.4770865E-002  0.4307923E+03  0.7546771E-02  0.1033610E+00
         21   -1    0    0  502  501  0.00000000000E+00  0.00000000000E+00  0.27657863151E+03  0.27657863151E+03  0.00000000000E+00 0.  1.
         21   -1    0    0  501  502 -0.00000000000E+00 -0.00000000000E+00 -0.16774799022E+03  0.16774799022E+03  0.00000000000E+00 0.  1.
      99926    2    1    2    0    0  0.00000000000E+00  0.00000000000E+00  0.10883064129E+03  0.44432662173E+03  0.43079233778E+03 0.  0.
      99925    2    3    3    0    0  0.27388596598E+02  0.56759013750E+02  0.59304544471E+01  0.27052306187E+03  0.26301299559E+03 0.  0.
         25    1    4    4    0    0  0.30760932088E+02 -0.85723344842E+01 -0.22731582854E+01  0.12912162952E+03  0.12509000000E+03 0.  0.
         25    1    3    3    0    0 -0.27388596598E+02 -0.56759013750E+02  0.10290018685E+03  0.17380355986E+03  0.12509000000E+03 0.  0.
         25    1    4    4    0    0 -0.33723354903E+01  0.65331348234E+02  0.82036127325E+01  0.14140143235E+03  0.12509000000E+03 0.  0.
<mgrwt>
<rscale>  2 0.43079234E+03</rscale>
<asrwt>0</asrwt>
<pdfrwt beam="1">  1       21 0.40673328E-01 0.43079234E+03</pdfrwt>
<pdfrwt beam="2">  1       21 0.24668822E-01 0.43079234E+03</pdfrwt>
<totfact> 0.84487679E+04</totfact>
</mgrwt>
</event>
<event>
 7    0  0.4770865E-002  0.4502944E+03  0.7546771E-02  0.1027634E+00
         21   -1    0    0  502  501  0.00000000000E+00  0.00000000000E+00  0.13027139384E+03  0.13027139384E+03  0.00000000000E+00 0. -1.
         21   -1    0    0  501  502 -0.00000000000E+00 -0.00000000000E+00 -0.38912045264E+03  0.38912045264E+03  0.00000000000E+00 0. -1.
      99926    2    1    2    0    0  0.00000000000E+00  0.00000000000E+00 -0.25884905880E+03  0.51939184648E+03  0.45029440919E+03 0.  0.
      99925    2    3    3    0    0 -0.84261060597E+02  0.45805570528E+02 -0.22256990697E+03  0.35764586792E+03  0.26301164751E+03 0.  0.
         25    1    3    3    0    0  0.84261060597E+02 -0.45805570528E+02 -0.36279151835E+02  0.16174597857E+03  0.12509000000E+03 0.  0.
         25    1    4    4    0    0 -0.70210917989E+02 -0.60799305914E+01 -0.12140756763E+03  0.18802617939E+03  0.12509000000E+03 0.  0.
         25    1    4    4    0    0 -0.14050142608E+02  0.51885501119E+02 -0.10116233934E+03  0.16961968852E+03  0.12509000000E+03 0.  0.
<mgrwt>
<rscale>  2 0.45029441E+03</rscale>
<asrwt>0</asrwt>
<pdfrwt beam="1">  1       21 0.19157558E-01 0.45029441E+03</pdfrwt>
<pdfrwt beam="2">  1       21 0.57223596E-01 0.45029441E+03</pdfrwt>
<totfact> 0.66371991E+04</totfact>
</mgrwt>
</event>
<event>
 7    0  0.4770865E-002  0.4559854E+03  0.7546771E-02  0.1025952E+00
         21   -1    0    0  502  501  0.00000000000E+00  0.00000000000E+00  0.81818600661E+03  0.81818600661E+03  0.00000000000E+00 0. -1.
         21   -1    0    0  501  502 -0.00000000000E+00 -0.00000000000E+00 -0.63531606651E+02  0.63531606651E+02  0.00000000000E+00 0. -1.
      99926    2    1    2    0    0  0.00000000000E+00  0.00000000000E+00  0.75465439996E+03  0.88171761326E+03  0.45598540126E+03 0.  0.
      99925    2    3    3    0    0  0.16693540248E+02  0.98822444525E+02  0.57980532482E+03  0.64451673425E+03  0.26302672147E+03 0.  0.
         25    1    4    4    0    0 -0.83035282256E+01  0.32852215134E+02  0.19847640639E+03  0.23704136477E+03  0.12509000000E+03 0.  0.
         25    1    3    3    0    0 -0.16693540248E+02 -0.98822444525E+02  0.17484907514E+03  0.23720087902E+03  0.12509000000E+03 0.  0.
         25    1    4    4    0    0  0.24997068474E+02  0.65970229390E+02  0.38132891843E+03  0.40747536948E+03  0.12509000000E+03 0.  0.
<mgrwt>
<rscale>  2 0.45598540E+03</rscale>
<asrwt>0</asrwt>
<pdfrwt beam="1">  1       21 0.12032147E+00 0.45598540E+03</pdfrwt>
<pdfrwt beam="2">  1       21 0.93428838E-02 0.45598540E+03</pdfrwt>
<totfact> 0.43695433E+04</totfact>
</mgrwt>
</event>
<event>
 7    0  0.4770865E-002  0.4565063E+03  0.7546771E-02  0.1025799E+00
         21   -1    0    0  502  501  0.00000000000E+00  0.00000000000E+00  0.99980940073E+02  0.99980940073E+02  0.00000000000E+00 0.  1.
         21   -1    0    0  501  502 -0.00000000000E+00 -0.00000000000E+00 -0.52109434431E+03  0.52109434431E+03  0.00000000000E+00 0.  1.
      99926    2    1    2    0    0  0.00000000000E+00 -0.17763568394E-14 -0.42111340424E+03  0.62107528439E+03  0.45650630844E+03 0.  0.
      99925    2    3    3    0    0  0.14700039850E+02 -0.10235638550E+02 -0.11079498827E+03  0.28601426478E+03  0.26307369835E+03 0.  0.
         25    1    4    4    0    0 -0.22777646567E+02  0.60941946003E+01 -0.81637460213E+02  0.15122216571E+03  0.12509000000E+03 0.  0.
         25    1    4    4    0    0  0.37477686417E+02 -0.16329833150E+02 -0.29157528053E+02  0.13479209907E+03  0.12509000000E+03 0.  0.
         25    1    3    3    0    0 -0.14700039850E+02  0.10235638550E+02 -0.31031841597E+03  0.33506101961E+03  0.12509000000E+03 0.  0.
<mgrwt>
<rscale>  2 0.45650631E+03</rscale>
<asrwt>0</asrwt>
<pdfrwt beam="1">  1       21 0.14703079E-01 0.45650631E+03</pdfrwt>
<pdfrwt beam="2">  1       21 0.76631522E-01 0.45650631E+03</pdfrwt>
<totfact> 0.56721743E+04</totfact>
</mgrwt>
</event>
<event>
 7    0  0.4770865E-002  0.4507952E+03  0.7546771E-02  0.1027485E+00
         21   -1    0    0  502  501  0.00000000000E+00  0.00000000000E+00  0.32431177272E+03  0.32431177272E+03  0.00000000000E+00 0.  1.
         21   -1    0    0  501  502 -0.00000000000E+00 -0.00000000000E+00 -0.15665195775E+03  0.15665195775E+03  0.00000000000E+00 0.  1.
      99926    2    1    2    0    0  0.71054273576E-14  0.14210854715E-13  0.16765981497E+03  0.48096373047E+03  0.45079518240E+03 0.  0.
      99925    2    3    3    0    0  0.33857978351E+02  0.69696066307E+02  0.23943736024E+02  0.27528017789E+03  0.26306267217E+03 0.  0.
         25    1    4    4    0    0  0.36340865640E+02  0.48031517213E+02  0.46297376597E+02  0.14635108589E+03  0.12509000000E+03 0.  0.
         25    1    4    4    0    0 -0.24828872887E+01  0.21664549094E+02 -0.22353640573E+02  0.12892909200E+03  0.12509000000E+03 0.  0.
         25    1    3    3    0    0 -0.33857978351E+02 -0.69696066307E+02  0.14371607894E+03  0.20568355258E+03  0.12509000000E+03 0.  0.
<mgrwt>
<rscale>  2 0.45079518E+03</rscale>
<asrwt>0</asrwt>
<pdfrwt beam="1">  1       21 0.47692908E-01 0.45079518E+03</pdfrwt>
<pdfrwt beam="2">  1       21 0.23037053E-01 0.45079518E+03</pdfrwt>
<totfact> 0.68901267E+04</totfact>
</mgrwt>
</event>
<event>
 7    0  0.4770865E-002  0.4436083E+03  0.7546771E-02  0.1029645E+00
         21   -1    0    0  502  501  0.00000000000E+00  0.00000000000E+00  0.15808947938E+04  0.15808947938E+04  0.00000000000E+00 0.  1.
         21   -1    0    0  501  502 -0.00000000000E+00 -0.00000000000E+00 -0.31119773848E+02  0.31119773848E+02  0.00000000000E+00 0.  1.
      99926    2    1    2    0    0 -0.17763568394E-14  0.00000000000E+00  0.15497750199E+04  0.16120145676E+04  0.44360833382E+03 0.  0.
      99925    2    3    3    0    0  0.15398903739E+01 -0.74163721989E+02  0.12410335011E+04  0.12707354114E+04  0.26287203356E+03 0.  0.
         25    1    3    3    0    0 -0.15398903739E+01  0.74163721989E+02  0.30874151885E+03  0.34127915624E+03  0.12509000000E+03 0.  0.
         25    1    4    4    0    0  0.38107932005E+02 -0.48505492977E+02  0.68529789215E+03  0.69934662823E+03  0.12509000000E+03 0.  0.
         25    1    4    4    0    0 -0.36568041632E+02 -0.25658229012E+02  0.55573560893E+03  0.57138878316E+03  0.12509000000E+03 0.  0.
<mgrwt>
<rscale>  2 0.44360833E+03</rscale>
<asrwt>0</asrwt>
<pdfrwt beam="1">  1       21 0.23248448E+00 0.44360833E+03</pdfrwt>
<pdfrwt beam="2">  1       21 0.45764384E-02 0.44360833E+03</pdfrwt>
<totfact> 0.23139824E+04</totfact>
</mgrwt>
</event>
<event>
 7    0  0.4770865E-002  0.4568115E+03  0.7546771E-02  0.1025710E+00
         21   -1    0    0  502  501  0.00000000000E+00  0.00000000000E+00  0.64849995182E+03  0.64849995182E+03  0.00000000000E+00 0. -1.
         21   -1    0    0  501  502 -0.00000000000E+00 -0.00000000000E+00 -0.80445954528E+02  0.80445954528E+02  0.00000000000E+00 0. -1.
      99926    2    1    2    0    0  0.00000000000E+00 -0.88817841970E-15  0.56805399729E+03  0.72894590635E+03  0.45681154817E+03 0.  0.
      99925    2    3    3    0    0 -0.38211045224E+02  0.50422983278E+01  0.52945939161E+03  0.59248140387E+03  0.26309971079E+03 0.  0.
         25    1    4    4    0    0  0.71428830977E+01  0.19790096122E+02  0.31608205430E+03  0.34058485262E+03  0.12509000000E+03 0.  0.
         25    1    4    4    0    0 -0.45353928322E+02 -0.14747797794E+02  0.21337733731E+03  0.25189655125E+03  0.12509000000E+03 0.  0.
         25    1    3    3    0    0  0.38211045224E+02 -0.50422983278E+01  0.38594605685E+02  0.13646450248E+03  0.12509000000E+03 0.  0.
<mgrwt>
<rscale>  2 0.45681155E+03</rscale>
<asrwt>0</asrwt>
<pdfrwt beam="1">  1       21 0.95367637E-01 0.45681155E+03</pdfrwt>
<pdfrwt beam="2">  1       21 0.11830288E-01 0.45681155E+03</pdfrwt>
<totfact> 0.50634260E+04</totfact>
</mgrwt>
</event>
<event>
 7    0  0.4770865E-002  0.4550460E+03  0.7546771E-02  0.1026228E+00
         21   -1    0    0  502  501  0.00000000000E+00  0.00000000000E+00  0.55667878825E+02  0.55667878825E+02  0.00000000000E+00 0.  1.
         21   -1    0    0  501  502 -0.00000000000E+00 -0.00000000000E+00 -0.92992061969E+03  0.92992061969E+03  0.00000000000E+00 0.  1.
      99926    2    1    2    0    0  0.17763568394E-14 -0.14210854715E-13 -0.87425274086E+03  0.98558849851E+03  0.45504596855E+03 0.  0.
      99925    2    3    3    0    0 -0.14228416187E+02 -0.10982622552E+03 -0.50038400771E+03  0.57608931003E+03  0.26311687578E+03 0.  0.
         25    1    4    4    0    0 -0.28995691760E+02 -0.40692325655E+02 -0.30627415292E+03  0.33458628238E+03  0.12509000000E+03 0.  0.
         25    1    4    4    0    0  0.14767275573E+02 -0.69133899868E+02 -0.19410985479E+03  0.24150302765E+03  0.12509000000E+03 0.  0.
         25    1    3    3    0    0  0.14228416187E+02  0.10982622552E+03 -0.37386873315E+03  0.40949918848E+03  0.12509000000E+03 0.  0.
<mgrwt>
<rscale>  2 0.45504597E+03</rscale>
<asrwt>0</asrwt>
<pdfrwt beam="1">  1       21 0.81864525E-02 0.45504597E+03</pdfrwt>
<pdfrwt beam="2">  1       21 0.13675304E+00 0.45504597E+03</pdfrwt>
<totfact> 0.39717651E+04</totfact>
</mgrwt>
</event>
<event>
 7    0  0.4770865E-002  0.4579772E+03  0.7546771E-02  0.1025370E+00
         21   -1    0    0  502  501  0.00000000000E+00  0.00000000000E+00  0.54528291580E+03  0.54528291580E+03  0.00000000000E+00 0. -1.
         21   -1    0    0  501  502 -0.00000000000E+00 -0.00000000000E+00 -0.96162529274E+02  0.96162529274E+02  0.00000000000E+00 0. -1.
      99926    2    1    2    0    0  0.00000000000E+00  0.35527136788E-14  0.44912038652E+03  0.64144544507E+03  0.45797722368E+03 0.  0.
      99925    2    3    3    0    0  0.97993000853E+02  0.30720767900E+02  0.35715094918E+03  0.45529421810E+03  0.26303921902E+03 0.  0.
         25    1    3    3    0    0 -0.97993000853E+02 -0.30720767900E+02  0.91969437346E+02  0.18615122697E+03  0.12509000000E+03 0.  0.
         25    1    4    4    0    0  0.85578591828E+02 -0.51387729416E+01  0.19338255631E+03  0.24575276916E+03  0.12509000000E+03 0.  0.
         25    1    4    4    0    0  0.12414409025E+02  0.35859540842E+02  0.16376839287E+03  0.20954144894E+03  0.12509000000E+03 0.  0.
<mgrwt>
<rscale>  2 0.45797722E+03</rscale>
<asrwt>0</asrwt>
<pdfrwt beam="1">  1       21 0.80188663E-01 0.45797722E+03</pdfrwt>
<pdfrwt beam="2">  1       21 0.14141549E-01 0.45797722E+03</pdfrwt>
<totfact> 0.54895870E+04</totfact>
</mgrwt>
</event>
<event>
 7    0  0.4770865E-002  0.4548015E+03  0.7546771E-02  0.1026300E+00
         21   -1    0    0  502  501  0.00000000000E+00  0.00000000000E+00  0.29196804423E+03  0.29196804423E+03  0.00000000000E+00 0.  1.
         21   -1    0    0  501  502 -0.00000000000E+00 -0.00000000000E+00 -0.17711216947E+03  0.17711216947E+03  0.00000000000E+00 0.  1.
      99926    2    1    2    0    0 -0.17763568394E-14 -0.35527136788E-14  0.11485587476E+03  0.46908021370E+03  0.45480146759E+03 0.  0.
      99925    2    3    3    0    0 -0.12451182253E+02 -0.30762513451E+02  0.18355932323E+03  0.32255705476E+03  0.26314950933E+03 0.  0.
         25    1    4    4    0    0  0.31791293154E+02 -0.17533027466E+02  0.72808815199E+02  0.14922039084E+03  0.12509000000E+03 0.  0.
         25    1    3    3    0    0  0.12451182253E+02  0.30762513451E+02 -0.68703448472E+02  0.14652315894E+03  0.12509000000E+03 0.  0.
         25    1    4    4    0    0 -0.44242475407E+02 -0.13229485985E+02  0.11075050803E+03  0.17333666392E+03  0.12509000000E+03 0.  0.
<mgrwt>
<rscale>  2 0.45480147E+03</rscale>
<asrwt>0</asrwt>
<pdfrwt beam="1">  1       21 0.42936477E-01 0.45480147E+03</pdfrwt>
<pdfrwt beam="2">  1       21 0.26045907E-01 0.45480147E+03</pdfrwt>
<totfact> 0.67610629E+04</totfact>
</mgrwt>
</event>
<event>
 7    0  0.4770865E-002  0.4568554E+03  0.7546771E-02  0.1025697E+00
         21   -1    0    0  502  501  0.00000000000E+00  0.00000000000E+00  0.26518658921E+03  0.26518658921E+03  0.00000000000E+00 0. -1.
         21   -1    0    0  501  502 -0.00000000000E+00 -0.00000000000E+00 -0.19676412513E+03  0.19676412513E+03  0.00000000000E+00 0. -1.
      99926    2    1    2    0    0 -0.71054273576E-14  0.00000000000E+00  0.68422464078E+02  0.46195071434E+03  0.45685536977E+03 0.  0.
      99925    2    3    3    0    0  0.38785764658E+02 -0.10548242976E+03  0.67586850264E+02  0.29378685116E+03  0.26289133317E+03 0.  0.
         25    1    4    4    0    0  0.24548631211E+01 -0.84576178765E+02  0.57069104947E+02  0.16144208623E+03  0.12509000000E+03 0.  0.
         25    1    4    4    0    0  0.36330901537E+02 -0.20906250996E+02  0.10517745317E+02  0.13234476493E+03  0.12509000000E+03 0.  0.
         25    1    3    3    0    0 -0.38785764658E+02  0.10548242976E+03  0.83561381405E+00  0.16816386318E+03  0.12509000000E+03 0.  0.
<mgrwt>
<rscale>  2 0.45685537E+03</rscale>
<asrwt>0</asrwt>
<pdfrwt beam="1">  1       21 0.38998028E-01 0.45685537E+03</pdfrwt>
<pdfrwt beam="2">  1       21 0.28935901E-01 0.45685537E+03</pdfrwt>
<totfact> 0.67041197E+04</totfact>
</mgrwt>
</event>
<event>
 7    0  0.4770865E-002  0.4508556E+03  0.7546771E-02  0.1027467E+00
         21   -1    0    0  502  501  0.00000000000E+00  0.00000000000E+00  0.39828843681E+03  0.39828843681E+03  0.00000000000E+00 0. -1.
         21   -1    0    0  501  502 -0.00000000000E+00 -0.00000000000E+00 -0.12759016914E+03  0.12759016914E+03  0.00000000000E+00 0. -1.
      99926    2    1    2    0    0  0.00000000000E+00 -0.35527136788E-14  0.27069826766E+03  0.52587860595E+03  0.45085558229E+03 0.  0.
      99925    2    3    3    0    0 -0.10274646194E+03 -0.29704308239E+02  0.14498477183E+03  0.31877821362E+03  0.26298247859E+03 0.  0.
         25    1    3    3    0    0  0.10274646194E+03  0.29704308239E+02  0.12571349584E+03  0.20710039233E+03  0.12509000000E+03 0.  0.
         25    1    4    4    0    0 -0.73571864506E+02  0.19329953384E+02  0.75952410975E+02  0.16493254129E+03  0.12509000000E+03 0.  0.
         25    1    4    4    0    0 -0.29174597429E+02 -0.49034261624E+02  0.69032360850E+02  0.15384567232E+03  0.12509000000E+03 0.  0.
<mgrwt>
<rscale>  2 0.45085558E+03</rscale>
<asrwt>0</asrwt>
<pdfrwt beam="1">  1       21 0.58571829E-01 0.45085558E+03</pdfrwt>
<pdfrwt beam="2">  1       21 0.18763260E-01 0.45085558E+03</pdfrwt>
<totfact> 0.65615535E+04</totfact>
</mgrwt>
</event>
<event>
 7    0  0.4770865E-002  0.4656159E+03  0.7546771E-02  0.1023165E+00
         21   -1    0    0  502  501  0.00000000000E+00  0.00000000000E+00  0.29591784915E+03  0.29591784915E+03  0.00000000000E+00 0. -1.
         21   -1    0    0  501  502 -0.00000000000E+00 -0.00000000000E+00 -0.18315738249E+03  0.18315738249E+03  0.00000000000E+00 0. -1.
      99926    2    1    2    0    0  0.00000000000E+00  0.00000000000E+00  0.11276046666E+03  0.47907523163E+03  0.46561588753E+03 0.  0.
      99925    2    3    3    0    0  0.11840788391E+03  0.24819845905E+02  0.47992782388E+02  0.29339051835E+03  0.26294150941E+03 0.  0.
         25    1    4    4    0    0  0.96615430710E+02 -0.81035630809E+01  0.25895708045E+02  0.16036927692E+03  0.12509000000E+03 0.  0.
         25    1    3    3    0    0 -0.11840788391E+03 -0.24819845905E+02  0.64767684272E+02  0.18568471329E+03  0.12509000000E+03 0.  0.
         25    1    4    4    0    0  0.21792453197E+02  0.32923408986E+02  0.22097074344E+02  0.13302124142E+03  0.12509000000E+03 0.  0.
<mgrwt>
<rscale>  2 0.46561589E+03</rscale>
<asrwt>0</asrwt>
<pdfrwt beam="1">  1       21 0.43517331E-01 0.46561589E+03</pdfrwt>
<pdfrwt beam="2">  1       21 0.26934909E-01 0.46561589E+03</pdfrwt>
<totfact> 0.61427852E+04</totfact>
</mgrwt>
</event>
<event>
 7    0  0.4770865E-002  0.4419562E+03  0.7546771E-02  0.1030148E+00
         21   -1    0    0  502  501  0.00000000000E+00  0.00000000000E+00  0.38283940514E+03  0.38283940514E+03  0.00000000000E+00 0. -1.
         21   -1    0    0  501  502 -0.00000000000E+00 -0.00000000000E+00 -0.12755039863E+03  0.12755039863E+03  0.00000000000E+00 0. -1.
      99926    2    1    2    0    0  0.00000000000E+00  0.14210854715E-13  0.25528900651E+03  0.51038980377E+03  0.44195619121E+03 0.  0.
      99925    2    3    3    0    0 -0.32076204507E+02 -0.87336915497E+02  0.20663662969E+03  0.34707666415E+03  0.26288190193E+03 0.  0.
         25    1    4    4    0    0 -0.40146523443E+02 -0.78431736580E+02  0.11980275963E+03  0.19432830458E+03  0.12509000000E+03 0.  0.
         25    1    3    3    0    0  0.32076204507E+02  0.87336915497E+02  0.48652376826E+02  0.16331313963E+03  0.12509000000E+03 0.  0.
         25    1    4    4    0    0  0.80703189360E+01 -0.89051789166E+01  0.86833870058E+02  0.15274835956E+03  0.12509000000E+03 0.  0.
<mgrwt>
<rscale>  2 0.44195619E+03</rscale>
<asrwt>0</asrwt>
<pdfrwt beam="1">  1       21 0.56299912E-01 0.44195619E+03</pdfrwt>
<pdfrwt beam="2">  1       21 0.18757412E-01 0.44195619E+03</pdfrwt>
<totfact> 0.71683060E+04</totfact>
</mgrwt>
</event>
<event>
 7    0  0.4770865E-002  0.4518218E+03  0.7546771E-02  0.1027180E+00
         21   -1    0    0  502  501  0.00000000000E+00  0.00000000000E+00  0.11991652341E+03  0.11991652341E+03  0.00000000000E+00 0.  1.
         21   -1    0    0  501  502 -0.00000000000E+00 -0.00000000000E+00 -0.42559389041E+03  0.42559389041E+03  0.00000000000E+00 0.  1.
      99926    2    1    2    0    0  0.00000000000E+00 -0.35527136788E-14 -0.30567736700E+03  0.54551041383E+03  0.45182182207E+03 0.  0.
      99925    2    3    3    0    0 -0.52358472135E+02 -0.18728664916E+02 -0.30765615915E+03  0.40860315977E+03  0.26308184548E+03 0.  0.
         25    1    4    4    0    0 -0.41460414567E+02 -0.46878680491E+02 -0.17051660557E+03  0.22054477445E+03  0.12509000000E+03 0.  0.
         25    1    3    3    0    0  0.52358472135E+02  0.18728664916E+02  0.19787921531E+01  0.13690725405E+03  0.12509000000E+03 0.  0.
         25    1    4    4    0    0 -0.10898057567E+02  0.28150015575E+02 -0.13713955358E+03  0.18805838533E+03  0.12509000000E+03 0.  0.
<mgrwt>
<rscale>  2 0.45182182E+03</rscale>
<asrwt>0</asrwt>
<pdfrwt beam="1">  1       21 0.17634783E-01 0.45182182E+03</pdfrwt>
<pdfrwt beam="2">  1       21 0.62587338E-01 0.45182182E+03</pdfrwt>
<totfact> 0.63752357E+04</totfact>
</mgrwt>
</event>
<event>
 7    0  0.4770865E-002  0.4572931E+03  0.7546771E-02  0.1025569E+00
         21   -1    0    0  502  501  0.00000000000E+00  0.00000000000E+00  0.44831561652E+03  0.44831561652E+03  0.00000000000E+00 0. -1.
         21   -1    0    0  501  502 -0.00000000000E+00 -0.00000000000E+00 -0.11661260740E+03  0.11661260740E+03  0.00000000000E+00 0. -1.
      99926    2    1    2    0    0  0.00000000000E+00  0.00000000000E+00  0.33170300912E+03  0.56492822392E+03  0.45729313566E+03 0.  0.
      99925    2    3    3    0    0  0.11631384188E+02  0.11361109895E+03  0.22767784260E+03  0.36615318959E+03  0.26303647529E+03 0.  0.
         25    1    4    4    0    0 -0.47776788296E+01  0.54139052036E+02  0.62674677505E+02  0.15009825605E+03  0.12509000000E+03 0.  0.
         25    1    4    4    0    0  0.16409063018E+02  0.59472046919E+02  0.16500316509E+03  0.21605493353E+03  0.12509000000E+03 0.  0.
         25    1    3    3    0    0 -0.11631384188E+02 -0.11361109895E+03  0.10402516653E+03  0.19877503434E+03  0.12509000000E+03 0.  0.
<mgrwt>
<rscale>  2 0.45729314E+03</rscale>
<asrwt>0</asrwt>
<pdfrwt beam="1">  1       21 0.65928767E-01 0.45729314E+03</pdfrwt>
<pdfrwt beam="2">  1       21 0.17148913E-01 0.45729314E+03</pdfrwt>
<totfact> 0.59798763E+04</totfact>
</mgrwt>
</event>
<event>
 7    0  0.4770865E-002  0.4519042E+03  0.7546771E-02  0.1027156E+00
         21   -1    0    0  502  501  0.00000000000E+00  0.00000000000E+00  0.46184482189E+02  0.46184482189E+02  0.00000000000E+00 0.  1.
         21   -1    0    0  501  502 -0.00000000000E+00 -0.00000000000E+00 -0.11054436361E+04  0.11054436361E+04  0.00000000000E+00 0.  1.
      99926    2    1    2    0    0  0.00000000000E+00 -0.17763568394E-14 -0.10592591540E+04  0.11516281183E+04  0.45190415765E+03 0.  0.
      99925    2    3    3    0    0  0.89942121421E+02  0.12860771043E+02 -0.82699725219E+03  0.87261542373E+03  0.26320759481E+03 0.  0.
         25    1    3    3    0    0 -0.89942121421E+02 -0.12860771043E+02 -0.23226190177E+03  0.27901269460E+03  0.12509000000E+03 0.  0.
         25    1    4    4    0    0  0.47334673958E+02 -0.12531120828E+02 -0.29987116709E+03  0.32858457861E+03  0.12509000000E+03 0.  0.
         25    1    4    4    0    0  0.42607447464E+02  0.25391891871E+02 -0.52712608511E+03  0.54403084513E+03  0.12509000000E+03 0.  0.
<mgrwt>
<rscale>  2 0.45190416E+03</rscale>
<asrwt>0</asrwt>
<pdfrwt beam="1">  1       21 0.67918366E-02 0.45190416E+03</pdfrwt>
<pdfrwt beam="2">  1       21 0.16256522E+00 0.45190416E+03</pdfrwt>
<totfact> 0.34554269E+04</totfact>
</mgrwt>
</event>
<event>
 7    0  0.4770865E-002  0.4571803E+03  0.7546771E-02  0.1025602E+00
         21   -1    0    0  502  501  0.00000000000E+00  0.00000000000E+00  0.28477939877E+03  0.28477939877E+03  0.00000000000E+00 0. -1.
         21   -1    0    0  501  502 -0.00000000000E+00 -0.00000000000E+00 -0.18348751641E+03  0.18348751641E+03  0.00000000000E+00 0. -1.
      99926    2    1    2    0    0  0.00000000000E+00  0.00000000000E+00  0.10129188236E+03  0.46826691518E+03  0.45718033468E+03 0.  0.
      99925    2    3    3    0    0  0.64704140866E+02 -0.92599982365E+02  0.87224960947E+02  0.29913155827E+03  0.26288802323E+03 0.  0.
         25    1    4    4    0    0  0.52854506409E+02 -0.71374818274E+02  0.18993262768E+02  0.15458400843E+03  0.12509000000E+03 0.  0.
         25    1    3    3    0    0 -0.64704140866E+02  0.92599982365E+02  0.14066921418E+02  0.16913535691E+03  0.12509000000E+03 0.  0.
         25    1    4    4    0    0  0.11849634456E+02 -0.21225164092E+02  0.68231698178E+02  0.14454754984E+03  0.12509000000E+03 0.  0.
<mgrwt>
<rscale>  2 0.45718033E+03</rscale>
<asrwt>0</asrwt>
<pdfrwt beam="1">  1       21 0.41879323E-01 0.45718033E+03</pdfrwt>
<pdfrwt beam="2">  1       21 0.26983458E-01 0.45718033E+03</pdfrwt>
<totfact> 0.66409235E+04</totfact>
</mgrwt>
</event>
<event>
 7    0  0.4770865E-002  0.4565481E+03  0.7546771E-02  0.1025787E+00
         21   -1    0    0  502  501  0.00000000000E+00  0.00000000000E+00  0.43571310743E+03  0.43571310743E+03  0.00000000000E+00 0.  1.
         21   -1    0    0  501  502 -0.00000000000E+00 -0.00000000000E+00 -0.11959483060E+03  0.11959483060E+03  0.00000000000E+00 0.  1.
      99926    2    1    2    0    0  0.00000000000E+00  0.00000000000E+00  0.31611827683E+03  0.55530793803E+03  0.45654807096E+03 0.  0.
      99925    2    3    3    0    0  0.46371014675E+02 -0.16637028142E+02  0.32417165688E+03  0.42062524895E+03  0.26346019666E+03 0.  0.
         25    1    4    4    0    0 -0.11425201773E+02 -0.17502089279E+01  0.18962295531E+03  0.22745982447E+03  0.12509000000E+03 0.  0.
         25    1    3    3    0    0 -0.46371014675E+02  0.16637028142E+02 -0.80533800533E+01  0.13468268908E+03  0.12509000000E+03 0.  0.
         25    1    4    4    0    0  0.57796216448E+02 -0.14886819214E+02  0.13454870157E+03  0.19316542449E+03  0.12509000000E+03 0.  0.
<mgrwt>
<rscale>  2 0.45654807E+03</rscale>
<asrwt>0</asrwt>
<pdfrwt beam="1">  1       21 0.64075456E-01 0.45654807E+03</pdfrwt>
<pdfrwt beam="2">  1       21 0.17587475E-01 0.45654807E+03</pdfrwt>
<totfact> 0.60769472E+04</totfact>
</mgrwt>
</event>
<event>
 7    0  0.4770865E-002  0.4476536E+03  0.7546771E-02  0.1028424E+00
         21   -1    0    0  502  501  0.00000000000E+00  0.00000000000E+00  0.40508764714E+03  0.40508764714E+03  0.00000000000E+00 0. -1.
         21   -1    0    0  501  502 -0.00000000000E+00 -0.00000000000E+00 -0.12367310067E+03  0.12367310067E+03  0.00000000000E+00 0. -1.
      99926    2    1    2    0    0  0.14210854715E-13 -0.17763568394E-14  0.28141454647E+03  0.52876074781E+03  0.44765364006E+03 0.  0.
      99925    2    3    3    0    0  0.67835237096E+02 -0.11087591533E+02  0.27385959260E+03  0.38583020696E+03  0.26294736749E+03 0.  0.
         25    1    4    4    0    0  0.10962537952E+02 -0.12396441194E+02  0.84491127780E+02  0.15185554901E+03  0.12509000000E+03 0.  0.
         25    1    4    4    0    0  0.56872699144E+02  0.13088496611E+01  0.18936846482E+03  0.23397465795E+03  0.12509000000E+03 0.  0.
         25    1    3    3    0    0 -0.67835237096E+02  0.11087591533E+02  0.75549538758E+01  0.14293054084E+03  0.12509000000E+03 0.  0.
<mgrwt>
<rscale>  2 0.44765364E+03</rscale>
<asrwt>0</asrwt>
<pdfrwt beam="1">  1       21 0.59571712E-01 0.44765364E+03</pdfrwt>
<pdfrwt beam="2">  1       21 0.18187221E-01 0.44765364E+03</pdfrwt>
<totfact> 0.67110673E+04</totfact>
</mgrwt>
</event>
<event>
 7    0  0.4770865E-002  0.4482466E+03  0.7546771E-02  0.1028246E+00
         21   -1    0    0  502  501  0.00000000000E+00  0.00000000000E+00  0.20677488983E+02  0.20677488983E+02  0.00000000000E+00 0. -1.
         21   -1    0    0  501  502 -0.00000000000E+00 -0.00000000000E+00 -0.24292725056E+04  0.24292725056E+04  0.00000000000E+00 0. -1.
      99926    2    1    2    0    0  0.00000000000E+00 -0.35527136788E-14 -0.24085950166E+04  0.24499499946E+04  0.44824660834E+03 0.  0.
      99925    2    3    3    0    0 -0.46949382560E+02  0.15397930045E+02 -0.20421638807E+04  0.20596160014E+04  0.26295135821E+03 0.  0.
         25    1    4    4    0    0 -0.95838286589E+01  0.37809499378E+02 -0.83694463368E+03  0.84713944304E+03  0.12509000000E+03 0.  0.
         25    1    3    3    0    0  0.46949382560E+02 -0.15397930045E+02 -0.36643113595E+03  0.39033399322E+03  0.12509000000E+03 0.  0.
         25    1    4    4    0    0 -0.37365553901E+02 -0.22411569333E+02 -0.12052192470E+04  0.12124765583E+04  0.12509000000E+03 0.  0.
<mgrwt>
<rscale>  2 0.44824661E+03</rscale>
<asrwt>0</asrwt>
<pdfrwt beam="1">  1       21 0.30408077E-02 0.44824661E+03</pdfrwt>
<pdfrwt beam="2">  1       21 0.35724590E+00 0.44824661E+03</pdfrwt>
<totfact> 0.80732049E+03</totfact>
</mgrwt>
</event>
<event>
 7    0  0.4770865E-002  0.4576410E+03  0.7546771E-02  0.1025468E+00
         21   -1    0    0  502  501  0.00000000000E+00  0.00000000000E+00  0.21762838356E+04  0.21762838356E+04  0.00000000000E+00 0.  1.
         21   -1    0    0  501  502 -0.00000000000E+00 -0.00000000000E+00 -0.24058817919E+02  0.24058817919E+02  0.00000000000E+00 0.  1.
      99926    2    1    2    0    0  0.00000000000E+00 -0.71054273576E-14  0.21522250177E+04  0.22003426535E+04  0.45764097956E+03 0.  0.
      99925    2    3    3    0    0  0.66157170754E+02  0.58188800037E+02  0.17113412996E+04  0.17336643182E+04  0.26294527337E+03 0.  0.
         25    1    4    4    0    0  0.54434984421E+02  0.47860091615E+02  0.72273157732E+03  0.73704965698E+03  0.12509000000E+03 0.  0.
         25    1    4    4    0    0  0.11722186333E+02  0.10328708422E+02  0.98860972225E+03  0.99661466119E+03  0.12509000000E+03 0.  0.
         25    1    3    3    0    0 -0.66157170754E+02 -0.58188800037E+02  0.44088371814E+03  0.46667833538E+03  0.12509000000E+03 0.  0.
<mgrwt>
<rscale>  2 0.45764098E+03</rscale>
<asrwt>0</asrwt>
<pdfrwt beam="1">  1       21 0.32004160E+00 0.45764098E+03</pdfrwt>
<pdfrwt beam="2">  1       21 0.35380630E-02 0.45764098E+03</pdfrwt>
<totfact> 0.10489415E+04</totfact>
</mgrwt>
</event>
<event>
 7    0  0.4770865E-002  0.4809680E+03  0.7546771E-02  0.1018869E+00
         21   -1    0    0  502  501  0.00000000000E+00  0.00000000000E+00  0.23715021789E+03  0.23715021789E+03  0.00000000000E+00 0. -1.
         21   -1    0    0  501  502 -0.00000000000E+00 -0.00000000000E+00 -0.24386463007E+03  0.24386463007E+03  0.00000000000E+00 0. -1.
      99926    2    1    2    0    0  0.00000000000E+00 -0.35527136788E-14 -0.67144121730E+01  0.48101484796E+03  0.48096798296E+03 0.  0.
      99925    2    3    3    0    0 -0.35858271626E+02  0.16206674929E+02 -0.13445537860E+03  0.29794727967E+03  0.26295600521E+03 0.  0.
         25    1    3    3    0    0  0.35858271626E+02 -0.16206674929E+02  0.12774096643E+03  0.18306756829E+03  0.12509000000E+03 0.  0.
         25    1    4    4    0    0 -0.16345193966E+02  0.38268279304E+02 -0.37790079471E+02  0.13713943551E+03  0.12509000000E+03 0.  0.
         25    1    4    4    0    0 -0.19513077660E+02 -0.22061604375E+02 -0.96665299128E+02  0.16080784416E+03  0.12509000000E+03 0.  0.
<mgrwt>
<rscale>  2 0.48096798E+03</rscale>
<asrwt>0</asrwt>
<pdfrwt beam="1">  1       21 0.34875032E-01 0.48096798E+03</pdfrwt>
<pdfrwt beam="2">  1       21 0.35862446E-01 0.48096798E+03</pdfrwt>
<totfact> 0.54485486E+04</totfact>
</mgrwt>
</event>
<event>
 7    0  0.4770865E-002  0.4509649E+03  0.7546771E-02  0.1027435E+00
         21   -1    0    0  502  501  0.00000000000E+00  0.00000000000E+00  0.11050365495E+03  0.11050365495E+03  0.00000000000E+00 0.  1.
         21   -1    0    0  501  502 -0.00000000000E+00 -0.00000000000E+00 -0.46009636547E+03  0.46009636547E+03  0.00000000000E+00 0.  1.
      99926    2    1    2    0    0 -0.14210854715E-13  0.00000000000E+00 -0.34959271052E+03  0.57060002042E+03  0.45096487674E+03 0.  0.
      99925    2    3    3    0    0 -0.85064788227E+02 -0.67456213755E+02 -0.23733263697E+03  0.37050956291E+03  0.26299086803E+03 0.  0.
         25    1    4    4    0    0 -0.84983973170E+02 -0.40489849190E+02 -0.13084254354E+03  0.20403181831E+03  0.12509000000E+03 0.  0.
         25    1    3    3    0    0  0.85064788227E+02  0.67456213755E+02 -0.11226007355E+03  0.20009045751E+03  0.12509000000E+03 0.  0.
         25    1    4    4    0    0 -0.80815056512E-01 -0.26966364565E+02 -0.10649009343E+03  0.16647774460E+03  0.12509000000E+03 0.  0.
<mgrwt>
<rscale>  2 0.45096488E+03</rscale>
<asrwt>0</asrwt>
<pdfrwt beam="1">  1       21 0.16250538E-01 0.45096488E+03</pdfrwt>
<pdfrwt beam="2">  1       21 0.67661228E-01 0.45096488E+03</pdfrwt>
<totfact> 0.62495804E+04</totfact>
</mgrwt>
</event>
<event>
 7    0  0.4770865E-002  0.4536559E+03  0.7546771E-02  0.1026637E+00
         21   -1    0    0  502  501  0.00000000000E+00  0.00000000000E+00  0.81207631517E+02  0.81207631517E+02  0.00000000000E+00 0.  1.
         21   -1    0    0  501  502 -0.00000000000E+00 -0.00000000000E+00 -0.63357244263E+03  0.63357244263E+03  0.00000000000E+00 0.  1.
      99926    2    1    2    0    0  0.00000000000E+00  0.00000000000E+00 -0.55236481111E+03  0.71478007414E+03  0.45365589365E+03 0.  0.
      99925    2    3    3    0    0  0.12367161606E+02  0.10756173632E+03 -0.39151625601E+03  0.48403727451E+03  0.26321973822E+03 0.  0.
         25    1    3    3    0    0 -0.12367161606E+02 -0.10756173632E+03 -0.16084855510E+03  0.23074279964E+03  0.12509000000E+03 0.  0.
         25    1    4    4    0    0  0.13768044266E+02  0.71505030455E+02 -0.14290761225E+03  0.20340261100E+03  0.12509000000E+03 0.  0.
         25    1    4    4    0    0 -0.14008826603E+01  0.36056705862E+02 -0.24860864376E+03  0.28063466351E+03  0.12509000000E+03 0.  0.
<mgrwt>
<rscale>  2 0.45365589E+03</rscale>
<asrwt>0</asrwt>
<pdfrwt beam="1">  1       21 0.11942299E-01 0.45365589E+03</pdfrwt>
<pdfrwt beam="2">  1       21 0.93172414E-01 0.45365589E+03</pdfrwt>
<totfact> 0.52662486E+04</totfact>
</mgrwt>
</event>
<event>
 7    0  0.4770865E-002  0.4573129E+03  0.7546771E-02  0.1025563E+00
         21   -1    0    0  502  501  0.00000000000E+00  0.00000000000E+00  0.78449078206E+02  0.78449078206E+02  0.00000000000E+00 0.  1.
         21   -1    0    0  501  502 -0.00000000000E+00 -0.00000000000E+00 -0.66646768192E+03  0.66646768192E+03  0.00000000000E+00 0.  1.
      99926    2    1    2    0    0  0.71054273576E-14  0.00000000000E+00 -0.58801860371E+03  0.74491676013E+03  0.45731291388E+03 0.  0.
      99925    2    3    3    0    0 -0.60601328343E+02 -0.47264826578E+02 -0.50931117945E+03  0.57833689471E+03  0.26300038296E+03 0.  0.
         25    1    4    4    0    0 -0.71343801687E+02 -0.29725982855E+02 -0.26277980170E+03  0.30112174345E+03  0.12509000000E+03 0.  0.
         25    1    4    4    0    0  0.10742473345E+02 -0.17538843723E+02 -0.24653137775E+03  0.27721515126E+03  0.12509000000E+03 0.  0.
         25    1    3    3    0    0  0.60601328343E+02  0.47264826578E+02 -0.78707424264E+02  0.16657986542E+03  0.12509000000E+03 0.  0.
<mgrwt>
<rscale>  2 0.45731291E+03</rscale>
<asrwt>0</asrwt>
<pdfrwt beam="1">  1       21 0.11536629E-01 0.45731291E+03</pdfrwt>
<pdfrwt beam="2">  1       21 0.98009956E-01 0.45731291E+03</pdfrwt>
<totfact> 0.49622827E+04</totfact>
</mgrwt>
</event>
<event>
 7    0  0.4770865E-002  0.4717117E+03  0.7546771E-02  0.1021438E+00
         21   -1    0    0  502  501  0.00000000000E+00  0.00000000000E+00  0.14261179678E+04  0.14261179678E+04  0.00000000000E+00 0. -1.
         21   -1    0    0  501  502 -0.00000000000E+00 -0.00000000000E+00 -0.39006580621E+02  0.39006580621E+02  0.00000000000E+00 0. -1.
      99926    2    1    2    0    0  0.00000000000E+00 -0.14210854715E-13  0.13871113872E+04  0.14651245485E+04  0.47171171487E+03 0.  0.
      99925    2    3    3    0    0  0.58415468393E+02  0.11286337632E+03  0.91443736560E+03  0.95993275570E+03  0.26291574923E+03 0.  0.
         25    1    4    4    0    0  0.23669221711E+02  0.44812959491E+02  0.56697300649E+03  0.58281586421E+03  0.12509000000E+03 0.  0.
         25    1    4    4    0    0  0.34746246683E+02  0.68050416825E+02  0.34746435911E+03  0.37711689148E+03  0.12509000000E+03 0.  0.
         25    1    3    3    0    0 -0.58415468393E+02 -0.11286337632E+03  0.47267402161E+03  0.50519179276E+03  0.12509000000E+03 0.  0.
<mgrwt>
<rscale>  2 0.47171171E+03</rscale>
<asrwt>0</asrwt>
<pdfrwt beam="1">  1       21 0.20972320E+00 0.47171171E+03</pdfrwt>
<pdfrwt beam="2">  1       21 0.57362628E-02 0.47171171E+03</pdfrwt>
<totfact> 0.21690999E+04</totfact>
</mgrwt>
</event>
<event>
 6    0  0.4770865E-002  0.4536766E+03  0.7546771E-02  0.1026631E+00
         21   -1    0    0  502  501  0.00000000000E+00  0.00000000000E+00  0.16971652144E+04  0.16971652144E+04  0.00000000000E+00 0. -1.
         21   -1    0    0  501  502 -0.00000000000E+00 -0.00000000000E+00 -0.30318560203E+02  0.30318560203E+02  0.00000000000E+00 0. -1.
      99926    2    1    2    0    0 -0.71054273576E-14  0.00000000000E+00  0.16668466542E+04  0.17274837746E+04  0.45367656199E+03 0.  0.
         25    1    3    3    0    0  0.33561903839E+02 -0.43858893434E+02  0.24246044442E+03  0.27836052006E+03  0.12509000000E+03 0.  0.
         25    1    3    3    0    0 -0.41643069687E+02  0.44191750880E+02  0.65545447494E+03  0.67004114271E+03  0.12509000000E+03 0.  0.
         25    1    3    3    0    0  0.80811658473E+01 -0.33285744587E+00  0.76893173480E+03  0.77908211179E+03  0.12509000000E+03 0.  0.
<mgrwt>
<rscale>  2 0.45367656E+03</rscale>
<asrwt>0</asrwt>
<pdfrwt beam="1">  1       21 0.24958306E+00 0.45367656E+03</pdfrwt>
<pdfrwt beam="2">  1       21 0.44586129E-02 0.45367656E+03</pdfrwt>
<totfact> 0.18888709E+04</totfact>
</mgrwt>
</event>
<event>
 7    0  0.4770865E-002  0.4325564E+03  0.7546771E-02  0.1033055E+00
         21   -1    0    0  502  501  0.00000000000E+00  0.00000000000E+00  0.17632680876E+03  0.17632680876E+03  0.00000000000E+00 0. -1.
         21   -1    0    0  501  502 -0.00000000000E+00 -0.00000000000E+00 -0.26528158559E+03  0.26528158559E+03  0.00000000000E+00 0. -1.
      99926    2    1    2    0    0  0.00000000000E+00  0.35527136788E-14 -0.88954776832E+02  0.44160839435E+03  0.43255637972E+03 0.  0.
      99925    2    3    3    0    0 -0.69640942886E+02 -0.23067410776E+02 -0.31572073140E+01  0.27311300153E+03  0.26305660471E+03 0.  0.
         25    1    4    4    0    0 -0.10133673524E+02  0.21798477766E+02  0.23635976836E+01  0.12740078362E+03  0.12509000000E+03 0.  0.
         25    1    3    3    0    0  0.69640942886E+02  0.23067410776E+02 -0.85797569518E+02  0.16849539282E+03  0.12509000000E+03 0.  0.
         25    1    4    4    0    0 -0.59507269362E+02 -0.44865888542E+02 -0.55208049975E+01  0.14571221791E+03  0.12509000000E+03 0.  0.
<mgrwt>
<rscale>  2 0.43255638E+03</rscale>
<asrwt>0</asrwt>
<pdfrwt beam="1">  1       21 0.25930413E-01 0.43255638E+03</pdfrwt>
<pdfrwt beam="2">  1       21 0.39011998E-01 0.43255638E+03</pdfrwt>
<totfact> 0.83510049E+04</totfact>
</mgrwt>
</event>
<event>
 7    0  0.4770865E-002  0.4534123E+03  0.7546771E-02  0.1026709E+00
         21   -1    0    0  502  501  0.00000000000E+00  0.00000000000E+00  0.34075390249E+03  0.34075390249E+03  0.00000000000E+00 0.  1.
         21   -1    0    0  501  502 -0.00000000000E+00 -0.00000000000E+00 -0.15082931652E+03  0.15082931652E+03  0.00000000000E+00 0.  1.
      99926    2    1    2    0    0  0.71054273576E-14  0.00000000000E+00  0.18992458597E+03  0.49158321900E+03  0.45341229896E+03 0.  0.
      99925    2    3    3    0    0 -0.56585807716E+02  0.22309468417E+02  0.22185302476E+03  0.34887162410E+03  0.26228415792E+03 0.  0.
         25    1    3    3    0    0  0.56585807716E+02 -0.22309468417E+02 -0.31928438785E+02  0.14271159490E+03  0.12509000000E+03 0.  0.
         25    1    4    4    0    0 -0.20325865308E+01  0.40414339122E+02  0.10342826920E+03  0.16727930292E+03  0.12509000000E+03 0.  0.
         25    1    4    4    0    0 -0.54553221185E+02 -0.18104870705E+02  0.11842475556E+03  0.18159232119E+03  0.12509000000E+03 0.  0.
<mgrwt>
<rscale>  2 0.45341230E+03</rscale>
<asrwt>0</asrwt>
<pdfrwt beam="1">  1       21 0.50110868E-01 0.45341230E+03</pdfrwt>
<pdfrwt beam="2">  1       21 0.22180782E-01 0.45341230E+03</pdfrwt>
<totfact> 0.66702881E+04</totfact>
</mgrwt>
</event>
<event>
 7    0  0.4770865E-002  0.4545413E+03  0.7546771E-02  0.1026376E+00
         21   -1    0    0  502  501  0.00000000000E+00  0.00000000000E+00  0.35698284537E+03  0.35698284537E+03  0.00000000000E+00 0. -1.
         21   -1    0    0  501  502 -0.00000000000E+00 -0.00000000000E+00 -0.14469025546E+03  0.14469025546E+03  0.00000000000E+00 0. -1.
      99926    2    1    2    0    0  0.00000000000E+00  0.00000000000E+00  0.21229258991E+03  0.50167310084E+03  0.45454125926E+03 0.  0.
      99925    2    3    3    0    0 -0.62953471193E+02  0.30951408568E+02  0.23109325168E+03  0.35702835600E+03  0.26295251812E+03 0.  0.
         25    1    3    3    0    0  0.62953471193E+02 -0.30951408568E+02 -0.18800661763E+02  0.14464474484E+03  0.12509000000E+03 0.  0.
         25    1    4    4    0    0 -0.57090959150E+02  0.65366034226E+01  0.15964839921E+03  0.21080138584E+03  0.12509000000E+03 0.  0.
         25    1    4    4    0    0 -0.58625120429E+01  0.24414805145E+02  0.71444852467E+02  0.14622697016E+03  0.12509000000E+03 0.  0.
<mgrwt>
<rscale>  2 0.45454126E+03</rscale>
<asrwt>0</asrwt>
<pdfrwt beam="1">  1       21 0.52497477E-01 0.45454126E+03</pdfrwt>
<pdfrwt beam="2">  1       21 0.21277979E-01 0.45454126E+03</pdfrwt>
<totfact> 0.65391071E+04</totfact>
</mgrwt>
</event>
<event>
 7    0  0.4770865E-002  0.4536655E+03  0.7546771E-02  0.1026635E+00
         21   -1    0    0  502  501  0.00000000000E+00  0.00000000000E+00  0.16329277822E+03  0.16329277822E+03  0.00000000000E+00 0.  1.
         21   -1    0    0  501  502 -0.00000000000E+00 -0.00000000000E+00 -0.31509718286E+03  0.31509718286E+03  0.00000000000E+00 0.  1.
      99926    2    1    2    0    0  0.00000000000E+00  0.00000000000E+00 -0.15180440464E+03  0.47838996108E+03  0.45366549085E+03 0.  0.
      99925    2    3    3    0    0  0.17855625318E+02 -0.10991119215E+03 -0.92567348828E+02  0.30075035289E+03  0.26359584060E+03 0.  0.
         25    1    4    4    0    0 -0.27542138738E+02 -0.57969160491E+02 -0.25291509341E+02  0.14285013657E+03  0.12509000000E+03 0.  0.
         25    1    4    4    0    0  0.45397764056E+02 -0.51942031657E+02 -0.67275839487E+02  0.15790021632E+03  0.12509000000E+03 0.  0.
         25    1    3    3    0    0 -0.17855625318E+02  0.10991119215E+03 -0.59237055815E+02  0.17763960819E+03  0.12509000000E+03 0.  0.
<mgrwt>
<rscale>  2 0.45366549E+03</rscale>
<asrwt>0</asrwt>
<pdfrwt beam="1">  1       21 0.24013644E-01 0.45366549E+03</pdfrwt>
<pdfrwt beam="2">  1       21 0.46337820E-01 0.45366549E+03</pdfrwt>
<totfact> 0.67529950E+04</totfact>
</mgrwt>
</event>
<event>
 7    0  0.4770865E-002  0.4494147E+03  0.7546771E-02  0.1027897E+00
         21   -1    0    0  502  501  0.00000000000E+00  0.00000000000E+00  0.65800642775E+03  0.65800642775E+03  0.00000000000E+00 0. -1.
         21   -1    0    0  501  502 -0.00000000000E+00 -0.00000000000E+00 -0.76736922245E+02  0.76736922245E+02  0.00000000000E+00 0. -1.
      99926    2    1    2    0    0  0.00000000000E+00  0.14210854715E-13  0.58126950551E+03  0.73474335000E+03  0.44941467748E+03 0.  0.
      99925    2    3    3    0    0  0.60115395738E+02  0.86573163804E+02  0.40458035025E+03  0.49396266310E+03  0.26306858276E+03 0.  0.
         25    1    3    3    0    0 -0.60115395738E+02 -0.86573163804E+02  0.17668915526E+03  0.24078068690E+03  0.12509000000E+03 0.  0.
         25    1    4    4    0    0  0.33068199445E+02  0.85848158082E+02  0.21411142608E+03  0.26448936262E+03  0.12509000000E+03 0.  0.
         25    1    4    4    0    0  0.27047196293E+02  0.72500572106E+00  0.19046892416E+03  0.22947330048E+03  0.12509000000E+03 0.  0.
<mgrwt>
<rscale>  2 0.44941468E+03</rscale>
<asrwt>0</asrwt>
<pdfrwt beam="1">  1       21 0.96765648E-01 0.44941468E+03</pdfrwt>
<pdfrwt beam="2">  1       21 0.11284842E-01 0.44941468E+03</pdfrwt>
<totfact> 0.53361943E+04</totfact>
</mgrwt>
</event>
<event>
 7    0  0.4770865E-002  0.4616447E+03  0.7546771E-02  0.1024305E+00
         21   -1    0    0  502  501  0.00000000000E+00  0.00000000000E+00  0.53927298428E+03  0.53927298428E+03  0.00000000000E+00 0.  1.
         21   -1    0    0  501  502 -0.00000000000E+00 -0.00000000000E+00 -0.98797770362E+02  0.98797770362E+02  0.00000000000E+00 0.  1.
      99926    2    1    2    0    0 -0.14210854715E-13  0.14210854715E-13  0.44047521392E+03  0.63807075464E+03  0.46164474854E+03 0.  0.
      99925    2    3    3    0    0  0.83486929970E+02  0.84907920866E+02  0.27825448063E+03  0.40112667493E+03  0.26324443175E+03 0.  0.
         25    1    4    4    0    0  0.51886290621E+02  0.77526376773E+02  0.18351064268E+03  0.24088626015E+03  0.12509000000E+03 0.  0.
         25    1    3    3    0    0 -0.83486929970E+02 -0.84907920866E+02  0.16222073329E+03  0.23694407971E+03  0.12509000000E+03 0.  0.
         25    1    4    4    0    0  0.31600639349E+02  0.73815440934E+01  0.94743837940E+02  0.16024041478E+03  0.12509000000E+03 0.  0.
<mgrwt>
<rscale>  2 0.46164475E+03</rscale>
<asrwt>0</asrwt>
<pdfrwt beam="1">  1       21 0.79304849E-01 0.46164475E+03</pdfrwt>
<pdfrwt beam="2">  1       21 0.14529084E-01 0.46164475E+03</pdfrwt>
<totfact> 0.53530957E+04</totfact>
</mgrwt>
</event>
<event>
 7    0  0.4770865E-002  0.4525844E+03  0.7546771E-02  0.1026954E+00
         21   -1    0    0  502  501  0.00000000000E+00  0.00000000000E+00  0.84078647535E+02  0.84078647535E+02  0.00000000000E+00 0.  1.
         21   -1    0    0  501  502 -0.00000000000E+00 -0.00000000000E+00 -0.60905062236E+03  0.60905062236E+03  0.00000000000E+00 0.  1.
      99926    2    1    2    0    0  0.00000000000E+00  0.00000000000E+00 -0.52497197482E+03  0.69312926989E+03  0.45258436830E+03 0.  0.
      99925    2    3    3    0    0  0.37201856557E+02  0.28949882474E+02 -0.48457896975E+03  0.55348265595E+03  0.26325690625E+03 0.  0.
         25    1    3    3    0    0 -0.37201856557E+02 -0.28949882474E+02 -0.40393005071E+02  0.13964661394E+03  0.12509000000E+03 0.  0.
         25    1    4    4    0    0 -0.11563270424E+02  0.35701353809E+02 -0.27596950104E+03  0.30531126656E+03  0.12509000000E+03 0.  0.
         25    1    4    4    0    0  0.48765126981E+02 -0.67514713353E+01 -0.20860946871E+03  0.24817138939E+03  0.12509000000E+03 0.  0.
<mgrwt>
<rscale>  2 0.45258437E+03</rscale>
<asrwt>0</asrwt>
<pdfrwt beam="1">  1       21 0.12364507E-01 0.45258437E+03</pdfrwt>
<pdfrwt beam="2">  1       21 0.89566270E-01 0.45258437E+03</pdfrwt>
<totfact> 0.54302805E+04</totfact>
</mgrwt>
</event>
<event>
 7    0  0.4770865E-002  0.4539998E+03  0.7546771E-02  0.1026536E+00
         21   -1    0    0  502  501  0.00000000000E+00  0.00000000000E+00  0.93582815035E+03  0.93582815035E+03  0.00000000000E+00 0. -1.
         21   -1    0    0  501  502 -0.00000000000E+00 -0.00000000000E+00 -0.55062422752E+02  0.55062422752E+02  0.00000000000E+00 0. -1.
      99926    2    1    2    0    0  0.00000000000E+00  0.35527136788E-14  0.88076572760E+03  0.99089057310E+03  0.45399984686E+03 0.  0.
      99925    2    3    3    0    0  0.27705991810E+02  0.14286509589E+02  0.31925389536E+03  0.41477012373E+03  0.26294387139E+03 0.  0.
         25    1    4    4    0    0  0.47044183835E+01  0.36114283144E+02  0.11848009032E+03  0.17610057610E+03  0.12509000000E+03 0.  0.
         25    1    3    3    0    0 -0.27705991810E+02 -0.14286509589E+02  0.56151183224E+03  0.57612044937E+03  0.12509000000E+03 0.  0.
         25    1    4    4    0    0  0.23001573427E+02 -0.21827773555E+02  0.20077380504E+03  0.23866954763E+03  0.12509000000E+03 0.  0.
<mgrwt>
<rscale>  2 0.45399985E+03</rscale>
<asrwt>0</asrwt>
<pdfrwt beam="1">  1       21 0.13762178E+00 0.45399985E+03</pdfrwt>
<pdfrwt beam="2">  1       21 0.80974157E-02 0.45399985E+03</pdfrwt>
<totfact> 0.39833211E+04</totfact>
</mgrwt>
</event>
<event>
 7    0  0.4770865E-002  0.4595738E+03  0.7546771E-02  0.1024905E+00
         21   -1    0    0  502  501  0.00000000000E+00  0.00000000000E+00  0.15747821624E+03  0.15747821624E+03  0.00000000000E+00 0. -1.
         21   -1    0    0  501  502 -0.00000000000E+00 -0.00000000000E+00 -0.33529725040E+03  0.33529725040E+03  0.00000000000E+00 0. -1.
      99926    2    1    2    0    0  0.00000000000E+00  0.00000000000E+00 -0.17781903416E+03  0.49277546663E+03  0.45957377167E+03 0.  0.
      99925    2    3    3    0    0  0.60704217095E+02 -0.26011220030E+02 -0.82016772022E+01  0.27191546251E+03  0.26364590970E+03 0.  0.
         25    1    3    3    0    0 -0.60704217095E+02  0.26011220030E+02 -0.16961735696E+03  0.22086000412E+03  0.12509000000E+03 0.  0.
         25    1    4    4    0    0  0.36643692692E+02 -0.40822643609E+02 -0.34781801783E+02  0.14094867960E+03  0.12509000000E+03 0.  0.
         25    1    4    4    0    0  0.24060524403E+02  0.14811423579E+02  0.26580124581E+02  0.13096678291E+03  0.12509000000E+03 0.  0.
<mgrwt>
<rscale>  2 0.45957377E+03</rscale>
<asrwt>0</asrwt>
<pdfrwt beam="1">  1       21 0.23158561E-01 0.45957377E+03</pdfrwt>
<pdfrwt beam="2">  1       21 0.49308419E-01 0.45957377E+03</pdfrwt>
<totfact> 0.63446057E+04</totfact>
</mgrwt>
</event>
<event>
 7    0  0.4770865E-002  0.4095008E+03  0.7546771E-02  0.1040539E+00
         21   -1    0    0  502  501  0.00000000000E+00  0.00000000000E+00  0.25159318692E+03  0.25159318692E+03  0.00000000000E+00 0. -1.
         21   -1    0    0  501  502 -0.00000000000E+00 -0.00000000000E+00 -0.16662905645E+03  0.16662905645E+03  0.00000000000E+00 0. -1.
      99926    2    1    2    0    0  0.88817841970E-15  0.00000000000E+00  0.84964130466E+02  0.41822224336E+03  0.40950084417E+03 0.  0.
      99925    2    3    3    0    0 -0.74639542287E+01 -0.48999472317E+02  0.93118738557E+02  0.28342363568E+03  0.26306120750E+03 0.  0.
         25    1    4    4    0    0 -0.22292926765E+02  0.31954085922E+01  0.19876412333E+02  0.12864589028E+03  0.12509000000E+03 0.  0.
         25    1    3    3    0    0  0.74639542287E+01  0.48999472317E+02 -0.81546080907E+01  0.13479860768E+03  0.12509000000E+03 0.  0.
         25    1    4    4    0    0  0.14828972537E+02 -0.52194880909E+02  0.73242326224E+02  0.15477774540E+03  0.12509000000E+03 0.  0.
<mgrwt>
<rscale>  2 0.40950084E+03</rscale>
<asrwt>0</asrwt>
<pdfrwt beam="1">  1       21 0.36998998E-01 0.40950084E+03</pdfrwt>
<pdfrwt beam="2">  1       21 0.24504273E-01 0.40950084E+03</pdfrwt>
<totfact> 0.10435101E+05</totfact>
</mgrwt>
</event>
<event>
 7    0  0.4770865E-002  0.4559603E+03  0.7546771E-02  0.1025959E+00
         21   -1    0    0  502  501  0.00000000000E+00  0.00000000000E+00  0.67812392274E+02  0.67812392274E+02  0.00000000000E+00 0.  1.
         21   -1    0    0  501  502 -0.00000000000E+00 -0.00000000000E+00 -0.76645209044E+03  0.76645209044E+03  0.00000000000E+00 0.  1.
      99926    2    1    2    0    0  0.14210854715E-13  0.71054273576E-14 -0.69863969816E+03  0.83426448271E+03  0.45596030448E+03 0.  0.
      99925    2    3    3    0    0  0.84283066977E+02  0.25133126264E+02 -0.57218827269E+03  0.63583872703E+03  0.26297558436E+03 0.  0.
         25    1    4    4    0    0  0.51878427934E+02  0.50555372625E+02 -0.32687663905E+03  0.35741161459E+03  0.12509000000E+03 0.  0.
         25    1    4    4    0    0  0.32404639043E+02 -0.25422246361E+02 -0.24531163364E+03  0.27842711244E+03  0.12509000000E+03 0.  0.
         25    1    3    3    0    0 -0.84283066977E+02 -0.25133126264E+02 -0.12645142547E+03  0.19842575569E+03  0.12509000000E+03 0.  0.
<mgrwt>
<rscale>  2 0.45596030E+03</rscale>
<asrwt>0</asrwt>
<pdfrwt beam="1">  1       21 0.99724113E-02 0.45596030E+03</pdfrwt>
<pdfrwt beam="2">  1       21 0.11271353E+00 0.45596030E+03</pdfrwt>
<totfact> 0.45805606E+04</totfact>
</mgrwt>
</event>
<event>
 7    0  0.4770865E-002  0.4555316E+03  0.7546771E-02  0.1026085E+00
         21   -1    0    0  502  501  0.00000000000E+00  0.00000000000E+00  0.46893414963E+02  0.46893414963E+02  0.00000000000E+00 0.  1.
         21   -1    0    0  501  502 -0.00000000000E+00 -0.00000000000E+00 -0.11062803730E+04  0.11062803730E+04  0.00000000000E+00 0.  1.
      99926    2    1    2    0    0 -0.14210854715E-13  0.00000000000E+00 -0.10593869581E+04  0.11531737880E+04  0.45553162173E+03 0.  0.
      99925    2    3    3    0    0 -0.11132705043E+03  0.15808865192E+02 -0.70836844281E+03  0.76393717804E+03  0.26300290653E+03 0.  0.
         25    1    4    4    0    0 -0.76036370347E+02 -0.13340350185E+02 -0.44759727215E+03  0.47111603740E+03  0.12509000000E+03 0.  0.
         25    1    3    3    0    0  0.11132705043E+03 -0.15808865192E+02 -0.35101851527E+03  0.38923660996E+03  0.12509000000E+03 0.  0.
         25    1    4    4    0    0 -0.35290680085E+02  0.29149215377E+02 -0.26077117066E+03  0.29282114064E+03  0.12509000000E+03 0.  0.
<mgrwt>
<rscale>  2 0.45553162E+03</rscale>
<asrwt>0</asrwt>
<pdfrwt beam="1">  1       21 0.68960913E-02 0.45553162E+03</pdfrwt>
<pdfrwt beam="2">  1       21 0.16268827E+00 0.45553162E+03</pdfrwt>
<totfact> 0.33537413E+04</totfact>
</mgrwt>
</event>
<event>
 7    0  0.4770865E-002  0.4144007E+03  0.7546771E-02  0.1038904E+00
         21   -1    0    0  502  501  0.00000000000E+00  0.00000000000E+00  0.40948855564E+03  0.40948855564E+03  0.00000000000E+00 0. -1.
         21   -1    0    0  501  502 -0.00000000000E+00 -0.00000000000E+00 -0.10484294161E+03  0.10484294161E+03  0.00000000000E+00 0. -1.
      99926    2    1    2    0    0 -0.71054273576E-14  0.00000000000E+00  0.30464561403E+03  0.51433149725E+03  0.41440069850E+03 0.  0.
      99925    2    3    3    0    0 -0.39864020996E+02 -0.11917278521E+02  0.26733974038E+03  0.37732639514E+03  0.26300857397E+03 0.  0.
         25    1    4    4    0    0 -0.90538242830E+01 -0.14228444994E+02  0.78248190712E+02  0.14850827529E+03  0.12509000000E+03 0.  0.
         25    1    3    3    0    0  0.39864020996E+02  0.11917278521E+02  0.37305873653E+02  0.13700510212E+03  0.12509000000E+03 0.  0.
         25    1    4    4    0    0 -0.30810196713E+02  0.23111664730E+01  0.18909154967E+03  0.22881811984E+03  0.12509000000E+03 0.  0.
<mgrwt>
<rscale>  2 0.41440070E+03</rscale>
<asrwt>0</asrwt>
<pdfrwt beam="1">  1       21 0.60218905E-01 0.41440070E+03</pdfrwt>
<pdfrwt beam="2">  1       21 0.15418080E-01 0.41440070E+03</pdfrwt>
<totfact> 0.89884275E+04</totfact>
</mgrwt>
</event>
<event>
 7    0  0.4770865E-002  0.4599696E+03  0.7546771E-02  0.1024790E+00
         21   -1    0    0  502  501  0.00000000000E+00  0.00000000000E+00  0.60600476513E+03  0.60600476513E+03  0.00000000000E+00 0. -1.
         21   -1    0    0  501  502 -0.00000000000E+00 -0.00000000000E+00 -0.87281514553E+02  0.87281514553E+02  0.00000000000E+00 0. -1.
      99926    2    1    2    0    0  0.00000000000E+00  0.00000000000E+00  0.51872325057E+03  0.69328627968E+03  0.45996962390E+03 0.  0.
      99925    2    3    3    0    0 -0.32625281238E+02  0.97568857963E+02  0.41139949638E+03  0.49899272000E+03  0.26298307544E+03 0.  0.
         25    1    4    4    0    0  0.89740045329E+01  0.68168387918E+02  0.16644131331E+03  0.21926623257E+03  0.12509000000E+03 0.  0.
         25    1    4    4    0    0 -0.41599285770E+02  0.29400470045E+02  0.24495818307E+03  0.27972648743E+03  0.12509000000E+03 0.  0.
         25    1    3    3    0    0  0.32625281238E+02 -0.97568857963E+02  0.10732375419E+03  0.19429355968E+03  0.12509000000E+03 0.  0.
<mgrwt>
<rscale>  2 0.45996962E+03</rscale>
<asrwt>0</asrwt>
<pdfrwt beam="1">  1       21 0.89118345E-01 0.45996962E+03</pdfrwt>
<pdfrwt beam="2">  1       21 0.12835517E-01 0.45996962E+03</pdfrwt>
<totfact> 0.51235216E+04</totfact>
</mgrwt>
</event>
<event>
 7    0  0.4770865E-002  0.4504060E+03  0.7546771E-02  0.1027601E+00
         21   -1    0    0  502  501  0.00000000000E+00  0.00000000000E+00  0.18872906659E+03  0.18872906659E+03  0.00000000000E+00 0.  1.
         21   -1    0    0  501  502 -0.00000000000E+00 -0.00000000000E+00 -0.26872590407E+03  0.26872590407E+03  0.00000000000E+00 0.  1.
      99926    2    1    2    0    0  0.35527136788E-14 -0.14210854715E-13 -0.79996837477E+02  0.45745497066E+03  0.45040599039E+03 0.  0.
      99925    2    3    3    0    0  0.28077229596E+02 -0.95007762166E+02 -0.41032690880E+01  0.28075707165E+03  0.26266497819E+03 0.  0.
         25    1    3    3    0    0 -0.28077229596E+02  0.95007762166E+02 -0.75893568389E+02  0.17669789902E+03  0.12509000000E+03 0.  0.
         25    1    4    4    0    0  0.51213797840E+01 -0.67420257931E+01 -0.10520010645E+02  0.12581678015E+03  0.12509000000E+03 0.  0.
         25    1    4    4    0    0  0.22955849812E+02 -0.88265736373E+02  0.64167415575E+01  0.15494029150E+03  0.12509000000E+03 0.  0.
<mgrwt>
<rscale>  2 0.45040599E+03</rscale>
<asrwt>0</asrwt>
<pdfrwt beam="1">  1       21 0.27754275E-01 0.45040599E+03</pdfrwt>
<pdfrwt beam="2">  1       21 0.39518515E-01 0.45040599E+03</pdfrwt>
<totfact> 0.70928997E+04</totfact>
</mgrwt>
</event>
<event>
 7    0  0.4770865E-002  0.4562690E+03  0.7546771E-02  0.1025869E+00
         21   -1    0    0  502  501  0.00000000000E+00  0.00000000000E+00  0.53239334516E+03  0.53239334516E+03  0.00000000000E+00 0. -1.
         21   -1    0    0  501  502 -0.00000000000E+00 -0.00000000000E+00 -0.97757333052E+02  0.97757333052E+02  0.00000000000E+00 0. -1.
      99926    2    1    2    0    0  0.00000000000E+00 -0.14210854715E-13  0.43463601211E+03  0.63015067822E+03  0.45626901520E+03 0.  0.
      99925    2    3    3    0    0 -0.81544081728E+02 -0.75666959962E+02  0.30987148672E+03  0.42137179760E+03  0.26298084994E+03 0.  0.
         25    1    3    3    0    0  0.81544081728E+02  0.75666959962E+02  0.12476452539E+03  0.20877888061E+03  0.12509000000E+03 0.  0.
         25    1    4    4    0    0 -0.15259923390E+01 -0.21272371978E+02  0.15044033109E+03  0.19681118815E+03  0.12509000000E+03 0.  0.
         25    1    4    4    0    0 -0.80018089389E+02 -0.54394587984E+02  0.15943115563E+03  0.22456060945E+03  0.12509000000E+03 0.  0.
<mgrwt>
<rscale>  2 0.45626902E+03</rscale>
<asrwt>0</asrwt>
<pdfrwt beam="1">  1       21 0.78293138E-01 0.45626902E+03</pdfrwt>
<pdfrwt beam="2">  1       21 0.14376079E-01 0.45626902E+03</pdfrwt>
<totfact> 0.56293697E+04</totfact>
</mgrwt>
</event>
<event>
 6    0  0.4770865E-002  0.4605945E+03  0.7546771E-02  0.1024609E+00
         21   -1    0    0  502  501  0.00000000000E+00  0.00000000000E+00  0.16161028053E+03  0.16161028053E+03  0.00000000000E+00 0.  1.
         21   -1    0    0  501  502 -0.00000000000E+00 -0.00000000000E+00 -0.32817724386E+03  0.32817724386E+03  0.00000000000E+00 0.  1.
      99926    2    1    2    0    0 -0.71054273576E-14  0.00000000000E+00 -0.16656696332E+03  0.48978752439E+03  0.46059446998E+03 0.  0.
         25    1    3    3    0    0  0.20399585809E+02  0.49489714020E+02 -0.48753004666E+02  0.14453282831E+03  0.12509000000E+03 0.  0.
         25    1    3    3    0    0  0.35138613091E+02 -0.10092070792E+03 -0.11181652637E+03  0.19892248512E+03  0.12509000000E+03 0.  0.
         25    1    3    3    0    0 -0.55538198900E+02  0.51430993901E+02 -0.59974322859E+01  0.14633221096E+03  0.12509000000E+03 0.  0.
<mgrwt>
<rscale>  2 0.46059447E+03</rscale>
<asrwt>0</asrwt>
<pdfrwt beam="1">  1       21 0.23766218E-01 0.46059447E+03</pdfrwt>
<pdfrwt beam="2">  1       21 0.48261359E-01 0.46059447E+03</pdfrwt>
<totfact> 0.63143022E+04</totfact>
</mgrwt>
</event>
<event>
 7    0  0.4770865E-002  0.4519645E+03  0.7546771E-02  0.1027138E+00
         21   -1    0    0  502  501  0.00000000000E+00  0.00000000000E+00  0.53294593131E+02  0.53294593131E+02  0.00000000000E+00 0. -1.
         21   -1    0    0  501  502 -0.00000000000E+00 -0.00000000000E+00 -0.95822073845E+03  0.95822073845E+03  0.00000000000E+00 0. -1.
      99926    2    1    2    0    0  0.00000000000E+00  0.00000000000E+00 -0.90492614532E+03  0.10115153316E+04  0.45196453129E+03 0.  0.
      99925    2    3    3    0    0 -0.85673467065E+02  0.46924223839E+02 -0.45655503454E+03  0.53588313458E+03  0.26303309416E+03 0.  0.
         25    1    4    4    0    0 -0.86513851745E+01  0.46354142773E+02 -0.21812373836E+03  0.25583007320E+03  0.12509000000E+03 0.  0.
         25    1    4    4    0    0 -0.77022081890E+02  0.57008106615E+00 -0.23843129618E+03  0.28005306138E+03  0.12509000000E+03 0.  0.
         25    1    3    3    0    0  0.85673467065E+02 -0.46924223839E+02 -0.44837111078E+03  0.47563219700E+03  0.12509000000E+03 0.  0.
<mgrwt>
<rscale>  2 0.45196453E+03</rscale>
<asrwt>0</asrwt>
<pdfrwt beam="1">  1       21 0.78374407E-02 0.45196453E+03</pdfrwt>
<pdfrwt beam="2">  1       21 0.14091480E+00 0.45196453E+03</pdfrwt>
<totfact> 0.39653443E+04</totfact>
</mgrwt>
</event>
<event>
 7    0  0.4770865E-002  0.4557010E+03  0.7546771E-02  0.1026035E+00
         21   -1    0    0  502  501  0.00000000000E+00  0.00000000000E+00  0.25702771816E+03  0.25702771816E+03  0.00000000000E+00 0. -1.
         21   -1    0    0  501  502 -0.00000000000E+00 -0.00000000000E+00 -0.20198541312E+03  0.20198541312E+03  0.00000000000E+00 0. -1.
      99926    2    1    2    0    0  0.00000000000E+00  0.00000000000E+00  0.55042305037E+02  0.45901313129E+03  0.45570099775E+03 0.  0.
      99925    2    3    3    0    0 -0.75925170731E+02  0.73012989020E+02 -0.87450076484E+01  0.28348006467E+03  0.26303791322E+03 0.  0.
         25    1    4    4    0    0 -0.32003094137E+02  0.28133465617E+02  0.35236221617E+02  0.13676545374E+03  0.12509000000E+03 0.  0.
         25    1    4    4    0    0 -0.43922076594E+02  0.44879523403E+02 -0.43981229265E+02  0.14671461093E+03  0.12509000000E+03 0.  0.
         25    1    3    3    0    0  0.75925170731E+02 -0.73012989020E+02  0.63787312686E+02  0.17553306662E+03  0.12509000000E+03 0.  0.
<mgrwt>
<rscale>  2 0.45570100E+03</rscale>
<asrwt>0</asrwt>
<pdfrwt beam="1">  1       21 0.37798194E-01 0.45570100E+03</pdfrwt>
<pdfrwt beam="2">  1       21 0.29703737E-01 0.45570100E+03</pdfrwt>
<totfact> 0.67872270E+04</totfact>
</mgrwt>
</event>
<event>
 7    0  0.4770865E-002  0.4521521E+03  0.7546771E-02  0.1027082E+00
         21   -1    0    0  502  501  0.00000000000E+00  0.00000000000E+00  0.61036519931E+02  0.61036519931E+02  0.00000000000E+00 0. -1.
         21   -1    0    0  501  502 -0.00000000000E+00 -0.00000000000E+00 -0.83737394566E+03  0.83737394566E+03  0.00000000000E+00 0. -1.
      99926    2    1    2    0    0 -0.71054273576E-14  0.00000000000E+00 -0.77633742573E+03  0.89841046559E+03  0.45215214928E+03 0.  0.
      99925    2    3    3    0    0  0.59631113141E+02  0.49166848290E+02 -0.64685814569E+03  0.70248792813E+03  0.26285087007E+03 0.  0.
         25    1    4    4    0    0  0.39680751395E+02  0.36504257896E+02 -0.23747217930E+03  0.27376571538E+03  0.12509000000E+03 0.  0.
         25    1    3    3    0    0 -0.59631113141E+02 -0.49166848290E+02 -0.12947928003E+03  0.19592253746E+03  0.12509000000E+03 0.  0.
         25    1    4    4    0    0  0.19950361746E+02  0.12662590395E+02 -0.40938596639E+03  0.42872221275E+03  0.12509000000E+03 0.  0.
<mgrwt>
<rscale>  2 0.45215215E+03</rscale>
<asrwt>0</asrwt>
<pdfrwt beam="1">  1       21 0.89759598E-02 0.45215215E+03</pdfrwt>
<pdfrwt beam="2">  1       21 0.12314321E+00 0.45215215E+03</pdfrwt>
<totfact> 0.44281633E+04</totfact>
</mgrwt>
</event>
<event>
 7    0  0.4770865E-002  0.4595166E+03  0.7546771E-02  0.1024922E+00
         21   -1    0    0  502  501  0.00000000000E+00  0.00000000000E+00  0.55856431309E+02  0.55856431309E+02  0.00000000000E+00 0. -1.
         21   -1    0    0  501  502 -0.00000000000E+00 -0.00000000000E+00 -0.94508134933E+03  0.94508134933E+03  0.00000000000E+00 0. -1.
      99926    2    1    2    0    0  0.00000000000E+00 -0.35527136788E-14 -0.88922491802E+03  0.10009377806E+04  0.45951657846E+03 0.  0.
      99925    2    3    3    0    0  0.10939008377E+03 -0.16225702674E+02 -0.47121352837E+03  0.55081502645E+03  0.26291736382E+03 0.  0.
         25    1    4    4    0    0  0.77030711944E+02 -0.34251138707E+02 -0.20680863905E+03  0.25597693719E+03  0.12509000000E+03 0.  0.
         25    1    3    3    0    0 -0.10939008377E+03  0.16225702674E+02 -0.41801138965E+03  0.45012275418E+03  0.12509000000E+03 0.  0.
         25    1    4    4    0    0  0.32359371824E+02  0.18025436033E+02 -0.26440488931E+03  0.29483808927E+03  0.12509000000E+03 0.  0.
<mgrwt>
<rscale>  2 0.45951658E+03</rscale>
<asrwt>0</asrwt>
<pdfrwt beam="1">  1       21 0.82141807E-02 0.45951658E+03</pdfrwt>
<pdfrwt beam="2">  1       21 0.13898256E+00 0.45951658E+03</pdfrwt>
<totfact> 0.37780017E+04</totfact>
</mgrwt>
</event>
<event>
 7    0  0.4770865E-002  0.4248385E+03  0.7546771E-02  0.1035503E+00
         21   -1    0    0  502  501  0.00000000000E+00  0.00000000000E+00  0.23281038156E+02  0.23281038156E+02  0.00000000000E+00 0. -1.
         21   -1    0    0  501  502 -0.00000000000E+00 -0.00000000000E+00 -0.19381411237E+04  0.19381411237E+04  0.00000000000E+00 0. -1.
      99926    2    1    2    0    0  0.00000000000E+00  0.00000000000E+00 -0.19148600855E+04  0.19614221618E+04  0.42483849850E+03 0.  0.
      99925    2    3    3    0    0  0.69213742346E+02  0.32640260454E+02 -0.11068685923E+04  0.11402317515E+04  0.26289624926E+03 0.  0.
         25    1    3    3    0    0 -0.69213742346E+02 -0.32640260454E+02 -0.80799149325E+03  0.82119041032E+03  0.12509000000E+03 0.  0.
         25    1    4    4    0    0  0.34622839479E+02 -0.20568583617E+02 -0.46480304183E+03  0.48302296368E+03  0.12509000000E+03 0.  0.
         25    1    4    4    0    0  0.34590902867E+02  0.53208844072E+02 -0.64206555043E+03  0.65720878783E+03  0.12509000000E+03 0.  0.
<mgrwt>
<rscale>  2 0.42483850E+03</rscale>
<asrwt>0</asrwt>
<pdfrwt beam="1">  1       21 0.34236828E-02 0.42483850E+03</pdfrwt>
<pdfrwt beam="2">  1       21 0.28502069E+00 0.42483850E+03</pdfrwt>
<totfact> 0.18267128E+04</totfact>
</mgrwt>
</event>
<event>
 7    0  0.4770865E-002  0.4420567E+03  0.7546771E-02  0.1030118E+00
         21   -1    0    0  502  501  0.00000000000E+00  0.00000000000E+00  0.13922873501E+04  0.13922873501E+04  0.00000000000E+00 0.  1.
         21   -1    0    0  501  502 -0.00000000000E+00 -0.00000000000E+00 -0.35088684207E+02  0.35088684207E+02  0.00000000000E+00 0.  1.
      99926    2    1    2    0    0  0.00000000000E+00 -0.35527136788E-14  0.13571986659E+04  0.14273760343E+04  0.44205669841E+03 0.  0.
      99925    2    3    3    0    0 -0.78171631370E+02  0.13394078460E+02  0.66487672856E+03  0.71938777289E+03  0.26299714507E+03 0.  0.
         25    1    3    3    0    0  0.78171631370E+02 -0.13394078460E+02  0.69232193732E+03  0.70798826140E+03  0.12509000000E+03 0.  0.
         25    1    4    4    0    0 -0.61006226394E+02  0.34404771467E+02  0.40659142557E+03  0.43112590204E+03  0.12509000000E+03 0.  0.
         25    1    4    4    0    0 -0.17165404976E+02 -0.21010693007E+02  0.25828530299E+03  0.28826187085E+03  0.12509000000E+03 0.  0.
<mgrwt>
<rscale>  2 0.44205670E+03</rscale>
<asrwt>0</asrwt>
<pdfrwt beam="1">  1       21 0.20474810E+00 0.44205670E+03</pdfrwt>
<pdfrwt beam="2">  1       21 0.51601016E-02 0.44205670E+03</pdfrwt>
<totfact> 0.28358250E+04</totfact>
</mgrwt>
</event>
<event>
 7    0  0.4770865E-002  0.4574813E+03  0.7546771E-02  0.1025514E+00
         21   -1    0    0  502  501  0.00000000000E+00  0.00000000000E+00  0.31165953983E+02  0.31165953983E+02  0.00000000000E+00 0.  1.
         21   -1    0    0  501  502 -0.00000000000E+00 -0.00000000000E+00 -0.16788286249E+04  0.16788286249E+04  0.00000000000E+00 0.  1.
      99926    2    1    2    0    0 -0.71054273576E-14  0.00000000000E+00 -0.16476626709E+04  0.17099945789E+04  0.45748134681E+03 0.  0.
      99925    2    3    3    0    0  0.53572423366E+02 -0.82319010476E+02 -0.80837031108E+03  0.85576650781E+03  0.26311087401E+03 0.  0.
         25    1    3    3    0    0 -0.53572423366E+02  0.82319010476E+02 -0.83929235984E+03  0.85422807108E+03  0.12509000000E+03 0.  0.
         25    1    4    4    0    0  0.10362502455E+02 -0.72789201198E+02 -0.35890021565E+03  0.38712081081E+03  0.12509000000E+03 0.  0.
         25    1    4    4    0    0  0.43209920911E+02 -0.95298092789E+01 -0.44947009542E+03  0.46864569699E+03  0.12509000000E+03 0.  0.
<mgrwt>
<rscale>  2 0.45748135E+03</rscale>
<asrwt>0</asrwt>
<pdfrwt beam="1">  1       21 0.45832286E-02 0.45748135E+03</pdfrwt>
<pdfrwt beam="2">  1       21 0.24688656E+00 0.45748135E+03</pdfrwt>
<totfact> 0.18691964E+04</totfact>
</mgrwt>
</event>
<event>
 7    0  0.4770865E-002  0.4563601E+03  0.7546771E-02  0.1025842E+00
         21   -1    0    0  502  501  0.00000000000E+00  0.00000000000E+00  0.90011738834E+02  0.90011738834E+02  0.00000000000E+00 0. -1.
         21   -1    0    0  501  502 -0.00000000000E+00 -0.00000000000E+00 -0.57843728701E+03  0.57843728701E+03  0.00000000000E+00 0. -1.
      99926    2    1    2    0    0  0.00000000000E+00  0.00000000000E+00 -0.48842554817E+03  0.66844902584E+03  0.45636014730E+03 0.  0.
      99925    2    3    3    0    0  0.80618840906E+02 -0.71486213604E+02 -0.25062522615E+03  0.37895605961E+03  0.26303044479E+03 0.  0.
         25    1    3    3    0    0 -0.80618840906E+02  0.71486213604E+02 -0.23780032202E+03  0.28949296623E+03  0.12509000000E+03 0.  0.
         25    1    4    4    0    0  0.29759333022E+02 -0.70004742965E+02 -0.10376760200E+03  0.17944777865E+03  0.12509000000E+03 0.  0.
         25    1    4    4    0    0  0.50859507883E+02 -0.14814706388E+01 -0.14685762415E+03  0.19950828096E+03  0.12509000000E+03 0.  0.
<mgrwt>
<rscale>  2 0.45636015E+03</rscale>
<asrwt>0</asrwt>
<pdfrwt beam="1">  1       21 0.13237020E-01 0.45636015E+03</pdfrwt>
<pdfrwt beam="2">  1       21 0.85064307E-01 0.45636015E+03</pdfrwt>
<totfact> 0.54067572E+04</totfact>
</mgrwt>
</event>
<event>
 7    0  0.4770865E-002  0.4540396E+03  0.7546771E-02  0.1026524E+00
         21   -1    0    0  502  501  0.00000000000E+00  0.00000000000E+00  0.99244194130E+02  0.99244194130E+02  0.00000000000E+00 0.  1.
         21   -1    0    0  501  502 -0.00000000000E+00 -0.00000000000E+00 -0.51930490963E+03  0.51930490963E+03  0.00000000000E+00 0.  1.
      99926    2    1    2    0    0  0.00000000000E+00  0.00000000000E+00 -0.42006071550E+03  0.61854910376E+03  0.45403963380E+03 0.  0.
      99925    2    3    3    0    0 -0.16229600120E+02  0.10973273242E+03 -0.28748769637E+03  0.40517669227E+03  0.26308611501E+03 0.  0.
         25    1    3    3    0    0  0.16229600120E+02 -0.10973273242E+03 -0.13257301914E+03  0.21337241149E+03  0.12509000000E+03 0.  0.
         25    1    4    4    0    0 -0.36547200971E+01  0.98394537433E+02 -0.16543518103E+03  0.22958908772E+03  0.12509000000E+03 0.  0.
         25    1    4    4    0    0 -0.12574880023E+02  0.11338194984E+02 -0.12205251534E+03  0.17558760455E+03  0.12509000000E+03 0.  0.
<mgrwt>
<rscale>  2 0.45403963E+03</rscale>
<asrwt>0</asrwt>
<pdfrwt beam="1">  1       21 0.14594735E-01 0.45403963E+03</pdfrwt>
<pdfrwt beam="2">  1       21 0.76368368E-01 0.45403963E+03</pdfrwt>
<totfact> 0.57989340E+04</totfact>
</mgrwt>
</event>
<event>
 7    0  0.4770865E-002  0.4266984E+03  0.7546771E-02  0.1034908E+00
         21   -1    0    0  502  501  0.00000000000E+00  0.00000000000E+00  0.37067391581E+03  0.37067391581E+03  0.00000000000E+00 0. -1.
         21   -1    0    0  501  502 -0.00000000000E+00 -0.00000000000E+00 -0.12279763116E+03  0.12279763116E+03  0.00000000000E+00 0. -1.
      99926    2    1    2    0    0  0.00000000000E+00  0.00000000000E+00  0.24787628465E+03  0.49347154696E+03  0.42669838900E+03 0.  0.
      99925    2    3    3    0    0 -0.50635231419E+02 -0.64339785924E+02  0.18142725321E+03  0.32986678972E+03  0.26304508366E+03 0.  0.
         25    1    3    3    0    0  0.50635231419E+02  0.64339785924E+02  0.66449031438E+02  0.16360475724E+03  0.12509000000E+03 0.  0.
         25    1    4    4    0    0  0.88442965556E+01 -0.21951395364E+02  0.59485694267E+02  0.14052096378E+03  0.12509000000E+03 0.  0.
         25    1    4    4    0    0 -0.59479527975E+02 -0.42388390560E+02  0.12194155894E+03  0.18934582594E+03  0.12509000000E+03 0.  0.
<mgrwt>
<rscale>  2 0.42669839E+03</rscale>
<asrwt>0</asrwt>
<pdfrwt beam="1">  1       21 0.54510869E-01 0.42669839E+03</pdfrwt>
<pdfrwt beam="2">  1       21 0.18058475E-01 0.42669839E+03</pdfrwt>
<totfact> 0.82825553E+04</totfact>
</mgrwt>
</event>
<event>
 7    0  0.4770865E-002  0.4748893E+03  0.7546771E-02  0.1020549E+00
         21   -1    0    0  502  501  0.00000000000E+00  0.00000000000E+00  0.50947924060E+03  0.50947924060E+03  0.00000000000E+00 0. -1.
         21   -1    0    0  501  502 -0.00000000000E+00 -0.00000000000E+00 -0.11066193708E+03  0.11066193708E+03  0.00000000000E+00 0. -1.
      99926    2    1    2    0    0  0.00000000000E+00 -0.71054273576E-14  0.39881730352E+03  0.62014117767E+03  0.47488929095E+03 0.  0.
      99925    2    3    3    0    0 -0.25227882084E+02  0.40995814376E+02  0.40576825098E+03  0.48592893307E+03  0.26298659977E+03 0.  0.
         25    1    4    4    0    0  0.10185152832E+01  0.20214600980E+02  0.13144582564E+03  0.18257924483E+03  0.12509000000E+03 0.  0.
         25    1    3    3    0    0  0.25227882084E+02 -0.40995814376E+02 -0.69509474652E+01  0.13421224460E+03  0.12509000000E+03 0.  0.
         25    1    4    4    0    0 -0.26246397367E+02  0.20781213396E+02  0.27432242535E+03  0.30334968824E+03  0.12509000000E+03 0.  0.
<mgrwt>
<rscale>  2 0.47488929E+03</rscale>
<asrwt>0</asrwt>
<pdfrwt beam="1">  1       21 0.74923417E-01 0.47488929E+03</pdfrwt>
<pdfrwt beam="2">  1       21 0.16273814E-01 0.47488929E+03</pdfrwt>
<totfact> 0.49251144E+04</totfact>
</mgrwt>
</event>
<event>
 7    0  0.4770865E-002  0.4732621E+03  0.7546771E-02  0.1021004E+00
         21   -1    0    0  502  501  0.00000000000E+00  0.00000000000E+00  0.18454512752E+03  0.18454512752E+03  0.00000000000E+00 0.  1.
         21   -1    0    0  501  502 -0.00000000000E+00 -0.00000000000E+00 -0.30341769094E+03  0.30341769094E+03  0.00000000000E+00 0.  1.
      99926    2    1    2    0    0  0.00000000000E+00  0.71054273576E-14 -0.11887256343E+03  0.48796281846E+03  0.47326211116E+03 0.  0.
      99925    2    3    3    0    0 -0.66196441851E+02 -0.48255680995E+02 -0.17707957481E+03  0.32750676860E+03  0.26304548656E+03 0.  0.
         25    1    4    4    0    0 -0.56422345405E+02 -0.58655129119E+02 -0.10446287256E+03  0.18216450005E+03  0.12509000000E+03 0.  0.
         25    1    4    4    0    0 -0.97740964455E+01  0.10399448124E+02 -0.72616702246E+02  0.14534226855E+03  0.12509000000E+03 0.  0.
         25    1    3    3    0    0  0.66196441851E+02  0.48255680995E+02  0.58207011383E+02  0.16045604986E+03  0.12509000000E+03 0.  0.
<mgrwt>
<rscale>  2 0.47326211E+03</rscale>
<asrwt>0</asrwt>
<pdfrwt beam="1">  1       21 0.27138989E-01 0.47326211E+03</pdfrwt>
<pdfrwt beam="2">  1       21 0.44620248E-01 0.47326211E+03</pdfrwt>
<totfact> 0.57350990E+04</totfact>
</mgrwt>
</event>
<event>
 7    0  0.4770865E-002  0.4596865E+03  0.7546771E-02  0.1024872E+00
         21   -1    0    0  502  501  0.00000000000E+00  0.00000000000E+00  0.55961240525E+03  0.55961240525E+03  0.00000000000E+00 0. -1.
         21   -1    0    0  501  502 -0.00000000000E+00 -0.00000000000E+00 -0.94400912842E+02  0.94400912842E+02  0.00000000000E+00 0. -1.
      99926    2    1    2    0    0  0.00000000000E+00  0.14210854715E-13  0.46521149241E+03  0.65401331810E+03  0.45968651011E+03 0.  0.
      99925    2    3    3    0    0 -0.54342081225E+02  0.10038255634E+03  0.33160139595E+03  0.43830776558E+03  0.26291537073E+03 0.  0.
         25    1    4    4    0    0 -0.27824675671E+02  0.24479079608E+02  0.20510007636E+03  0.24307815068E+03  0.12509000000E+03 0.  0.
         25    1    4    4    0    0 -0.26517405554E+02  0.75903476730E+02  0.12650131958E+03  0.19522961490E+03  0.12509000000E+03 0.  0.
         25    1    3    3    0    0  0.54342081225E+02 -0.10038255634E+03  0.13361009647E+03  0.21570555252E+03  0.12509000000E+03 0.  0.
<mgrwt>
<rscale>  2 0.45968651E+03</rscale>
<asrwt>0</asrwt>
<pdfrwt beam="1">  1       21 0.82295941E-01 0.45968651E+03</pdfrwt>
<pdfrwt beam="2">  1       21 0.13882487E-01 0.45968651E+03</pdfrwt>
<totfact> 0.53466718E+04</totfact>
</mgrwt>
</event>
<event>
 7    0  0.4770865E-002  0.4052800E+03  0.7546771E-02  0.1041967E+00
         21   -1    0    0  502  501  0.00000000000E+00  0.00000000000E+00  0.25249663328E+02  0.25249663328E+02  0.00000000000E+00 0. -1.
         21   -1    0    0  501  502 -0.00000000000E+00 -0.00000000000E+00 -0.16262776316E+04  0.16262776316E+04  0.00000000000E+00 0. -1.
      99926    2    1    2    0    0  0.00000000000E+00  0.00000000000E+00 -0.16010279682E+04  0.16515272949E+04  0.40527996583E+03 0.  0.
      99925    2    3    3    0    0  0.43252189423E+02  0.32503129116E+02 -0.11041055621E+04  0.11362539780E+04  0.26286271121E+03 0.  0.
         25    1    4    4    0    0  0.23423085360E+02  0.56812341889E+02 -0.56366296328E+03  0.58063734585E+03  0.12509000000E+03 0.  0.
         25    1    4    4    0    0  0.19829104063E+02 -0.24309212774E+02 -0.54044259882E+03  0.55561663214E+03  0.12509000000E+03 0.  0.
         25    1    3    3    0    0 -0.43252189423E+02 -0.32503129116E+02 -0.49692240614E+03  0.51527331691E+03  0.12509000000E+03 0.  0.
<mgrwt>
<rscale>  2 0.40527997E+03</rscale>
<asrwt>0</asrwt>
<pdfrwt beam="1">  1       21 0.37131851E-02 0.40527997E+03</pdfrwt>
<pdfrwt beam="2">  1       21 0.23915852E+00 0.40527997E+03</pdfrwt>
<totfact> 0.30459994E+04</totfact>
</mgrwt>
</event>
<event>
 7    0  0.4770865E-002  0.4590785E+03  0.7546771E-02  0.1025049E+00
         21   -1    0    0  502  501  0.00000000000E+00  0.00000000000E+00  0.57887799797E+02  0.57887799797E+02  0.00000000000E+00 0. -1.
         21   -1    0    0  501  502 -0.00000000000E+00 -0.00000000000E+00 -0.91017903084E+03  0.91017903084E+03  0.00000000000E+00 0. -1.
      99926    2    1    2    0    0  0.71054273576E-14  0.71054273576E-14 -0.85229123105E+03  0.96806683064E+03  0.45907847485E+03 0.  0.
      99925    2    3    3    0    0  0.54573422486E+02  0.48169270887E+02 -0.33766034854E+03  0.43347260094E+03  0.26188823511E+03 0.  0.
         25    1    4    4    0    0 -0.51943799255E+01  0.45238494309E+02 -0.16218290758E+03  0.20981970013E+03  0.12509000000E+03 0.  0.
         25    1    4    4    0    0  0.59767802411E+02  0.29307765779E+01 -0.17547744097E+03  0.22365290082E+03  0.12509000000E+03 0.  0.
         25    1    3    3    0    0 -0.54573422486E+02 -0.48169270887E+02 -0.51463088250E+03  0.53459422970E+03  0.12509000000E+03 0.  0.
<mgrwt>
<rscale>  2 0.45907847E+03</rscale>
<asrwt>0</asrwt>
<pdfrwt beam="1">  1       21 0.85129126E-02 0.45907847E+03</pdfrwt>
<pdfrwt beam="2">  1       21 0.13384984E+00 0.45907847E+03</pdfrwt>
<totfact> 0.39154306E+04</totfact>
</mgrwt>
</event>
<event>
 6    0  0.4770865E-002  0.4507954E+03  0.7546771E-02  0.1027485E+00
         21   -1    0    0  502  501  0.00000000000E+00  0.00000000000E+00  0.20409958670E+04  0.20409958670E+04  0.00000000000E+00 0.  1.
         21   -1    0    0  501  502 -0.00000000000E+00 -0.00000000000E+00 -0.24891835675E+02  0.24891835675E+02  0.00000000000E+00 0.  1.
      99926    2    1    2    0    0  0.00000000000E+00 -0.71054273576E-14  0.20161040313E+04  0.20658877027E+04  0.45079544689E+03 0.  0.
         25    1    3    3    0    0  0.65559906467E+02 -0.17605018626E+02  0.60116866270E+03  0.61778581007E+03  0.12509000000E+03 0.  0.
         25    1    3    3    0    0 -0.41961408475E+02 -0.34994824782E+02  0.37473759066E+03  0.39882473283E+03  0.12509000000E+03 0.  0.
         25    1    3    3    0    0 -0.23598497992E+02  0.52599843408E+02  0.10401977780E+04  0.10492771598E+04  0.12509000000E+03 0.  0.
<mgrwt>
<rscale>  2 0.45079545E+03</rscale>
<asrwt>0</asrwt>
<pdfrwt beam="1">  1       21 0.30014634E+00 0.45079545E+03</pdfrwt>
<pdfrwt beam="2">  1       21 0.36605655E-02 0.45079545E+03</pdfrwt>
<totfact> 0.13085764E+04</totfact>
</mgrwt>
</event>
<event>
 7    0  0.4770865E-002  0.4628433E+03  0.7546771E-02  0.1023960E+00
         21   -1    0    0  502  501  0.00000000000E+00  0.00000000000E+00  0.28990802790E+03  0.28990802790E+03  0.00000000000E+00 0.  1.
         21   -1    0    0  501  502 -0.00000000000E+00 -0.00000000000E+00 -0.18473441315E+03  0.18473441315E+03  0.00000000000E+00 0.  1.
      99926    2    1    2    0    0  0.00000000000E+00  0.17763568394E-14  0.10517361475E+03  0.47464244105E+03  0.46284334024E+03 0.  0.
      99925    2    3    3    0    0  0.84443992022E+02  0.94725694543E+01 -0.21754927736E+02  0.27721174344E+03  0.26296873666E+03 0.  0.
         25    1    3    3    0    0 -0.84443992022E+02 -0.94725694543E+01  0.12692854248E+03  0.19743069761E+03  0.12509000000E+03 0.  0.
         25    1    4    4    0    0  0.67504653399E+02  0.36507104218E+02 -0.19947437554E+02  0.14810487924E+03  0.12509000000E+03 0.  0.
         25    1    4    4    0    0  0.16939338623E+02 -0.27034534764E+02 -0.18074901816E+01  0.12910686420E+03  0.12509000000E+03 0.  0.
<mgrwt>
<rscale>  2 0.46284334E+03</rscale>
<asrwt>0</asrwt>
<pdfrwt beam="1">  1       21 0.42633534E-01 0.46284334E+03</pdfrwt>
<pdfrwt beam="2">  1       21 0.27166825E-01 0.46284334E+03</pdfrwt>
<totfact> 0.63075348E+04</totfact>
</mgrwt>
</event>
<event>
 7    0  0.4770865E-002  0.4498808E+03  0.7546771E-02  0.1027758E+00
         21   -1    0    0  502  501  0.00000000000E+00  0.00000000000E+00  0.37148002283E+02  0.37148002283E+02  0.00000000000E+00 0. -1.
         21   -1    0    0  501  502 -0.00000000000E+00 -0.00000000000E+00 -0.13620699142E+04  0.13620699142E+04  0.00000000000E+00 0. -1.
      99926    2    1    2    0    0  0.14210854715E-13  0.00000000000E+00 -0.13249219119E+04  0.13992179165E+04  0.44988076769E+03 0.  0.
      99925    2    3    3    0    0  0.77776266904E+02 -0.27271251903E+02 -0.61945294350E+03  0.67801971739E+03  0.26305117200E+03 0.  0.
         25    1    3    3    0    0 -0.77776266904E+02  0.27271251903E+02 -0.70546896844E+03  0.72119819912E+03  0.12509000000E+03 0.  0.
         25    1    4    4    0    0  0.26445804016E+02  0.35313840476E+01 -0.38425136590E+03  0.40497959395E+03  0.12509000000E+03 0.  0.
         25    1    4    4    0    0  0.51330462888E+02 -0.30802635951E+02 -0.23520157760E+03  0.27304012344E+03  0.12509000000E+03 0.  0.
<mgrwt>
<rscale>  2 0.44988077E+03</rscale>
<asrwt>0</asrwt>
<pdfrwt beam="1">  1       21 0.54629414E-02 0.44988077E+03</pdfrwt>
<pdfrwt beam="2">  1       21 0.20030440E+00 0.44988077E+03</pdfrwt>
<totfact> 0.27427888E+04</totfact>
</mgrwt>
</event>
<event>
 7    0  0.4770865E-002  0.4520930E+03  0.7546771E-02  0.1027100E+00
         21   -1    0    0  502  501  0.00000000000E+00  0.00000000000E+00  0.11377887610E+03  0.11377887610E+03  0.00000000000E+00 0. -1.
         21   -1    0    0  501  502 -0.00000000000E+00 -0.00000000000E+00 -0.44909060346E+03  0.44909060346E+03  0.00000000000E+00 0. -1.
      99926    2    1    2    0    0  0.00000000000E+00  0.00000000000E+00 -0.33531172736E+03  0.56286947956E+03  0.45209301754E+03 0.  0.
      99925    2    3    3    0    0 -0.10730448570E+03  0.14779030864E+02 -0.23883079737E+03  0.37132640253E+03  0.26288871227E+03 0.  0.
         25    1    3    3    0    0  0.10730448570E+03 -0.14779030864E+02 -0.96480929990E+02  0.19154307703E+03  0.12509000000E+03 0.  0.
         25    1    4    4    0    0 -0.70786226367E+02  0.27987326766E+02 -0.85091409238E+02  0.16935771706E+03  0.12509000000E+03 0.  0.
         25    1    4    4    0    0 -0.36518259337E+02 -0.13208295901E+02 -0.15373938813E+03  0.20196868547E+03  0.12509000000E+03 0.  0.
<mgrwt>
<rscale>  2 0.45209302E+03</rscale>
<asrwt>0</asrwt>
<pdfrwt beam="1">  1       21 0.16732188E-01 0.45209302E+03</pdfrwt>
<pdfrwt beam="2">  1       21 0.66042736E-01 0.45209302E+03</pdfrwt>
<totfact> 0.62447470E+04</totfact>
</mgrwt>
</event>
<event>
 7    0  0.4770865E-002  0.4546256E+03  0.7546771E-02  0.1026352E+00
         21   -1    0    0  502  501  0.00000000000E+00  0.00000000000E+00  0.24755538383E+04  0.24755538383E+04  0.00000000000E+00 0.  1.
         21   -1    0    0  501  502 -0.00000000000E+00 -0.00000000000E+00 -0.20872543051E+02  0.20872543051E+02  0.00000000000E+00 0.  1.
      99926    2    1    2    0    0  0.00000000000E+00  0.71054273576E-14  0.24546812953E+04  0.24964263814E+04  0.45462557810E+03 0.  0.
      99925    2    3    3    0    0  0.13696251485E+02 -0.55192767374E+02  0.20800866946E+04  0.20974245621E+04  0.26305000958E+03 0.  0.
         25    1    4    4    0    0  0.34153475099E+02 -0.23203285151E+02  0.12758866499E+04  0.12826687429E+04  0.12509000000E+03 0.  0.
         25    1    3    3    0    0 -0.13696251485E+02  0.55192767374E+02  0.37459460064E+03  0.39900181930E+03  0.12509000000E+03 0.  0.
         25    1    4    4    0    0 -0.20457223615E+02 -0.31989482223E+02  0.80420004468E+03  0.81475581921E+03  0.12509000000E+03 0.  0.
<mgrwt>
<rscale>  2 0.45462558E+03</rscale>
<asrwt>0</asrwt>
<pdfrwt beam="1">  1       21 0.36405183E+00 0.45462558E+03</pdfrwt>
<pdfrwt beam="2">  1       21 0.30694933E-02 0.45462558E+03</pdfrwt>
<totfact> 0.71893294E+03</totfact>
</mgrwt>
</event>
<event>
 7    0  0.4770865E-002  0.4579998E+03  0.7546771E-02  0.1025363E+00
         21   -1    0    0  502  501  0.00000000000E+00  0.00000000000E+00  0.18926660630E+03  0.18926660630E+03  0.00000000000E+00 0.  1.
         21   -1    0    0  501  502 -0.00000000000E+00 -0.00000000000E+00 -0.27707453272E+03  0.27707453272E+03  0.00000000000E+00 0.  1.
      99926    2    1    2    0    0  0.00000000000E+00  0.14210854715E-13 -0.87807926421E+02  0.46634113902E+03  0.45799981005E+03 0.  0.
      99925    2    3    3    0    0  0.40564870710E+02  0.93112453887E+02  0.19655267322E+01  0.28189001055E+03  0.26294995141E+03 0.  0.
         25    1    3    3    0    0 -0.40564870710E+02 -0.93112453887E+02 -0.89773453153E+02  0.18445112847E+03  0.12509000000E+03 0.  0.
         25    1    4    4    0    0  0.45093538781E+02  0.81903937022E+02  0.34491603028E+01  0.15620847271E+03  0.12509000000E+03 0.  0.
         25    1    4    4    0    0 -0.45286680706E+01  0.11208516865E+02 -0.14836335706E+01  0.12568153784E+03  0.12509000000E+03 0.  0.
<mgrwt>
<rscale>  2 0.45799981E+03</rscale>
<asrwt>0</asrwt>
<pdfrwt beam="1">  1       21 0.27833325E-01 0.45799981E+03</pdfrwt>
<pdfrwt beam="2">  1       21 0.40746254E-01 0.45799981E+03</pdfrwt>
<totfact> 0.66119913E+04</totfact>
</mgrwt>
</event>
<event>
 7    0  0.4770865E-002  0.4586287E+03  0.7546771E-02  0.1025180E+00
         21   -1    0    0  502  501  0.00000000000E+00  0.00000000000E+00  0.18633521412E+03  0.18633521412E+03  0.00000000000E+00 0.  1.
         21   -1    0    0  501  502 -0.00000000000E+00 -0.00000000000E+00 -0.28220681417E+03  0.28220681417E+03  0.00000000000E+00 0.  1.
      99926    2    1    2    0    0 -0.71054273576E-14 -0.14210854715E-13 -0.95871600049E+02  0.46854202830E+03  0.45862868269E+03 0.  0.
      99925    2    3    3    0    0 -0.56188686919E+02 -0.61716877184E+02 -0.14328524248E+03  0.31086608512E+03  0.26294661188E+03 0.  0.
         25    1    4    4    0    0 -0.74236298711E+01  0.55834779472E+01 -0.71913307592E+02  0.14458671244E+03  0.12509000000E+03 0.  0.
         25    1    3    3    0    0  0.56188686919E+02  0.61716877184E+02  0.47413642429E+02  0.15767594317E+03  0.12509000000E+03 0.  0.
         25    1    4    4    0    0 -0.48765057048E+02 -0.67300355132E+02 -0.71371934887E+02  0.16627937268E+03  0.12509000000E+03 0.  0.
<mgrwt>
<rscale>  2 0.45862868E+03</rscale>
<asrwt>0</asrwt>
<pdfrwt beam="1">  1       21 0.27402238E-01 0.45862868E+03</pdfrwt>
<pdfrwt beam="2">  1       21 0.41501002E-01 0.45862868E+03</pdfrwt>
<totfact> 0.65634436E+04</totfact>
</mgrwt>
</event>
<event>
 7    0  0.4770865E-002  0.4525727E+03  0.7546771E-02  0.1026958E+00
         21   -1    0    0  502  501  0.00000000000E+00  0.00000000000E+00  0.77879075423E+03  0.77879075423E+03  0.00000000000E+00 0.  1.
         21   -1    0    0  501  502 -0.00000000000E+00 -0.00000000000E+00 -0.65750031103E+02  0.65750031103E+02  0.00000000000E+00 0.  1.
      99926    2    1    2    0    0  0.00000000000E+00  0.00000000000E+00  0.71304072313E+03  0.84454078534E+03  0.45257271819E+03 0.  0.
      99925    2    3    3    0    0 -0.19965968474E+02 -0.96652776772E+02  0.35526842479E+03  0.45289180383E+03  0.26297325562E+03 0.  0.
         25    1    4    4    0    0 -0.39747412817E+02 -0.19812814030E+02  0.16987930494E+03  0.21558963512E+03  0.12509000000E+03 0.  0.
         25    1    4    4    0    0  0.19781444343E+02 -0.76839962742E+02  0.18538911985E+03  0.23730216871E+03  0.12509000000E+03 0.  0.
         25    1    3    3    0    0  0.19965968474E+02  0.96652776772E+02  0.35777229834E+03  0.39164898151E+03  0.12509000000E+03 0.  0.
<mgrwt>
<rscale>  2 0.45257272E+03</rscale>
<asrwt>0</asrwt>
<pdfrwt beam="1">  1       21 0.11452805E+00 0.45257272E+03</pdfrwt>
<pdfrwt beam="2">  1       21 0.96691227E-02 0.45257272E+03</pdfrwt>
<totfact> 0.46564960E+04</totfact>
</mgrwt>
</event>
<event>
 7    0  0.4770865E-002  0.4470179E+03  0.7546771E-02  0.1028615E+00
         21   -1    0    0  502  501  0.00000000000E+00  0.00000000000E+00  0.49858807699E+03  0.49858807699E+03  0.00000000000E+00 0. -1.
         21   -1    0    0  501  502 -0.00000000000E+00 -0.00000000000E+00 -0.10019544568E+03  0.10019544568E+03  0.00000000000E+00 0. -1.
      99926    2    1    2    0    0  0.00000000000E+00  0.00000000000E+00  0.39839263131E+03  0.59878352267E+03  0.44701791725E+03 0.  0.
      99925    2    3    3    0    0  0.77446558442E+02 -0.34646650302E+02  0.33615407798E+03  0.43532250159E+03  0.26326366339E+03 0.  0.
         25    1    4    4    0    0 -0.26898039178E+01 -0.20374535254E+02  0.16859787093E+03  0.21093863306E+03  0.12509000000E+03 0.  0.
         25    1    4    4    0    0  0.80136362360E+02 -0.14272115048E+02  0.16755620705E+03  0.22438386854E+03  0.12509000000E+03 0.  0.
         25    1    3    3    0    0 -0.77446558442E+02  0.34646650302E+02  0.62238553328E+02  0.16346102108E+03  0.12509000000E+03 0.  0.
<mgrwt>
<rscale>  2 0.44701792E+03</rscale>
<asrwt>0</asrwt>
<pdfrwt beam="1">  1       21 0.73321775E-01 0.44701792E+03</pdfrwt>
<pdfrwt beam="2">  1       21 0.14734625E-01 0.44701792E+03</pdfrwt>
<totfact> 0.62609431E+04</totfact>
</mgrwt>
</event>
<event>
 7    0  0.4770865E-002  0.4553921E+03  0.7546771E-02  0.1026126E+00
         21   -1    0    0  502  501  0.00000000000E+00  0.00000000000E+00  0.29295814805E+03  0.29295814805E+03  0.00000000000E+00 0. -1.
         21   -1    0    0  501  502 -0.00000000000E+00 -0.00000000000E+00 -0.17697236789E+03  0.17697236789E+03  0.00000000000E+00 0. -1.
      99926    2    1    2    0    0  0.00000000000E+00  0.14210854715E-13  0.11598578016E+03  0.46993051594E+03  0.45539212620E+03 0.  0.
      99925    2    3    3    0    0 -0.20323989005E+02 -0.10600256770E+03  0.10697065905E+03  0.30446635245E+03  0.26383219855E+03 0.  0.
         25    1    4    4    0    0 -0.94594125527E+01 -0.23677246049E+02  0.83385466773E+02  0.15248192232E+03  0.12509000000E+03 0.  0.
         25    1    3    3    0    0  0.20323989005E+02  0.10600256770E+03  0.90151211131E+01  0.16546416348E+03  0.12509000000E+03 0.  0.
         25    1    4    4    0    0 -0.10864576453E+02 -0.82325321654E+02  0.23585192275E+02  0.15198443013E+03  0.12509000000E+03 0.  0.
<mgrwt>
<rscale>  2 0.45539213E+03</rscale>
<asrwt>0</asrwt>
<pdfrwt beam="1">  1       21 0.43082081E-01 0.45539213E+03</pdfrwt>
<pdfrwt beam="2">  1       21 0.26025348E-01 0.45539213E+03</pdfrwt>
<totfact> 0.67231513E+04</totfact>
</mgrwt>
</event>
<event>
 7    0  0.4770865E-002  0.4561109E+03  0.7546771E-02  0.1025915E+00
         21   -1    0    0  502  501  0.00000000000E+00  0.00000000000E+00  0.41680380393E+03  0.41680380393E+03  0.00000000000E+00 0.  1.
         21   -1    0    0  501  502 -0.00000000000E+00 -0.00000000000E+00 -0.12478124003E+03  0.12478124003E+03  0.00000000000E+00 0.  1.
      99926    2    1    2    0    0  0.00000000000E+00  0.00000000000E+00  0.29202256389E+03  0.54158504396E+03  0.45611093170E+03 0.  0.
      99925    2    3    3    0    0 -0.85488208775E+02  0.52829185721E+02  0.11935885356E+03  0.30587458244E+03  0.26308471555E+03 0.  0.
         25    1    3    3    0    0  0.85488208775E+02 -0.52829185721E+02  0.17266371033E+03  0.23571046152E+03  0.12509000000E+03 0.  0.
         25    1    4    4    0    0 -0.78891189981E+02  0.21762244289E+02  0.41447574075E+02  0.15512196695E+03  0.12509000000E+03 0.  0.
         25    1    4    4    0    0 -0.65970187940E+01  0.31066941432E+02  0.77911279484E+02  0.15075261549E+03  0.12509000000E+03 0.  0.
<mgrwt>
<rscale>  2 0.45611093E+03</rscale>
<asrwt>0</asrwt>
<pdfrwt beam="1">  1       21 0.61294676E-01 0.45611093E+03</pdfrwt>
<pdfrwt beam="2">  1       21 0.18350183E-01 0.45611093E+03</pdfrwt>
<totfact> 0.61880212E+04</totfact>
</mgrwt>
</event>
<event>
 7    0  0.4770865E-002  0.4762382E+03  0.7546771E-02  0.1020174E+00
         21   -1    0    0  502  501  0.00000000000E+00  0.00000000000E+00  0.22373527764E+03  0.22373527764E+03  0.00000000000E+00 0.  1.
         21   -1    0    0  501  502 -0.00000000000E+00 -0.00000000000E+00 -0.25342768781E+03  0.25342768781E+03  0.00000000000E+00 0.  1.
      99926    2    1    2    0    0  0.00000000000E+00  0.00000000000E+00 -0.29692410173E+02  0.47716296545E+03  0.47623823490E+03 0.  0.
      99925    2    3    3    0    0 -0.54637122870E+02 -0.85751567874E+02  0.66128929402E+02  0.28963221116E+03  0.26301185496E+03 0.  0.
         25    1    3    3    0    0  0.54637122870E+02  0.85751567874E+02 -0.95821339575E+02  0.18753075429E+03  0.12509000000E+03 0.  0.
         25    1    4    4    0    0 -0.26908999260E+02 -0.91873077706E+01  0.56173383663E+02  0.14004091544E+03  0.12509000000E+03 0.  0.
         25    1    4    4    0    0 -0.27728123609E+02 -0.76564260103E+02  0.99555457394E+01  0.14959129572E+03  0.12509000000E+03 0.  0.
<mgrwt>
<rscale>  2 0.47623823E+03</rscale>
<asrwt>0</asrwt>
<pdfrwt beam="1">  1       21 0.32902247E-01 0.47623823E+03</pdfrwt>
<pdfrwt beam="2">  1       21 0.37268777E-01 0.47623823E+03</pdfrwt>
<totfact> 0.56714447E+04</totfact>
</mgrwt>
</event>
<event>
 7    0  0.4770865E-002  0.4785787E+03  0.7546771E-02  0.1019527E+00
         21   -1    0    0  502  501  0.00000000000E+00  0.00000000000E+00  0.39481067609E+03  0.39481067609E+03  0.00000000000E+00 0.  1.
         21   -1    0    0  501  502 -0.00000000000E+00 -0.00000000000E+00 -0.14502997529E+03  0.14502997529E+03  0.00000000000E+00 0.  1.
      99926    2    1    2    0    0  0.00000000000E+00  0.00000000000E+00  0.24978070080E+03  0.53984065138E+03  0.47857865643E+03 0.  0.
      99925    2    3    3    0    0 -0.45322273532E+02  0.33396942497E+02  0.16803287721E+02  0.26947895411E+03  0.26299637257E+03 0.  0.
         25    1    3    3    0    0  0.45322273532E+02 -0.33396942497E+02  0.23297741308E+03  0.27036169728E+03  0.12509000000E+03 0.  0.
         25    1    4    4    0    0 -0.62083122862E+02  0.19345273522E+02  0.20338790488E+02  0.14244201715E+03  0.12509000000E+03 0.  0.
         25    1    4    4    0    0  0.16760849331E+02  0.14051668975E+02 -0.35355027669E+01  0.12703693696E+03  0.12509000000E+03 0.  0.
<mgrwt>
<rscale>  2 0.47857866E+03</rscale>
<asrwt>0</asrwt>
<pdfrwt beam="1">  1       21 0.58060394E-01 0.47857866E+03</pdfrwt>
<pdfrwt beam="2">  1       21 0.21327938E-01 0.47857866E+03</pdfrwt>
<totfact> 0.52104068E+04</totfact>
</mgrwt>
</event>
<event>
 7    0  0.4770865E-002  0.4528792E+03  0.7546771E-02  0.1026867E+00
         21   -1    0    0  502  501  0.00000000000E+00  0.00000000000E+00  0.27460468058E+03  0.27460468058E+03  0.00000000000E+00 0. -1.
         21   -1    0    0  501  502 -0.00000000000E+00 -0.00000000000E+00 -0.18672255540E+03  0.18672255540E+03  0.00000000000E+00 0. -1.
      99926    2    1    2    0    0  0.00000000000E+00  0.00000000000E+00  0.87882125185E+02  0.46132723598E+03  0.45287917896E+03 0.  0.
      99925    2    3    3    0    0  0.98121964375E+02  0.31929861763E+02  0.13370206644E+02  0.28287004204E+03  0.26303851865E+03 0.  0.
         25    1    3    3    0    0 -0.98121964375E+02 -0.31929861763E+02  0.74511918541E+02  0.17845719394E+03  0.12509000000E+03 0.  0.
         25    1    4    4    0    0  0.71532027729E+02  0.26265686608E+02  0.40600872772E+02  0.15199557972E+03  0.12509000000E+03 0.  0.
         25    1    4    4    0    0  0.26589936645E+02  0.56641751551E+01 -0.27230666128E+02  0.13087446232E+03  0.12509000000E+03 0.  0.
<mgrwt>
<rscale>  2 0.45287918E+03</rscale>
<asrwt>0</asrwt>
<pdfrwt beam="1">  1       21 0.40383042E-01 0.45287918E+03</pdfrwt>
<pdfrwt beam="2">  1       21 0.27459199E-01 0.45287918E+03</pdfrwt>
<totfact> 0.69243738E+04</totfact>
</mgrwt>
</event>
<event>
 7    0  0.4770865E-002  0.4639132E+03  0.7546771E-02  0.1023652E+00
         21   -1    0    0  502  501  0.00000000000E+00  0.00000000000E+00  0.52867443977E+03  0.52867443977E+03  0.00000000000E+00 0. -1.
         21   -1    0    0  501  502 -0.00000000000E+00 -0.00000000000E+00 -0.10177124309E+03  0.10177124309E+03  0.00000000000E+00 0. -1.
      99926    2    1    2    0    0  0.00000000000E+00  0.00000000000E+00  0.42690319668E+03  0.63044568286E+03  0.46391315966E+03 0.  0.
      99925    2    3    3    0    0 -0.22935970645E+02  0.99074865538E+02  0.17649472958E+03  0.33263064592E+03  0.26296552874E+03 0.  0.
         25    1    4    4    0    0 -0.11935185597E+02  0.91931765724E+02  0.88028571416E+02  0.17885870314E+03  0.12509000000E+03 0.  0.
         25    1    4    4    0    0 -0.11000785048E+02  0.71430998137E+01  0.88466158160E+02  0.15377194278E+03  0.12509000000E+03 0.  0.
         25    1    3    3    0    0  0.22935970645E+02 -0.99074865538E+02  0.25040846710E+03  0.29781503694E+03  0.12509000000E+03 0.  0.
<mgrwt>
<rscale>  2 0.46391316E+03</rscale>
<asrwt>0</asrwt>
<pdfrwt beam="1">  1       21 0.77746240E-01 0.46391316E+03</pdfrwt>
<pdfrwt beam="2">  1       21 0.14966360E-01 0.46391316E+03</pdfrwt>
<totfact> 0.53012479E+04</totfact>
</mgrwt>
</event>
<event>
 7    0  0.4770865E-002  0.4553082E+03  0.7546771E-02  0.1026151E+00
         21   -1    0    0  502  501  0.00000000000E+00  0.00000000000E+00  0.96211907629E+02  0.96211907629E+02  0.00000000000E+00 0. -1.
         21   -1    0    0  501  502 -0.00000000000E+00 -0.00000000000E+00 -0.53866926637E+03  0.53866926637E+03  0.00000000000E+00 0. -1.
      99926    2    1    2    0    0  0.14210854715E-13 -0.55511151231E-15 -0.44245735874E+03  0.63488117400E+03  0.45530823712E+03 0.  0.
      99925    2    3    3    0    0  0.11247796587E+03 -0.51040669183E+00 -0.25785821664E+03  0.38512948794E+03  0.26302530158E+03 0.  0.
         25    1    3    3    0    0 -0.11247796587E+03  0.51040669183E+00 -0.18459914210E+03  0.24975168605E+03  0.12509000000E+03 0.  0.
         25    1    4    4    0    0  0.23668044276E+02 -0.27175830746E+02 -0.11066202498E+03  0.17085752535E+03  0.12509000000E+03 0.  0.
         25    1    4    4    0    0  0.88809921598E+02  0.26665424054E+02 -0.14719619166E+03  0.21427196260E+03  0.12509000000E+03 0.  0.
<mgrwt>
<rscale>  2 0.45530824E+03</rscale>
<asrwt>0</asrwt>
<pdfrwt beam="1">  1       21 0.14148810E-01 0.45530824E+03</pdfrwt>
<pdfrwt beam="2">  1       21 0.79216068E-01 0.45530824E+03</pdfrwt>
<totfact> 0.56443555E+04</totfact>
</mgrwt>
</event>
<event>
 7    0  0.4770865E-002  0.4524374E+03  0.7546771E-02  0.1026998E+00
         21   -1    0    0  502  501  0.00000000000E+00  0.00000000000E+00  0.36106079888E+02  0.36106079888E+02  0.00000000000E+00 0.  1.
         21   -1    0    0  501  502 -0.00000000000E+00 -0.00000000000E+00 -0.14173487819E+04  0.14173487819E+04  0.00000000000E+00 0.  1.
      99926    2    1    2    0    0  0.88817841970E-15 -0.71054273576E-14 -0.13812427020E+04  0.14534548617E+04  0.45243743588E+03 0.  0.
      99925    2    3    3    0    0  0.69549338293E+01 -0.36015594476E+02 -0.12068717222E+04  0.12357434913E+04  0.26301545242E+03 0.  0.
         25    1    4    4    0    0  0.15944866646E+02 -0.52048834731E+02 -0.53798097688E+03  0.55500843197E+03  0.12509000000E+03 0.  0.
         25    1    3    3    0    0 -0.69549338293E+01  0.36015594476E+02 -0.17437097977E+03  0.21771137048E+03  0.12509000000E+03 0.  0.
         25    1    4    4    0    0 -0.89899328165E+01  0.16033240255E+02 -0.66889074531E+03  0.68073505929E+03  0.12509000000E+03 0.  0.
<mgrwt>
<rscale>  2 0.45243744E+03</rscale>
<asrwt>0</asrwt>
<pdfrwt beam="1">  1       21 0.53097184E-02 0.45243744E+03</pdfrwt>
<pdfrwt beam="2">  1       21 0.20843361E+00 0.45243744E+03</pdfrwt>
<totfact> 0.25444483E+04</totfact>
</mgrwt>
</event>
<event>
 7    0  0.4770865E-002  0.4537276E+03  0.7546771E-02  0.1026616E+00
         21   -1    0    0  502  501  0.00000000000E+00  0.00000000000E+00  0.61810578839E+03  0.61810578839E+03  0.00000000000E+00 0. -1.
         21   -1    0    0  501  502 -0.00000000000E+00 -0.00000000000E+00 -0.83265988263E+02  0.83265988263E+02  0.00000000000E+00 0. -1.
      99926    2    1    2    0    0 -0.71054273576E-14  0.00000000000E+00  0.53483980012E+03  0.70137177665E+03  0.45372762456E+03 0.  0.
      99925    2    3    3    0    0  0.53720227970E+02 -0.39841717903E+02  0.19822826117E+03  0.33609371594E+03  0.26304242431E+03 0.  0.
         25    1    3    3    0    0 -0.53720227970E+02  0.39841717903E+02  0.33661153896E+03  0.36527806071E+03  0.12509000000E+03 0.  0.
         25    1    4    4    0    0 -0.97135993372E+01  0.32297716460E+00  0.94963089424E+02  0.15735296241E+03  0.12509000000E+03 0.  0.
         25    1    4    4    0    0  0.63433827307E+02 -0.40164695068E+02  0.10326517174E+03  0.17874075353E+03  0.12509000000E+03 0.  0.
<mgrwt>
<rscale>  2 0.45372762E+03</rscale>
<asrwt>0</asrwt>
<pdfrwt beam="1">  1       21 0.90897907E-01 0.45372762E+03</pdfrwt>
<pdfrwt beam="2">  1       21 0.12244999E-01 0.45372762E+03</pdfrwt>
<totfact> 0.53360833E+04</totfact>
</mgrwt>
</event>
<event>
 7    0  0.4770865E-002  0.4443428E+03  0.7546771E-02  0.1029423E+00
         21   -1    0    0  502  501  0.00000000000E+00  0.00000000000E+00  0.60694713382E+03  0.60694713382E+03  0.00000000000E+00 0.  1.
         21   -1    0    0  501  502 -0.00000000000E+00 -0.00000000000E+00 -0.81325264737E+02  0.81325264737E+02  0.00000000000E+00 0.  1.
      99926    2    1    2    0    0  0.00000000000E+00  0.00000000000E+00  0.52562186908E+03  0.68827239856E+03  0.44434282413E+03 0.  0.
      99925    2    3    3    0    0 -0.27870618563E+02  0.97117069530E+02  0.36444350842E+03  0.46060055441E+03  0.26291691333E+03 0.  0.
         25    1    4    4    0    0 -0.14889343682E+02  0.89803667720E+02  0.18162621364E+03  0.23858327870E+03  0.12509000000E+03 0.  0.
         25    1    4    4    0    0 -0.12981274881E+02  0.73134018098E+01  0.18281729478E+03  0.22201727571E+03  0.12509000000E+03 0.  0.
         25    1    3    3    0    0  0.27870618563E+02 -0.97117069530E+02  0.16117836066E+03  0.22767184415E+03  0.12509000000E+03 0.  0.
<mgrwt>
<rscale>  2 0.44434282E+03</rscale>
<asrwt>0</asrwt>
<pdfrwt beam="1">  1       21 0.89256929E-01 0.44434282E+03</pdfrwt>
<pdfrwt beam="2">  1       21 0.11959598E-01 0.44434282E+03</pdfrwt>
<totfact> 0.58282288E+04</totfact>
</mgrwt>
</event>
<event>
 7    0  0.4770865E-002  0.4110709E+03  0.7546771E-02  0.1040012E+00
         21   -1    0    0  502  501  0.00000000000E+00  0.00000000000E+00  0.41845288477E+03  0.41845288477E+03  0.00000000000E+00 0.  1.
         21   -1    0    0  501  502 -0.00000000000E+00 -0.00000000000E+00 -0.10095480352E+03  0.10095480352E+03  0.00000000000E+00 0.  1.
      99926    2    1    2    0    0 -0.35527136788E-14  0.00000000000E+00  0.31749808125E+03  0.51940768829E+03  0.41107093677E+03 0.  0.
      99925    2    3    3    0    0  0.17109918625E+02  0.40507135688E+02  0.26737759048E+03  0.37765738300E+03  0.26306034608E+03 0.  0.
         25    1    4    4    0    0  0.39187590220E+02  0.47510792959E+02  0.13564839374E+03  0.19452747235E+03  0.12509000000E+03 0.  0.
         25    1    4    4    0    0 -0.22077671595E+02 -0.70036572717E+01  0.13172919674E+03  0.18312991064E+03  0.12509000000E+03 0.  0.
         25    1    3    3    0    0 -0.17109918625E+02 -0.40507135688E+02  0.50120490772E+02  0.14175030530E+03  0.12509000000E+03 0.  0.
<mgrwt>
<rscale>  2 0.41107094E+03</rscale>
<asrwt>0</asrwt>
<pdfrwt beam="1">  1       21 0.61537188E-01 0.41107094E+03</pdfrwt>
<pdfrwt beam="2">  1       21 0.14846295E-01 0.41107094E+03</pdfrwt>
<totfact> 0.91997059E+04</totfact>
</mgrwt>
</event>
<event>
 7    0  0.4770865E-002  0.4565588E+03  0.7546771E-02  0.1025784E+00
         21   -1    0    0  502  501  0.00000000000E+00  0.00000000000E+00  0.11035004888E+03  0.11035004888E+03  0.00000000000E+00 0. -1.
         21   -1    0    0  501  502 -0.00000000000E+00 -0.00000000000E+00 -0.47223801199E+03  0.47223801199E+03  0.00000000000E+00 0. -1.
      99926    2    1    2    0    0  0.00000000000E+00  0.00000000000E+00 -0.36188796311E+03  0.58258806087E+03  0.45655881420E+03 0.  0.
      99925    2    3    3    0    0 -0.24302146719E+02 -0.65771084748E+02 -0.34308779034E+03  0.43795962480E+03  0.26302655978E+03 0.  0.
         25    1    4    4    0    0  0.13592566639E+02 -0.34570521322E+02 -0.21968659382E+03  0.25551827022E+03  0.12509000000E+03 0.  0.
         25    1    4    4    0    0 -0.37894713358E+02 -0.31200563426E+02 -0.12340119651E+03  0.18244135458E+03  0.12509000000E+03 0.  0.
         25    1    3    3    0    0  0.24302146719E+02  0.65771084748E+02 -0.18800172771E+02  0.14462843607E+03  0.12509000000E+03 0.  0.
<mgrwt>
<rscale>  2 0.45655881E+03</rscale>
<asrwt>0</asrwt>
<pdfrwt beam="1">  1       21 0.16227948E-01 0.45655881E+03</pdfrwt>
<pdfrwt beam="2">  1       21 0.69446767E-01 0.45655881E+03</pdfrwt>
<totfact> 0.59032215E+04</totfact>
</mgrwt>
</event>
<event>
 6    0  0.4770865E-002  0.4546738E+03  0.7546771E-02  0.1026337E+00
         21   -1    0    0  502  501  0.00000000000E+00  0.00000000000E+00  0.18923763636E+03  0.18923763636E+03  0.00000000000E+00 0.  1.
         21   -1    0    0  501  502 -0.00000000000E+00 -0.00000000000E+00 -0.27310665587E+03  0.27310665587E+03  0.00000000000E+00 0.  1.
      99926    2    1    2    0    0  0.71054273576E-14  0.00000000000E+00 -0.83869019516E+02  0.46234429223E+03  0.45467376450E+03 0.  0.
         25    1    3    3    0    0  0.45630408217E+02  0.45924073246E+02 -0.12842580812E+03  0.19060915757E+03  0.12509000000E+03 0.  0.
         25    1    3    3    0    0  0.64816290090E+00  0.45556276419E+01  0.14709962166E+02  0.12603596687E+03  0.12509000000E+03 0.  0.
         25    1    3    3    0    0 -0.46278571118E+02 -0.50479700888E+02  0.29846826434E+02  0.14569916779E+03  0.12509000000E+03 0.  0.
<mgrwt>
<rscale>  2 0.45467376E+03</rscale>
<asrwt>0</asrwt>
<pdfrwt beam="1">  1       21 0.27829064E-01 0.45467376E+03</pdfrwt>
<pdfrwt beam="2">  1       21 0.40162743E-01 0.45467376E+03</pdfrwt>
<totfact> 0.68184389E+04</totfact>
</mgrwt>
</event>
<event>
 7    0  0.4770865E-002  0.4550915E+03  0.7546771E-02  0.1026214E+00
         21   -1    0    0  502  501  0.00000000000E+00  0.00000000000E+00  0.55303231484E+03  0.55303231484E+03  0.00000000000E+00 0. -1.
         21   -1    0    0  501  502 -0.00000000000E+00 -0.00000000000E+00 -0.93623967914E+02  0.93623967914E+02  0.00000000000E+00 0. -1.
      99926    2    1    2    0    0 -0.71054273576E-14  0.00000000000E+00  0.45940834693E+03  0.64665628276E+03  0.45509154991E+03 0.  0.
      99925    2    3    3    0    0 -0.51414337719E+02  0.35979658205E+02  0.15549236884E+03  0.31206638488E+03  0.26319115083E+03 0.  0.
         25    1    3    3    0    0  0.51414337719E+02 -0.35979658205E+02  0.30391597809E+03  0.33458989788E+03  0.12509000000E+03 0.  0.
         25    1    4    4    0    0 -0.12518971736E+02 -0.48504852327E+00  0.35286830908E+02  0.13057422587E+03  0.12509000000E+03 0.  0.
         25    1    4    4    0    0 -0.38895365983E+02  0.36464706728E+02  0.12020553793E+03  0.18149215901E+03  0.12509000000E+03 0.  0.
<mgrwt>
<rscale>  2 0.45509155E+03</rscale>
<asrwt>0</asrwt>
<pdfrwt beam="1">  1       21 0.81328280E-01 0.45509155E+03</pdfrwt>
<pdfrwt beam="2">  1       21 0.13768231E-01 0.45509155E+03</pdfrwt>
<totfact> 0.55854177E+04</totfact>
</mgrwt>
</event>
<event>
 7    0  0.4770865E-002  0.4547690E+03  0.7546771E-02  0.1026309E+00
         21   -1    0    0  502  501  0.00000000000E+00  0.00000000000E+00  0.26937460093E+03  0.26937460093E+03  0.00000000000E+00 0. -1.
         21   -1    0    0  501  502 -0.00000000000E+00 -0.00000000000E+00 -0.19193980706E+03  0.19193980706E+03  0.00000000000E+00 0. -1.
      99926    2    1    2    0    0  0.00000000000E+00  0.00000000000E+00  0.77434793863E+02  0.46131440799E+03  0.45476899160E+03 0.  0.
      99925    2    3    3    0    0  0.18957691336E+02 -0.82924989130E+02  0.12414094037E+03  0.30299536269E+03  0.26298149907E+03 0.  0.
         25    1    4    4    0    0  0.18270054763E+02 -0.83078433499E+02  0.65636549743E+02  0.16489841047E+03  0.12509000000E+03 0.  0.
         25    1    4    4    0    0  0.68763657275E+00  0.15344436951E+00  0.58504390631E+02  0.13809695222E+03  0.12509000000E+03 0.  0.
         25    1    3    3    0    0 -0.18957691336E+02  0.82924989130E+02 -0.46706146511E+02  0.15831904530E+03  0.12509000000E+03 0.  0.
<mgrwt>
<rscale>  2 0.45476899E+03</rscale>
<asrwt>0</asrwt>
<pdfrwt beam="1">  1       21 0.39613912E-01 0.45476899E+03</pdfrwt>
<pdfrwt beam="2">  1       21 0.28226442E-01 0.45476899E+03</pdfrwt>
<totfact> 0.68209723E+04</totfact>
</mgrwt>
</event>
<event>
 7    0  0.4770865E-002  0.4554195E+03  0.7546771E-02  0.1026118E+00
         21   -1    0    0  502  501  0.00000000000E+00  0.00000000000E+00  0.66724545039E+02  0.66724545039E+02  0.00000000000E+00 0.  1.
         21   -1    0    0  501  502 -0.00000000000E+00 -0.00000000000E+00 -0.77710129836E+03  0.77710129836E+03  0.00000000000E+00 0.  1.
      99926    2    1    2    0    0  0.00000000000E+00  0.71054273576E-14 -0.71037675332E+03  0.84382584340E+03  0.45541950148E+03 0.  0.
      99925    2    3    3    0    0 -0.40551497792E+02 -0.59500985772E+02 -0.28424399867E+03  0.39391315857E+03  0.26303637474E+03 0.  0.
         25    1    4    4    0    0  0.64767655191E+01 -0.45692158750E+02 -0.17926525063E+03  0.22341275712E+03  0.12509000000E+03 0.  0.
         25    1    4    4    0    0 -0.47028263311E+02 -0.13808827022E+02 -0.10497874804E+03  0.17050040145E+03  0.12509000000E+03 0.  0.
         25    1    3    3    0    0  0.40551497792E+02  0.59500985772E+02 -0.42613275465E+03  0.44991268482E+03  0.12509000000E+03 0.  0.
<mgrwt>
<rscale>  2 0.45541950E+03</rscale>
<asrwt>0</asrwt>
<pdfrwt beam="1">  1       21 0.98124326E-02 0.45541950E+03</pdfrwt>
<pdfrwt beam="2">  1       21 0.11427961E+00 0.45541950E+03</pdfrwt>
<totfact> 0.45566696E+04</totfact>
</mgrwt>
</event>
<event>
 7    0  0.4770865E-002  0.4555991E+03  0.7546771E-02  0.1026065E+00
         21   -1    0    0  502  501  0.00000000000E+00  0.00000000000E+00  0.27963349005E+02  0.27963349005E+02  0.00000000000E+00 0.  1.
         21   -1    0    0  501  502 -0.00000000000E+00 -0.00000000000E+00 -0.18557375046E+04  0.18557375046E+04  0.00000000000E+00 0.  1.
      99926    2    1    2    0    0  0.00000000000E+00  0.00000000000E+00 -0.18277741556E+04  0.18837008536E+04  0.45559910229E+03 0.  0.
      99925    2    3    3    0    0  0.95226136180E+02 -0.34271283253E+02 -0.93535582803E+03  0.97689298126E+03  0.26303390265E+03 0.  0.
         25    1    4    4    0    0  0.63768928578E+02 -0.22483060568E+02 -0.61750397476E+03  0.63366444685E+03  0.12509000000E+03 0.  0.
         25    1    3    3    0    0 -0.95226136180E+02  0.34271283253E+02 -0.89241832757E+03  0.90680787234E+03  0.12509000000E+03 0.  0.
         25    1    4    4    0    0  0.31457207602E+02 -0.11788222685E+02 -0.31785185327E+03  0.34322853441E+03  0.12509000000E+03 0.  0.
<mgrwt>
<rscale>  2 0.45559910E+03</rscale>
<asrwt>0</asrwt>
<pdfrwt beam="1">  1       21 0.41122560E-02 0.45559910E+03</pdfrwt>
<pdfrwt beam="2">  1       21 0.27290266E+00 0.45559910E+03</pdfrwt>
<totfact> 0.15630109E+04</totfact>
</mgrwt>
</event>
<event>
 7    0  0.4770865E-002  0.4499283E+03  0.7546771E-02  0.1027743E+00
         21   -1    0    0  502  501  0.00000000000E+00  0.00000000000E+00  0.39694320492E+02  0.39694320492E+02  0.00000000000E+00 0. -1.
         21   -1    0    0  501  502 -0.00000000000E+00 -0.00000000000E+00 -0.12749647680E+04  0.12749647680E+04  0.00000000000E+00 0. -1.
      99926    2    1    2    0    0 -0.71054273576E-14  0.00000000000E+00 -0.12352704475E+04  0.13146590885E+04  0.44992826148E+03 0.  0.
      99925    2    3    3    0    0  0.42933585407E+02  0.84251037015E+02 -0.62619544352E+03  0.68572236785E+03  0.26296939420E+03 0.  0.
         25    1    4    4    0    0 -0.91348873808E+01  0.39050656087E+02 -0.36662335770E+03  0.38944652319E+03  0.12509000000E+03 0.  0.
         25    1    3    3    0    0 -0.42933585407E+02 -0.84251037015E+02 -0.60907500403E+03  0.62893672069E+03  0.12509000000E+03 0.  0.
         25    1    4    4    0    0  0.52068472788E+02  0.45200380928E+02 -0.25957208582E+03  0.29627584466E+03  0.12509000000E+03 0.  0.
<mgrwt>
<rscale>  2 0.44992826E+03</rscale>
<asrwt>0</asrwt>
<pdfrwt beam="1">  1       21 0.58373997E-02 0.44992826E+03</pdfrwt>
<pdfrwt beam="2">  1       21 0.18749483E+00 0.44992826E+03</pdfrwt>
<totfact> 0.29852010E+04</totfact>
</mgrwt>
</event>
<event>
 7    0  0.4770865E-002  0.4521509E+03  0.7546771E-02  0.1027083E+00
         21   -1    0    0  502  501  0.00000000000E+00  0.00000000000E+00  0.28519127156E+03  0.28519127156E+03  0.00000000000E+00 0. -1.
         21   -1    0    0  501  502 -0.00000000000E+00 -0.00000000000E+00 -0.17921341605E+03  0.17921341605E+03  0.00000000000E+00 0. -1.
      99926    2    1    2    0    0  0.00000000000E+00  0.00000000000E+00  0.10597785551E+03  0.46440468762E+03  0.45215086865E+03 0.  0.
      99925    2    3    3    0    0  0.37104670408E+02 -0.42177442805E+02 -0.30953446696E+02  0.27061773534E+03  0.26290711206E+03 0.  0.
         25    1    4    4    0    0 -0.12051343304E+02 -0.35947318378E+02  0.67660722077E+01  0.13088442385E+03  0.12509000000E+03 0.  0.
         25    1    3    3    0    0 -0.37104670408E+02  0.42177442805E+02  0.13693130221E+03  0.19378695227E+03  0.12509000000E+03 0.  0.
         25    1    4    4    0    0  0.49156013712E+02 -0.62301244272E+01 -0.37719518904E+02  0.13973331149E+03  0.12509000000E+03 0.  0.
<mgrwt>
<rscale>  2 0.45215087E+03</rscale>
<asrwt>0</asrwt>
<pdfrwt beam="1">  1       21 0.41939893E-01 0.45215087E+03</pdfrwt>
<pdfrwt beam="2">  1       21 0.26354914E-01 0.45215087E+03</pdfrwt>
<totfact> 0.69409815E+04</totfact>
</mgrwt>
</event>
<event>
 7    0  0.4770865E-002  0.4546165E+03  0.7546771E-02  0.1026354E+00
         21   -1    0    0  502  501  0.00000000000E+00  0.00000000000E+00  0.17346340851E+03  0.17346340851E+03  0.00000000000E+00 0. -1.
         21   -1    0    0  501  502 -0.00000000000E+00 -0.00000000000E+00 -0.29786714882E+03  0.29786714882E+03  0.00000000000E+00 0. -1.
      99926    2    1    2    0    0 -0.14210854715E-13 -0.11102230246E-14 -0.12440374031E+03  0.47133055732E+03  0.45461654574E+03 0.  0.
      99925    2    3    3    0    0  0.10317697972E+03 -0.16357259413E+01 -0.31036765382E+02  0.28421277396E+03  0.26299326101E+03 0.  0.
         25    1    3    3    0    0 -0.10317697972E+03  0.16357259413E+01 -0.93366974926E+02  0.18711778336E+03  0.12509000000E+03 0.  0.
         25    1    4    4    0    0  0.93963702902E+01  0.90281732022E+01 -0.16270143342E+02  0.12681492558E+03  0.12509000000E+03 0.  0.
         25    1    4    4    0    0  0.93780609425E+02 -0.10663899143E+02 -0.14766622040E+02  0.15739784838E+03  0.12509000000E+03 0.  0.
<mgrwt>
<rscale>  2 0.45461655E+03</rscale>
<asrwt>0</asrwt>
<pdfrwt beam="1">  1       21 0.25509325E-01 0.45461655E+03</pdfrwt>
<pdfrwt beam="2">  1       21 0.43803992E-01 0.45461655E+03</pdfrwt>
<totfact> 0.67542136E+04</totfact>
</mgrwt>
</event>
<event>
 7    0  0.4770865E-002  0.4564445E+03  0.7546771E-02  0.1025817E+00
         21   -1    0    0  502  501  0.00000000000E+00  0.00000000000E+00  0.25560405628E+03  0.25560405628E+03  0.00000000000E+00 0.  1.
         21   -1    0    0  501  502 -0.00000000000E+00 -0.00000000000E+00 -0.20377373235E+03  0.20377373235E+03  0.00000000000E+00 0.  1.
      99926    2    1    2    0    0  0.00000000000E+00  0.00000000000E+00  0.51830323929E+02  0.45937778864E+03  0.45644448755E+03 0.  0.
      99925    2    3    3    0    0  0.83226165415E+02  0.26062640720E+02  0.10756109763E+03  0.29702236653E+03  0.26276803581E+03 0.  0.
         25    1    3    3    0    0 -0.83226165415E+02 -0.26062640720E+02 -0.55730773696E+02  0.16235542211E+03  0.12509000000E+03 0.  0.
         25    1    4    4    0    0  0.56758104360E+02 -0.15373804601E+02  0.80381940673E+02  0.15989559333E+03  0.12509000000E+03 0.  0.
         25    1    4    4    0    0  0.26468061055E+02  0.41436445322E+02  0.27179156952E+02  0.13712677320E+03  0.12509000000E+03 0.  0.
<mgrwt>
<rscale>  2 0.45644449E+03</rscale>
<asrwt>0</asrwt>
<pdfrwt beam="1">  1       21 0.37588832E-01 0.45644449E+03</pdfrwt>
<pdfrwt beam="2">  1       21 0.29966725E-01 0.45644449E+03</pdfrwt>
<totfact> 0.67445535E+04</totfact>
</mgrwt>
</event>
<event>
 7    0  0.4770865E-002  0.4252515E+03  0.7546771E-02  0.1035371E+00
         21   -1    0    0  502  501  0.00000000000E+00  0.00000000000E+00  0.39562278313E+02  0.39562278313E+02  0.00000000000E+00 0.  1.
         21   -1    0    0  501  502 -0.00000000000E+00 -0.00000000000E+00 -0.11427477354E+04  0.11427477354E+04  0.00000000000E+00 0.  1.
      99926    2    1    2    0    0  0.00000000000E+00  0.00000000000E+00 -0.11031854571E+04  0.11823100137E+04  0.42525147360E+03 0.  0.
      99925    2    3    3    0    0  0.79977204468E+02 -0.14568369665E+02 -0.67891184906E+03  0.73257209759E+03  0.26292962698E+03 0.  0.
         25    1    4    4    0    0  0.35026111052E+02 -0.11328053745E+02 -0.44276848079E+03  0.46156970106E+03  0.12509000000E+03 0.  0.
         25    1    3    3    0    0 -0.79977204468E+02  0.14568369665E+02 -0.42427360801E+03  0.44973791610E+03  0.12509000000E+03 0.  0.
         25    1    4    4    0    0  0.44951093416E+02 -0.32403159204E+01 -0.23614336827E+03  0.27100239653E+03  0.12509000000E+03 0.  0.
<mgrwt>
<rscale>  2 0.42525147E+03</rscale>
<asrwt>0</asrwt>
<pdfrwt beam="1">  1       21 0.58179817E-02 0.42525147E+03</pdfrwt>
<pdfrwt beam="2">  1       21 0.16805115E+00 0.42525147E+03</pdfrwt>
<totfact> 0.41546280E+04</totfact>
</mgrwt>
</event>
<event>
 7    0  0.4770865E-002  0.4548987E+03  0.7546771E-02  0.1026271E+00
         21   -1    0    0  502  501  0.00000000000E+00  0.00000000000E+00  0.10448772048E+03  0.10448772048E+03  0.00000000000E+00 0.  1.
         21   -1    0    0  501  502 -0.00000000000E+00 -0.00000000000E+00 -0.49511273937E+03  0.49511273937E+03  0.00000000000E+00 0.  1.
      99926    2    1    2    0    0  0.14210854715E-13  0.71054273576E-14 -0.39062501889E+03  0.59960045985E+03  0.45489867671E+03 0.  0.
      99925    2    3    3    0    0 -0.87997726349E+02 -0.61248172349E+02 -0.29375689448E+03  0.40848300883E+03  0.26281232275E+03 0.  0.
         25    1    4    4    0    0 -0.22786203256E+02 -0.44280579030E+02 -0.18855772575E+03  0.23169269470E+03  0.12509000000E+03 0.  0.
         25    1    4    4    0    0 -0.65211523092E+02 -0.16967593320E+02 -0.10519916873E+03  0.17679031413E+03  0.12509000000E+03 0.  0.
         25    1    3    3    0    0  0.87997726349E+02  0.61248172349E+02 -0.96868124407E+02  0.19111745102E+03  0.12509000000E+03 0.  0.
<mgrwt>
<rscale>  2 0.45489868E+03</rscale>
<asrwt>0</asrwt>
<pdfrwt beam="1">  1       21 0.15365841E-01 0.45489868E+03</pdfrwt>
<pdfrwt beam="2">  1       21 0.72810697E-01 0.45489868E+03</pdfrwt>
<totfact> 0.58749887E+04</totfact>
</mgrwt>
</event>
<event>
 7    0  0.4770865E-002  0.4244364E+03  0.7546771E-02  0.1035632E+00
         21   -1    0    0  502  501  0.00000000000E+00  0.00000000000E+00  0.59545802833E+02  0.59545802833E+02  0.00000000000E+00 0.  1.
         21   -1    0    0  501  502 -0.00000000000E+00 -0.00000000000E+00 -0.75633466713E+03  0.75633466713E+03  0.00000000000E+00 0.  1.
      99926    2    1    2    0    0  0.55511151231E-16  0.00000000000E+00 -0.69678886430E+03  0.81588046996E+03  0.42443635549E+03 0.  0.
      99925    2    3    3    0    0 -0.38736943396E+00 -0.76259951075E+02 -0.39810940589E+03  0.48320546765E+03  0.26302223235E+03 0.  0.
         25    1    4    4    0    0  0.16672245647E+02 -0.49803093528E+02 -0.14167875682E+03  0.19615985862E+03  0.12509000000E+03 0.  0.
         25    1    3    3    0    0  0.38736943396E+00  0.76259951075E+02 -0.29867945840E+03  0.33267500232E+03  0.12509000000E+03 0.  0.
         25    1    4    4    0    0 -0.17059615081E+02 -0.26456857546E+02 -0.25643064907E+03  0.28704560902E+03  0.12509000000E+03 0.  0.
<mgrwt>
<rscale>  2 0.42443636E+03</rscale>
<asrwt>0</asrwt>
<pdfrwt beam="1">  1       21 0.87567356E-02 0.42443636E+03</pdfrwt>
<pdfrwt beam="2">  1       21 0.11122569E+00 0.42443636E+03</pdfrwt>
<totfact> 0.60195124E+04</totfact>
</mgrwt>
</event>
<event>
 6    0  0.4770865E-002  0.4563202E+03  0.7546771E-02  0.1025854E+00
         21   -1    0    0  502  501  0.00000000000E+00  0.00000000000E+00  0.18526406820E+04  0.18526406820E+04  0.00000000000E+00 0.  1.
         21   -1    0    0  501  502 -0.00000000000E+00 -0.00000000000E+00 -0.28098824889E+02  0.28098824889E+02  0.00000000000E+00 0.  1.
      99926    2    1    2    0    0  0.00000000000E+00 -0.35527136788E-14  0.18245418571E+04  0.18807395068E+04  0.45632017753E+03 0.  0.
         25    1    3    3    0    0  0.14078312683E+02  0.22273990564E+02  0.22322610042E+03  0.25723866263E+03  0.12509000000E+03 0.  0.
         25    1    3    3    0    0  0.13601521931E+02  0.28555787910E+02  0.71928314816E+03  0.73076411362E+03  0.12509000000E+03 0.  0.
         25    1    3    3    0    0 -0.27679834614E+02 -0.50829778474E+02  0.88203260849E+03  0.89273673060E+03  0.12509000000E+03 0.  0.
<mgrwt>
<rscale>  2 0.45632018E+03</rscale>
<asrwt>0</asrwt>
<pdfrwt beam="1">  1       21 0.27244708E+00 0.45632018E+03</pdfrwt>
<pdfrwt beam="2">  1       21 0.41321814E-02 0.45632018E+03</pdfrwt>
<totfact> 0.15595840E+04</totfact>
</mgrwt>
</event>
<event>
 7    0  0.4770865E-002  0.4572510E+03  0.7546771E-02  0.1025582E+00
         21   -1    0    0  502  501  0.00000000000E+00  0.00000000000E+00  0.33662497983E+03  0.33662497983E+03  0.00000000000E+00 0.  1.
         21   -1    0    0  501  502 -0.00000000000E+00 -0.00000000000E+00 -0.15527555142E+03  0.15527555142E+03  0.00000000000E+00 0.  1.
      99926    2    1    2    0    0  0.00000000000E+00  0.00000000000E+00  0.18134942841E+03  0.49190053125E+03  0.45725104424E+03 0.  0.
      99925    2    3    3    0    0  0.71767144695E+02 -0.58763435630E+01  0.21093396447E+03  0.34456483515E+03  0.26276745191E+03 0.  0.
         25    1    4    4    0    0  0.38561875473E+01 -0.25035226210E+02  0.83133712752E+02  0.15231662756E+03  0.12509000000E+03 0.  0.
         25    1    4    4    0    0  0.67910957147E+02  0.19158882647E+02  0.12780025172E+03  0.19224820760E+03  0.12509000000E+03 0.  0.
         25    1    3    3    0    0 -0.71767144695E+02  0.58763435630E+01 -0.29584536057E+02  0.14733569610E+03  0.12509000000E+03 0.  0.
<mgrwt>
<rscale>  2 0.45725104E+03</rscale>
<asrwt>0</asrwt>
<pdfrwt beam="1">  1       21 0.49503673E-01 0.45725104E+03</pdfrwt>
<pdfrwt beam="2">  1       21 0.22834640E-01 0.45725104E+03</pdfrwt>
<totfact> 0.64679899E+04</totfact>
</mgrwt>
</event>
<event>
 7    0  0.4770865E-002  0.4527461E+03  0.7546771E-02  0.1026906E+00
         21   -1    0    0  502  501  0.00000000000E+00  0.00000000000E+00  0.80709391921E+02  0.80709391921E+02  0.00000000000E+00 0.  1.
         21   -1    0    0  501  502 -0.00000000000E+00 -0.00000000000E+00 -0.63492943488E+03  0.63492943488E+03  0.00000000000E+00 0.  1.
      99926    2    1    2    0    0  0.00000000000E+00 -0.44408920985E-15 -0.55422004296E+03  0.71563882680E+03  0.45274614787E+03 0.  0.
      99925    2    3    3    0    0 -0.33088862218E+02  0.30137347914E+01 -0.18191741208E+03  0.32148059403E+03  0.26296743547E+03 0.  0.
         25    1    3    3    0    0  0.33088862218E+02 -0.30137347914E+01 -0.37230263089E+03  0.39415823278E+03  0.12509000000E+03 0.  0.
         25    1    4    4    0    0 -0.37704818969E+02  0.16288810464E+01 -0.13478183410E+03  0.18771776030E+03  0.12509000000E+03 0.  0.
         25    1    4    4    0    0  0.46159567509E+01  0.13848537450E+01 -0.47135577974E+02  0.13376283373E+03  0.12509000000E+03 0.  0.
<mgrwt>
<rscale>  2 0.45274615E+03</rscale>
<asrwt>0</asrwt>
<pdfrwt beam="1">  1       21 0.11869029E-01 0.45274615E+03</pdfrwt>
<pdfrwt beam="2">  1       21 0.93371973E-01 0.45274615E+03</pdfrwt>
<totfact> 0.52995481E+04</totfact>
</mgrwt>
</event>
<event>
 7    0  0.4770865E-002  0.4472990E+03  0.7546771E-02  0.1028531E+00
         21   -1    0    0  502  501  0.00000000000E+00  0.00000000000E+00  0.27296363332E+03  0.27296363332E+03  0.00000000000E+00 0.  1.
         21   -1    0    0  501  502 -0.00000000000E+00 -0.00000000000E+00 -0.18324456087E+03  0.18324456087E+03  0.00000000000E+00 0.  1.
      99926    2    1    2    0    0  0.71054273576E-14  0.00000000000E+00  0.89719072453E+02  0.45620819418E+03  0.44729901015E+03 0.  0.
      99925    2    3    3    0    0 -0.62965426859E+02  0.82712259179E+02  0.36855940019E+02  0.28518778117E+03  0.26299761865E+03 0.  0.
         25    1    4    4    0    0 -0.40768022365E+02  0.71833919722E+02 -0.77569179008E+01  0.15009937224E+03  0.12509000000E+03 0.  0.
         25    1    4    4    0    0 -0.22197404493E+02  0.10878339457E+02  0.44612857920E+02  0.13508840893E+03  0.12509000000E+03 0.  0.
         25    1    3    3    0    0  0.62965426859E+02 -0.82712259179E+02  0.52863132434E+02  0.17102041302E+03  0.12509000000E+03 0.  0.
<mgrwt>
<rscale>  2 0.44729901E+03</rscale>
<asrwt>0</asrwt>
<pdfrwt beam="1">  1       21 0.40141711E-01 0.44729901E+03</pdfrwt>
<pdfrwt beam="2">  1       21 0.26947730E-01 0.44729901E+03</pdfrwt>
<totfact> 0.72823856E+04</totfact>
</mgrwt>
</event>
<event>
 7    0  0.4770865E-002  0.4686721E+03  0.7546771E-02  0.1022296E+00
         21   -1    0    0  502  501  0.00000000000E+00  0.00000000000E+00  0.10592817521E+03  0.10592817521E+03  0.00000000000E+00 0. -1.
         21   -1    0    0  501  502 -0.00000000000E+00 -0.00000000000E+00 -0.51840198528E+03  0.51840198528E+03  0.00000000000E+00 0. -1.
      99926    2    1    2    0    0 -0.14210854715E-13  0.00000000000E+00 -0.41247381007E+03  0.62433016049E+03  0.46867206585E+03 0.  0.
      99925    2    3    3    0    0  0.11783682933E+03  0.35943517716E+02 -0.28833109413E+03  0.40930370437E+03  0.26309170979E+03 0.  0.
         25    1    4    4    0    0  0.58647185994E+02 -0.11440005438E+02 -0.18043758842E+03  0.22754251815E+03  0.12509000000E+03 0.  0.
         25    1    3    3    0    0 -0.11783682933E+03 -0.35943517716E+02 -0.12414271594E+03  0.21502645612E+03  0.12509000000E+03 0.  0.
         25    1    4    4    0    0  0.59189643332E+02  0.47383523155E+02 -0.10789350570E+03  0.18176118622E+03  0.12509000000E+03 0.  0.
<mgrwt>
<rscale>  2 0.46867207E+03</rscale>
<asrwt>0</asrwt>
<pdfrwt beam="1">  1       21 0.15577673E-01 0.46867207E+03</pdfrwt>
<pdfrwt beam="2">  1       21 0.76235585E-01 0.46867207E+03</pdfrwt>
<totfact> 0.51424517E+04</totfact>
</mgrwt>
</event>
<event>
 7    0  0.4770865E-002  0.4507743E+03  0.7546771E-02  0.1027491E+00
         21   -1    0    0  502  501  0.00000000000E+00  0.00000000000E+00  0.10872542088E+03  0.10872542088E+03  0.00000000000E+00 0.  1.
         21   -1    0    0  501  502 -0.00000000000E+00 -0.00000000000E+00 -0.46722627378E+03  0.46722627378E+03  0.00000000000E+00 0.  1.
      99926    2    1    2    0    0  0.00000000000E+00  0.00000000000E+00 -0.35850085290E+03  0.57595169467E+03  0.45077432609E+03 0.  0.
      99925    2    3    3    0    0 -0.73713380112E+02  0.75359997621E+02 -0.19011933939E+03  0.34119089334E+03  0.26296971468E+03 0.  0.
         25    1    3    3    0    0  0.73713380112E+02 -0.75359997621E+02 -0.16838151351E+03  0.23476080133E+03  0.12509000000E+03 0.  0.
         25    1    4    4    0    0  0.36712190466E+01  0.44689158313E+02 -0.83277656548E+02  0.15682243111E+03  0.12509000000E+03 0.  0.
         25    1    4    4    0    0 -0.77384599159E+02  0.30670839308E+02 -0.10684168284E+03  0.18436846222E+03  0.12509000000E+03 0.  0.
<mgrwt>
<rscale>  2 0.45077433E+03</rscale>
<asrwt>0</asrwt>
<pdfrwt beam="1">  1       21 0.15989033E-01 0.45077433E+03</pdfrwt>
<pdfrwt beam="2">  1       21 0.68709745E-01 0.45077433E+03</pdfrwt>
<totfact> 0.62236898E+04</totfact>
</mgrwt>
</event>
<event>
 7    0  0.4770865E-002  0.4596773E+03  0.7546771E-02  0.1024875E+00
         21   -1    0    0  502  501  0.00000000000E+00  0.00000000000E+00  0.18774152039E+03  0.18774152039E+03  0.00000000000E+00 0. -1.
         21   -1    0    0  501  502 -0.00000000000E+00 -0.00000000000E+00 -0.28137520983E+03  0.28137520983E+03  0.00000000000E+00 0. -1.
      99926    2    1    2    0    0  0.35527136788E-14  0.00000000000E+00 -0.93633689439E+02  0.46911673022E+03  0.45967732028E+03 0.  0.
      99925    2    3    3    0    0 -0.30624603712E+02  0.11311573606E+03 -0.65604222108E+02  0.29543254777E+03  0.26314148328E+03 0.  0.
         25    1    4    4    0    0 -0.22071194180E+02  0.41845327828E+02 -0.70390250906E+02  0.15113062097E+03  0.12509000000E+03 0.  0.
         25    1    4    4    0    0 -0.85534095317E+01  0.71270408230E+02  0.47860287978E+01  0.14430192679E+03  0.12509000000E+03 0.  0.
         25    1    3    3    0    0  0.30624603712E+02 -0.11311573606E+03 -0.28029467330E+02  0.17368418246E+03  0.12509000000E+03 0.  0.
<mgrwt>
<rscale>  2 0.45967732E+03</rscale>
<asrwt>0</asrwt>
<pdfrwt beam="1">  1       21 0.27609048E-01 0.45967732E+03</pdfrwt>
<pdfrwt beam="2">  1       21 0.41378707E-01 0.45967732E+03</pdfrwt>
<totfact> 0.65053181E+04</totfact>
</mgrwt>
</event>
<event>
 7    0  0.4770865E-002  0.4386411E+03  0.7546771E-02  0.1031165E+00
         21   -1    0    0  502  501  0.00000000000E+00  0.00000000000E+00  0.37207386504E+03  0.37207386504E+03  0.00000000000E+00 0. -1.
         21   -1    0    0  501  502 -0.00000000000E+00 -0.00000000000E+00 -0.12927945565E+03  0.12927945565E+03  0.00000000000E+00 0. -1.
      99926    2    1    2    0    0  0.00000000000E+00  0.00000000000E+00  0.24279440939E+03  0.50135332069E+03  0.43864111406E+03 0.  0.
      99925    2    3    3    0    0 -0.42309851111E+02  0.35677594836E+02  0.24620108776E+03  0.36452449394E+03  0.26305915074E+03 0.  0.
         25    1    3    3    0    0  0.42309851111E+02 -0.35677594836E+02 -0.34066783757E+01  0.13682882676E+03  0.12509000000E+03 0.  0.
         25    1    4    4    0    0 -0.62162449372E+02  0.20248472659E+02  0.13379918331E+03  0.19448367621E+03  0.12509000000E+03 0.  0.
         25    1    4    4    0    0  0.19852598261E+02  0.15429122176E+02  0.11240190446E+03  0.17004081773E+03  0.12509000000E+03 0.  0.
<mgrwt>
<rscale>  2 0.43864111E+03</rscale>
<asrwt>0</asrwt>
<pdfrwt beam="1">  1       21 0.54716744E-01 0.43864111E+03</pdfrwt>
<pdfrwt beam="2">  1       21 0.19011685E-01 0.43864111E+03</pdfrwt>
<totfact> 0.74372056E+04</totfact>
</mgrwt>
</event>
<event>
 7    0  0.4770865E-002  0.4570800E+03  0.7546771E-02  0.1025632E+00
         21   -1    0    0  502  501  0.00000000000E+00  0.00000000000E+00  0.17269841021E+03  0.17269841021E+03  0.00000000000E+00 0. -1.
         21   -1    0    0  501  502 -0.00000000000E+00 -0.00000000000E+00 -0.30243780947E+03  0.30243780947E+03  0.00000000000E+00 0. -1.
      99926    2    1    2    0    0  0.35527136788E-14  0.00000000000E+00 -0.12973939926E+03  0.47513621968E+03  0.45707998811E+03 0.  0.
      99925    2    3    3    0    0 -0.30426080264E+02  0.50535285359E+02 -0.18418699093E+03  0.32650375430E+03  0.26305948475E+03 0.  0.
         25    1    3    3    0    0  0.30426080264E+02 -0.50535285359E+02  0.54447591672E+02  0.14863246538E+03  0.12509000000E+03 0.  0.
         25    1    4    4    0    0 -0.42715138142E+02  0.54658495951E+02 -0.11048036218E+03  0.18073614119E+03  0.12509000000E+03 0.  0.
         25    1    4    4    0    0  0.12289057878E+02 -0.41232105921E+01 -0.73706628754E+02  0.14576761311E+03  0.12509000000E+03 0.  0.
<mgrwt>
<rscale>  2 0.45707999E+03</rscale>
<asrwt>0</asrwt>
<pdfrwt beam="1">  1       21 0.25396825E-01 0.45707999E+03</pdfrwt>
<pdfrwt beam="2">  1       21 0.44476148E-01 0.45707999E+03</pdfrwt>
<totfact> 0.65960460E+04</totfact>
</mgrwt>
</event>
<event>
 7    0  0.4770865E-002  0.4696456E+03  0.7546771E-02  0.1022020E+00
         21   -1    0    0  502  501  0.00000000000E+00  0.00000000000E+00  0.23459043760E+03  0.23459043760E+03  0.00000000000E+00 0. -1.
         21   -1    0    0  501  502 -0.00000000000E+00 -0.00000000000E+00 -0.23505539169E+03  0.23505539169E+03  0.00000000000E+00 0. -1.
      99926    2    1    2    0    0  0.14210854715E-13  0.00000000000E+00 -0.46495408855E+00  0.46964582930E+03  0.46964559914E+03 0.  0.
      99925    2    3    3    0    0  0.10454306872E+03 -0.70953642572E+02 -0.18995655946E+02  0.29088742355E+03  0.26132544006E+03 0.  0.
         25    1    3    3    0    0 -0.10454306872E+03  0.70953642572E+02  0.18530701857E+02  0.17875840574E+03  0.12509000000E+03 0.  0.
         25    1    4    4    0    0  0.15308097848E+02 -0.18360570165E+02 -0.16862970910E+02  0.12846523376E+03  0.12509000000E+03 0.  0.
         25    1    4    4    0    0  0.89234970875E+02 -0.52593072406E+02 -0.21326850359E+01  0.16242218979E+03  0.12509000000E+03 0.  0.
<mgrwt>
<rscale>  2 0.46964560E+03</rscale>
<asrwt>0</asrwt>
<pdfrwt beam="1">  1       21 0.34498594E-01 0.46964560E+03</pdfrwt>
<pdfrwt beam="2">  1       21 0.34566969E-01 0.46964560E+03</pdfrwt>
<totfact> 0.60144327E+04</totfact>
</mgrwt>
</event>
<event>
 7    0  0.4770865E-002  0.4515948E+03  0.7546771E-02  0.1027248E+00
         21   -1    0    0  502  501  0.00000000000E+00  0.00000000000E+00  0.28122142373E+02  0.28122142373E+02  0.00000000000E+00 0.  1.
         21   -1    0    0  501  502 -0.00000000000E+00 -0.00000000000E+00 -0.18129655608E+04  0.18129655608E+04  0.00000000000E+00 0.  1.
      99926    2    1    2    0    0  0.00000000000E+00  0.00000000000E+00 -0.17848434184E+04  0.18410877031E+04  0.45159484327E+03 0.  0.
      99925    2    3    3    0    0 -0.65832633319E+02 -0.84637199866E+02 -0.10269510645E+04  0.10654939181E+04  0.26296655569E+03 0.  0.
         25    1    4    4    0    0 -0.44778738989E+02 -0.60277010644E+02 -0.41050856755E+03  0.43566414313E+03  0.12509000000E+03 0.  0.
         25    1    4    4    0    0 -0.21053894330E+02 -0.24360189221E+02 -0.61644249699E+03  0.62982977501E+03  0.12509000000E+03 0.  0.
         25    1    3    3    0    0  0.65832633319E+02  0.84637199866E+02 -0.75789235385E+03  0.77559378500E+03  0.12509000000E+03 0.  0.
<mgrwt>
<rscale>  2 0.45159484E+03</rscale>
<asrwt>0</asrwt>
<pdfrwt beam="1">  1       21 0.41356079E-02 0.45159484E+03</pdfrwt>
<pdfrwt beam="2">  1       21 0.26661266E+00 0.45159484E+03</pdfrwt>
<totfact> 0.16925610E+04</totfact>
</mgrwt>
</event>
<event>
 7    0  0.4770865E-002  0.4456290E+03  0.7546771E-02  0.1029034E+00
         21   -1    0    0  502  501  0.00000000000E+00  0.00000000000E+00  0.50584302741E+03  0.50584302741E+03  0.00000000000E+00 0. -1.
         21   -1    0    0  501  502 -0.00000000000E+00 -0.00000000000E+00 -0.98145663896E+02  0.98145663896E+02  0.00000000000E+00 0. -1.
      99926    2    1    2    0    0  0.00000000000E+00  0.00000000000E+00  0.40769736352E+03  0.60398869131E+03  0.44562899256E+03 0.  0.
      99925    2    3    3    0    0  0.10436390693E+02  0.95906527843E+02  0.20560748285E+03  0.34748370442E+03  0.26298955777E+03 0.  0.
         25    1    3    3    0    0 -0.10436390693E+02 -0.95906527843E+02  0.20208988067E+03  0.25650498689E+03  0.12509000000E+03 0.  0.
         25    1    4    4    0    0 -0.18863682662E+02  0.24993914633E+02  0.12708789848E+03  0.18105075624E+03  0.12509000000E+03 0.  0.
         25    1    4    4    0    0  0.29300073355E+02  0.70912613210E+02  0.78519584366E+02  0.16643294818E+03  0.12509000000E+03 0.  0.
<mgrwt>
<rscale>  2 0.44562899E+03</rscale>
<asrwt>0</asrwt>
<pdfrwt beam="1">  1       21 0.74388679E-01 0.44562899E+03</pdfrwt>
<pdfrwt beam="2">  1       21 0.14433186E-01 0.44562899E+03</pdfrwt>
<totfact> 0.62967035E+04</totfact>
</mgrwt>
</event>
<event>
 7    0  0.4770865E-002  0.4576688E+03  0.7546771E-02  0.1025460E+00
         21   -1    0    0  502  501  0.00000000000E+00  0.00000000000E+00  0.83553568064E+02  0.83553568064E+02  0.00000000000E+00 0.  1.
         21   -1    0    0  501  502 -0.00000000000E+00 -0.00000000000E+00 -0.62672589241E+03  0.62672589241E+03  0.00000000000E+00 0.  1.
      99926    2    1    2    0    0  0.71054273576E-14 -0.71054273576E-14 -0.54317232435E+03  0.71027946047E+03  0.45766880824E+03 0.  0.
      99925    2    3    3    0    0  0.39208398780E+02 -0.49465450189E+02 -0.19042250030E+03  0.33072172342E+03  0.26292964919E+03 0.  0.
         25    1    3    3    0    0 -0.39208398780E+02  0.49465450189E+02 -0.35274982404E+03  0.37955773706E+03  0.12509000000E+03 0.  0.
         25    1    4    4    0    0 -0.10810997885E+02 -0.16280401667E+01 -0.69744806098E+02  0.14363625680E+03  0.12509000000E+03 0.  0.
         25    1    4    4    0    0  0.50019396666E+02 -0.47837410022E+02 -0.12067769421E+03  0.18708546662E+03  0.12509000000E+03 0.  0.
<mgrwt>
<rscale>  2 0.45766881E+03</rscale>
<asrwt>0</asrwt>
<pdfrwt beam="1">  1       21 0.12287289E-01 0.45766881E+03</pdfrwt>
<pdfrwt beam="2">  1       21 0.92165574E-01 0.45766881E+03</pdfrwt>
<totfact> 0.51263507E+04</totfact>
</mgrwt>
</event>
<event>
 7    0  0.4770865E-002  0.4490910E+03  0.7546771E-02  0.1027993E+00
         21   -1    0    0  502  501  0.00000000000E+00  0.00000000000E+00  0.91655384659E+02  0.91655384659E+02  0.00000000000E+00 0. -1.
         21   -1    0    0  501  502 -0.00000000000E+00 -0.00000000000E+00 -0.55011155925E+03  0.55011155925E+03  0.00000000000E+00 0. -1.
      99926    2    1    2    0    0  0.00000000000E+00  0.00000000000E+00 -0.45845617459E+03  0.64176694391E+03  0.44909102226E+03 0.  0.
      99925    2    3    3    0    0 -0.95333288657E+02 -0.26000202161E+02 -0.35072125196E+03  0.44936432415E+03  0.26297994752E+03 0.  0.
         25    1    4    4    0    0 -0.56177521681E+02  0.50978667394E+01 -0.23328287179E+03  0.27064794209E+03  0.12509000000E+03 0.  0.
         25    1    3    3    0    0  0.95333288657E+02  0.26000202161E+02 -0.10773492263E+03  0.19240261976E+03  0.12509000000E+03 0.  0.
         25    1    4    4    0    0 -0.39155766976E+02 -0.31098068900E+02 -0.11743838018E+03  0.17871638206E+03  0.12509000000E+03 0.  0.
<mgrwt>
<rscale>  2 0.44909102E+03</rscale>
<asrwt>0</asrwt>
<pdfrwt beam="1">  1       21 0.13478733E-01 0.44909102E+03</pdfrwt>
<pdfrwt beam="2">  1       21 0.80898761E-01 0.44909102E+03</pdfrwt>
<totfact> 0.58875798E+04</totfact>
</mgrwt>
</event>
<event>
 7    0  0.4770865E-002  0.4626824E+03  0.7546771E-02  0.1024006E+00
         21   -1    0    0  502  501  0.00000000000E+00  0.00000000000E+00  0.13152042646E+04  0.13152042646E+04  0.00000000000E+00 0. -1.
         21   -1    0    0  501  502 -0.00000000000E+00 -0.00000000000E+00 -0.40692348995E+02  0.40692348995E+02  0.00000000000E+00 0. -1.
      99926    2    1    2    0    0  0.00000000000E+00 -0.14210854715E-13  0.12745119156E+04  0.13558966136E+04  0.46268240051E+03 0.  0.
      99925    2    3    3    0    0 -0.72382139279E+01 -0.10543964909E+03  0.96458932308E+03  0.10053692498E+04  0.26299211930E+03 0.  0.
         25    1    4    4    0    0  0.14803061950E+02 -0.14858165290E+02  0.40050629576E+03  0.42011033880E+03  0.12509000000E+03 0.  0.
         25    1    4    4    0    0 -0.22041275878E+02 -0.90581483804E+02  0.56408302732E+03  0.58525891096E+03  0.12509000000E+03 0.  0.
         25    1    3    3    0    0  0.72382139279E+01  0.10543964909E+03  0.30992259252E+03  0.35052736384E+03  0.12509000000E+03 0.  0.
<mgrwt>
<rscale>  2 0.46268240E+03</rscale>
<asrwt>0</asrwt>
<pdfrwt beam="1">  1       21 0.19341236E+00 0.46268240E+03</pdfrwt>
<pdfrwt beam="2">  1       21 0.59841698E-02 0.46268240E+03</pdfrwt>
<totfact> 0.25946985E+04</totfact>
</mgrwt>
</event>
<event>
 7    0  0.4770865E-002  0.4536126E+03  0.7546771E-02  0.1026650E+00
         21   -1    0    0  502  501  0.00000000000E+00  0.00000000000E+00  0.65605660949E+02  0.65605660949E+02  0.00000000000E+00 0. -1.
         21   -1    0    0  501  502 -0.00000000000E+00 -0.00000000000E+00 -0.78409557213E+03  0.78409557213E+03  0.00000000000E+00 0. -1.
      99926    2    1    2    0    0  0.13322676296E-14 -0.14210854715E-13 -0.71848991118E+03  0.84970123308E+03  0.45361264646E+03 0.  0.
      99925    2    3    3    0    0 -0.27656407269E+01 -0.77197230189E+02 -0.60440242339E+03  0.66360844953E+03  0.26288176767E+03 0.  0.
         25    1    3    3    0    0  0.27656407269E+01  0.77197230189E+02 -0.11408748779E+03  0.18609278355E+03  0.12509000000E+03 0.  0.
         25    1    4    4    0    0  0.15515398730E+02 -0.17240353609E+02 -0.21485925068E+03  0.24969974588E+03  0.12509000000E+03 0.  0.
         25    1    4    4    0    0 -0.18281039457E+02 -0.59956876580E+02 -0.38954317271E+03  0.41390870365E+03  0.12509000000E+03 0.  0.
<mgrwt>
<rscale>  2 0.45361265E+03</rscale>
<asrwt>0</asrwt>
<pdfrwt beam="1">  1       21 0.96478921E-02 0.45361265E+03</pdfrwt>
<pdfrwt beam="2">  1       21 0.11530816E+00 0.45361265E+03</pdfrwt>
<totfact> 0.45950799E+04</totfact>
</mgrwt>
</event>
<event>
 7    0  0.4770865E-002  0.4547752E+03  0.7546771E-02  0.1026308E+00
         21   -1    0    0  502  501  0.00000000000E+00  0.00000000000E+00  0.22290260131E+04  0.22290260131E+04  0.00000000000E+00 0.  1.
         21   -1    0    0  501  502 -0.00000000000E+00 -0.00000000000E+00 -0.23196284657E+02  0.23196284657E+02  0.00000000000E+00 0.  1.
      99926    2    1    2    0    0  0.00000000000E+00  0.00000000000E+00  0.22058297285E+04  0.22522222978E+04  0.45477520560E+03 0.  0.
      99925    2    3    3    0    0 -0.71324669944E+02  0.82358591305E+02  0.12413324824E+04  0.12735637302E+04  0.26303630347E+03 0.  0.
         25    1    4    4    0    0 -0.74774063348E+02  0.28804509431E+02  0.63745812117E+03  0.65453894052E+03  0.12509000000E+03 0.  0.
         25    1    4    4    0    0  0.34493934039E+01  0.53554081874E+02  0.60387436124E+03  0.61902478970E+03  0.12509000000E+03 0.  0.
         25    1    3    3    0    0  0.71324669944E+02 -0.82358591305E+02  0.96449724605E+03  0.97865856755E+03  0.12509000000E+03 0.  0.
<mgrwt>
<rscale>  2 0.45477521E+03</rscale>
<asrwt>0</asrwt>
<pdfrwt beam="1">  1       21 0.32779780E+00 0.45477521E+03</pdfrwt>
<pdfrwt beam="2">  1       21 0.34112199E-02 0.45477521E+03</pdfrwt>
<totfact> 0.10029045E+04</totfact>
</mgrwt>
</event>
<event>
 7    0  0.4770865E-002  0.4765433E+03  0.7546771E-02  0.1020090E+00
         21   -1    0    0  502  501  0.00000000000E+00  0.00000000000E+00  0.89568182370E+03  0.89568182370E+03  0.00000000000E+00 0.  1.
         21   -1    0    0  501  502 -0.00000000000E+00 -0.00000000000E+00 -0.63385657665E+02  0.63385657665E+02  0.00000000000E+00 0.  1.
      99926    2    1    2    0    0  0.00000000000E+00  0.00000000000E+00  0.83229616603E+03  0.95906748136E+03  0.47654330948E+03 0.  0.
      99925    2    3    3    0    0 -0.79753680847E+02  0.10077182827E+03  0.45049473991E+03  0.53724352748E+03  0.26300092423E+03 0.  0.
         25    1    4    4    0    0 -0.58419090356E+02  0.13818410282E+02  0.20530429972E+03  0.24779245784E+03  0.12509000000E+03 0.  0.
         25    1    3    3    0    0  0.79753680847E+02 -0.10077182827E+03  0.38180142612E+03  0.42182395388E+03  0.12509000000E+03 0.  0.
         25    1    4    4    0    0 -0.21334590491E+02  0.86953417990E+02  0.24519044019E+03  0.28945106964E+03  0.12509000000E+03 0.  0.
<mgrwt>
<rscale>  2 0.47654331E+03</rscale>
<asrwt>0</asrwt>
<pdfrwt beam="1">  1       21 0.13171791E+00 0.47654331E+03</pdfrwt>
<pdfrwt beam="2">  1       21 0.93214208E-02 0.47654331E+03</pdfrwt>
<totfact> 0.34571872E+04</totfact>
</mgrwt>
</event>
<event>
 7    0  0.4770865E-002  0.4599600E+03  0.7546771E-02  0.1024793E+00
         21   -1    0    0  502  501  0.00000000000E+00  0.00000000000E+00  0.81371363013E+02  0.81371363013E+02  0.00000000000E+00 0.  1.
         21   -1    0    0  501  502 -0.00000000000E+00 -0.00000000000E+00 -0.64999291512E+03  0.64999291512E+03  0.00000000000E+00 0.  1.
      99926    2    1    2    0    0 -0.88817841970E-15 -0.71054273576E-14 -0.56862155211E+03  0.73136427813E+03  0.45996003936E+03 0.  0.
      99925    2    3    3    0    0  0.53780803221E+01 -0.61258973767E+02 -0.51622636972E+03  0.58245373837E+03  0.26264254593E+03 0.  0.
         25    1    3    3    0    0 -0.53780803221E+01  0.61258973767E+02 -0.52395182386E+02  0.14891053976E+03  0.12509000000E+03 0.  0.
         25    1    4    4    0    0 -0.20546402815E+02 -0.63453273790E+02 -0.25979307107E+03  0.29595340934E+03  0.12509000000E+03 0.  0.
         25    1    4    4    0    0  0.25924483137E+02  0.21943000234E+01 -0.25643329865E+03  0.28650032903E+03  0.12509000000E+03 0.  0.
<mgrwt>
<rscale>  2 0.45996004E+03</rscale>
<asrwt>0</asrwt>
<pdfrwt beam="1">  1       21 0.11966377E-01 0.45996004E+03</pdfrwt>
<pdfrwt beam="2">  1       21 0.95587192E-01 0.45996004E+03</pdfrwt>
<totfact> 0.49282527E+04</totfact>
</mgrwt>
</event>
<event>
 7    0  0.4770865E-002  0.4608675E+03  0.7546771E-02  0.1024530E+00
         21   -1    0    0  502  501  0.00000000000E+00  0.00000000000E+00  0.22081691945E+03  0.22081691945E+03  0.00000000000E+00 0.  1.
         21   -1    0    0  501  502 -0.00000000000E+00 -0.00000000000E+00 -0.24046935809E+03  0.24046935809E+03  0.00000000000E+00 0.  1.
      99926    2    1    2    0    0  0.00000000000E+00  0.71054273576E-14 -0.19652438645E+02  0.46128627754E+03  0.46086745546E+03 0.  0.
      99925    2    3    3    0    0 -0.11489367156E+03 -0.26207871065E+02  0.15800708411E+01  0.28812237879E+03  0.26291557631E+03 0.  0.
         25    1    4    4    0    0 -0.24541485649E+02 -0.38396054355E+02 -0.45878058565E+01  0.13321072618E+03  0.12509000000E+03 0.  0.
         25    1    3    3    0    0  0.11489367156E+03  0.26207871065E+02 -0.21232509486E+02  0.17316389875E+03  0.12509000000E+03 0.  0.
         25    1    4    4    0    0 -0.90352185915E+02  0.12188183290E+02  0.61678766976E+01  0.15491165261E+03  0.12509000000E+03 0.  0.
<mgrwt>
<rscale>  2 0.46086746E+03</rscale>
<asrwt>0</asrwt>
<pdfrwt beam="1">  1       21 0.32473077E-01 0.46086746E+03</pdfrwt>
<pdfrwt beam="2">  1       21 0.35363141E-01 0.46086746E+03</pdfrwt>
<totfact> 0.64991387E+04</totfact>
</mgrwt>
</event>
<event>
 7    0  0.4770865E-002  0.4553737E+03  0.7546771E-02  0.1026132E+00
         21   -1    0    0  502  501  0.00000000000E+00  0.00000000000E+00  0.31861108470E+03  0.31861108470E+03  0.00000000000E+00 0.  1.
         21   -1    0    0  501  502 -0.00000000000E+00 -0.00000000000E+00 -0.16271027635E+03  0.16271027635E+03  0.00000000000E+00 0.  1.
      99926    2    1    2    0    0 -0.71054273576E-14  0.00000000000E+00  0.15590080834E+03  0.48132136105E+03  0.45537368233E+03 0.  0.
      99925    2    3    3    0    0  0.44794272113E+02 -0.36539551425E+02 -0.47075815911E+01  0.26969851576E+03  0.26338842504E+03 0.  0.
         25    1    4    4    0    0  0.56663145894E+02 -0.77365249777E+01  0.18285715457E+02  0.13875316721E+03  0.12509000000E+03 0.  0.
         25    1    3    3    0    0 -0.44794272113E+02  0.36539551425E+02  0.16060838993E+03  0.21162284529E+03  0.12509000000E+03 0.  0.
         25    1    4    4    0    0 -0.11868873780E+02 -0.28803026448E+02 -0.22993297048E+02  0.13094534855E+03  0.12509000000E+03 0.  0.
<mgrwt>
<rscale>  2 0.45537368E+03</rscale>
<asrwt>0</asrwt>
<pdfrwt beam="1">  1       21 0.46854571E-01 0.45537368E+03</pdfrwt>
<pdfrwt beam="2">  1       21 0.23927982E-01 0.45537368E+03</pdfrwt>
<totfact> 0.66406846E+04</totfact>
</mgrwt>
</event>
<event>
 7    0  0.4770865E-002  0.4567842E+03  0.7546771E-02  0.1025718E+00
         21   -1    0    0  502  501  0.00000000000E+00  0.00000000000E+00  0.16504798987E+04  0.16504798987E+04  0.00000000000E+00 0.  1.
         21   -1    0    0  501  502 -0.00000000000E+00 -0.00000000000E+00 -0.31604712754E+02  0.31604712754E+02  0.00000000000E+00 0.  1.
      99926    2    1    2    0    0  0.71054273576E-14  0.17763568394E-14  0.16188751860E+04  0.16820846115E+04  0.45678416394E+03 0.  0.
      99925    2    3    3    0    0  0.48906055535E+02  0.14433834665E+02  0.13959837046E+04  0.14214541098E+04  0.26298506580E+03 0.  0.
         25    1    4    4    0    0  0.44642644244E+01 -0.10320515058E+02  0.50991921839E+03  0.52515860468E+03  0.12509000000E+03 0.  0.
         25    1    3    3    0    0 -0.48906055535E+02 -0.14433834665E+02  0.22289148137E+03  0.26063050171E+03  0.12509000000E+03 0.  0.
         25    1    4    4    0    0  0.44441791110E+02  0.24754349723E+02  0.88606448623E+03  0.89629550511E+03  0.12509000000E+03 0.  0.
<mgrwt>
<rscale>  2 0.45678416E+03</rscale>
<asrwt>0</asrwt>
<pdfrwt beam="1">  1       21 0.24271757E+00 0.45678416E+03</pdfrwt>
<pdfrwt beam="2">  1       21 0.46477530E-02 0.45678416E+03</pdfrwt>
<totfact> 0.19367259E+04</totfact>
</mgrwt>
</event>
<event>
 7    0  0.4770865E-002  0.4316971E+03  0.7546771E-02  0.1033325E+00
         21   -1    0    0  502  501  0.00000000000E+00  0.00000000000E+00  0.24788520861E+03  0.24788520861E+03  0.00000000000E+00 0. -1.
         21   -1    0    0  501  502 -0.00000000000E+00 -0.00000000000E+00 -0.18795233329E+03  0.18795233329E+03  0.00000000000E+00 0. -1.
      99926    2    1    2    0    0  0.00000000000E+00  0.00000000000E+00  0.59932875322E+02  0.43583754190E+03  0.43169713155E+03 0.  0.
      99925    2    3    3    0    0  0.10133496816E+02 -0.11081470849E+01 -0.51432011726E+02  0.26804731002E+03  0.26286915535E+03 0.  0.
         25    1    3    3    0    0 -0.10133496816E+02  0.11081470849E+01  0.11136488705E+03  0.16779023188E+03  0.12509000000E+03 0.  0.
         25    1    4    4    0    0  0.36948203542E+01  0.21498618436E+01  0.15286923785E+02  0.12609310743E+03  0.12509000000E+03 0.  0.
         25    1    4    4    0    0  0.64386764615E+01 -0.32580089285E+01 -0.66718935511E+02  0.14195420259E+03  0.12509000000E+03 0.  0.
<mgrwt>
<rscale>  2 0.43169713E+03</rscale>
<asrwt>0</asrwt>
<pdfrwt beam="1">  1       21 0.36453707E-01 0.43169713E+03</pdfrwt>
<pdfrwt beam="2">  1       21 0.27640049E-01 0.43169713E+03</pdfrwt>
<totfact> 0.84649033E+04</totfact>
</mgrwt>
</event>
<event>
 7    0  0.4770865E-002  0.4619388E+03  0.7546771E-02  0.1024220E+00
         21   -1    0    0  502  501  0.00000000000E+00  0.00000000000E+00  0.26394330751E+03  0.26394330751E+03  0.00000000000E+00 0. -1.
         21   -1    0    0  501  502 -0.00000000000E+00 -0.00000000000E+00 -0.20211489513E+03  0.20211489513E+03  0.00000000000E+00 0. -1.
      99926    2    1    2    0    0  0.00000000000E+00  0.17763568394E-14  0.61828412381E+02  0.46605820264E+03  0.46193884408E+03 0.  0.
      99925    2    3    3    0    0  0.91358911477E+02  0.14927139641E+02 -0.37665827144E+02  0.28135335159E+03  0.26300517811E+03 0.  0.
         25    1    4    4    0    0  0.81447414813E+02  0.13773164826E+02 -0.42376553163E+02  0.15577760368E+03  0.12509000000E+03 0.  0.
         25    1    4    4    0    0  0.99114966640E+01  0.11539748158E+01  0.47107260190E+01  0.12557574791E+03  0.12509000000E+03 0.  0.
         25    1    3    3    0    0 -0.91358911477E+02 -0.14927139641E+02  0.99494239525E+02  0.18470485105E+03  0.12509000000E+03 0.  0.
<mgrwt>
<rscale>  2 0.46193884E+03</rscale>
<asrwt>0</asrwt>
<pdfrwt beam="1">  1       21 0.38815192E-01 0.46193884E+03</pdfrwt>
<pdfrwt beam="2">  1       21 0.29722779E-01 0.46193884E+03</pdfrwt>
<totfact> 0.64119059E+04</totfact>
</mgrwt>
</event>
<event>
 7    0  0.4770865E-002  0.4594423E+03  0.7546771E-02  0.1024943E+00
         21   -1    0    0  502  501  0.00000000000E+00  0.00000000000E+00  0.37083265992E+03  0.37083265992E+03  0.00000000000E+00 0. -1.
         21   -1    0    0  501  502 -0.00000000000E+00 -0.00000000000E+00 -0.14230623210E+03  0.14230623210E+03  0.00000000000E+00 0. -1.
      99926    2    1    2    0    0 -0.14210854715E-13  0.71054273576E-14  0.22852642782E+03  0.51313889201E+03  0.45944226437E+03 0.  0.
      99925    2    3    3    0    0  0.10237016093E+03 -0.45227754261E+02  0.10391948415E+03  0.30409440366E+03  0.26296187470E+03 0.  0.
         25    1    4    4    0    0  0.26897225126E+02 -0.52554363322E+02  0.64355677590E+02  0.15256009689E+03  0.12509000000E+03 0.  0.
         25    1    3    3    0    0 -0.10237016093E+03  0.45227754261E+02  0.12460694367E+03  0.20904448836E+03  0.12509000000E+03 0.  0.
         25    1    4    4    0    0  0.75472935800E+02  0.73266090618E+01  0.39563806561E+02  0.15153430677E+03  0.12509000000E+03 0.  0.
<mgrwt>
<rscale>  2 0.45944226E+03</rscale>
<asrwt>0</asrwt>
<pdfrwt beam="1">  1       21 0.54534214E-01 0.45944226E+03</pdfrwt>
<pdfrwt beam="2">  1       21 0.20927387E-01 0.45944226E+03</pdfrwt>
<totfact> 0.62137435E+04</totfact>
</mgrwt>
</event>
<event>
 7    0  0.4770865E-002  0.4084923E+03  0.7546771E-02  0.1040878E+00
         21   -1    0    0  502  501  0.00000000000E+00  0.00000000000E+00  0.46584374802E+03  0.46584374802E+03  0.00000000000E+00 0. -1.
         21   -1    0    0  501  502 -0.00000000000E+00 -0.00000000000E+00 -0.89550371194E+02  0.89550371194E+02  0.00000000000E+00 0. -1.
      99926    2    1    2    0    0 -0.71054273576E-14 -0.17763568394E-14  0.37629337683E+03  0.55539411921E+03  0.40849225478E+03 0.  0.
      99925    2    3    3    0    0  0.42290314047E+02 -0.14860689168E+02  0.30276509195E+03  0.40352829843E+03  0.26298113238E+03 0.  0.
         25    1    4    4    0    0  0.94332261458E+01  0.48754103737E+01  0.92712200610E+02  0.15606349869E+03  0.12509000000E+03 0.  0.
         25    1    4    4    0    0  0.32857087901E+02 -0.19736099541E+02  0.21005289134E+03  0.24746479974E+03  0.12509000000E+03 0.  0.
         25    1    3    3    0    0 -0.42290314047E+02  0.14860689168E+02  0.73528284876E+02  0.15186582078E+03  0.12509000000E+03 0.  0.
<mgrwt>
<rscale>  2 0.40849225E+03</rscale>
<asrwt>0</asrwt>
<pdfrwt beam="1">  1       21 0.68506432E-01 0.40849225E+03</pdfrwt>
<pdfrwt beam="2">  1       21 0.13169172E-01 0.40849225E+03</pdfrwt>
<totfact> 0.90481422E+04</totfact>
</mgrwt>
</event>
<event>
 7    0  0.4770865E-002  0.4583006E+03  0.7546771E-02  0.1025275E+00
         21   -1    0    0  502  501  0.00000000000E+00  0.00000000000E+00  0.10599766351E+04  0.10599766351E+04  0.00000000000E+00 0. -1.
         21   -1    0    0  501  502 -0.00000000000E+00 -0.00000000000E+00 -0.49538703448E+02  0.49538703448E+02  0.00000000000E+00 0. -1.
      99926    2    1    2    0    0  0.14210854715E-13  0.17763568394E-14  0.10104379316E+04  0.11095153385E+04  0.45830063577E+03 0.  0.
      99925    2    3    3    0    0 -0.10189795148E+03 -0.14816693301E+02  0.76483064222E+03  0.81528213913E+03  0.26289984440E+03 0.  0.
         25    1    4    4    0    0 -0.85655754994E+02 -0.46004335997E+01  0.34686522819E+03  0.37857768949E+03  0.12509000000E+03 0.  0.
         25    1    3    3    0    0  0.10189795148E+03  0.14816693301E+02  0.24560728943E+03  0.29423319941E+03  0.12509000000E+03 0.  0.
         25    1    4    4    0    0 -0.16242196490E+02 -0.10216259701E+02  0.41796541403E+03  0.43670444964E+03  0.12509000000E+03 0.  0.
<mgrwt>
<rscale>  2 0.45830064E+03</rscale>
<asrwt>0</asrwt>
<pdfrwt beam="1">  1       21 0.15587890E+00 0.45830064E+03</pdfrwt>
<pdfrwt beam="2">  1       21 0.72851041E-02 0.45830064E+03</pdfrwt>
<totfact> 0.34272521E+04</totfact>
</mgrwt>
</event>
<event>
 7    0  0.4770865E-002  0.4525707E+03  0.7546771E-02  0.1026958E+00
         21   -1    0    0  502  501  0.00000000000E+00  0.00000000000E+00  0.14159374942E+03  0.14159374942E+03  0.00000000000E+00 0.  1.
         21   -1    0    0  501  502 -0.00000000000E+00 -0.00000000000E+00 -0.36163365732E+03  0.36163365732E+03  0.00000000000E+00 0.  1.
      99926    2    1    2    0    0  0.00000000000E+00  0.00000000000E+00 -0.22003990789E+03  0.50322740674E+03  0.45257072578E+03 0.  0.
      99925    2    3    3    0    0  0.13415876566E+02 -0.91100136672E+01 -0.16778620064E+02  0.26400860037E+03  0.26297536174E+03 0.  0.
         25    1    4    4    0    0  0.44274113661E+02 -0.19906258568E+02 -0.93178184525E+01  0.13450199296E+03  0.12509000000E+03 0.  0.
         25    1    4    4    0    0 -0.30858237095E+02  0.10796244901E+02 -0.74608016120E+01  0.12950660740E+03  0.12509000000E+03 0.  0.
         25    1    3    3    0    0 -0.13415876566E+02  0.91100136672E+01 -0.20326128783E+03  0.23921880637E+03  0.12509000000E+03 0.  0.
<mgrwt>
<rscale>  2 0.45257073E+03</rscale>
<asrwt>0</asrwt>
<pdfrwt beam="1">  1       21 0.20822610E-01 0.45257073E+03</pdfrwt>
<pdfrwt beam="2">  1       21 0.53181420E-01 0.45257073E+03</pdfrwt>
<totfact> 0.66313989E+04</totfact>
</mgrwt>
</event>
<event>
 7    0  0.4770865E-002  0.4547147E+03  0.7546771E-02  0.1026325E+00
         21   -1    0    0  502  501  0.00000000000E+00  0.00000000000E+00  0.15011319972E+03  0.15011319972E+03  0.00000000000E+00 0. -1.
         21   -1    0    0  501  502 -0.00000000000E+00 -0.00000000000E+00 -0.34434915583E+03  0.34434915583E+03  0.00000000000E+00 0. -1.
      99926    2    1    2    0    0 -0.71054273576E-14  0.00000000000E+00 -0.19423595611E+03  0.49446235555E+03  0.45471465164E+03 0.  0.
      99925    2    3    3    0    0 -0.55448128241E+02 -0.83282650415E+02 -0.17919102811E+03  0.33357620716E+03  0.26296989684E+03 0.  0.
         25    1    3    3    0    0  0.55448128241E+02  0.83282650415E+02 -0.15044928000E+02  0.16088614839E+03  0.12509000000E+03 0.  0.
         25    1    4    4    0    0 -0.32052366205E+01 -0.95017560277E+01 -0.63178897289E+02  0.14049782230E+03  0.12509000000E+03 0.  0.
         25    1    4    4    0    0 -0.52242891620E+02 -0.73780894387E+02 -0.11601213082E+03  0.19307838486E+03  0.12509000000E+03 0.  0.
<mgrwt>
<rscale>  2 0.45471465E+03</rscale>
<asrwt>0</asrwt>
<pdfrwt beam="1">  1       21 0.22075470E-01 0.45471465E+03</pdfrwt>
<pdfrwt beam="2">  1       21 0.50639582E-01 0.45471465E+03</pdfrwt>
<totfact> 0.65810420E+04</totfact>
</mgrwt>
</event>
<event>
 7    0  0.4770865E-002  0.4554873E+03  0.7546771E-02  0.1026098E+00
         21   -1    0    0  502  501  0.00000000000E+00  0.00000000000E+00  0.49545731449E+02  0.49545731449E+02  0.00000000000E+00 0.  1.
         21   -1    0    0  501  502 -0.00000000000E+00 -0.00000000000E+00 -0.10468545664E+04  0.10468545664E+04  0.00000000000E+00 0.  1.
      99926    2    1    2    0    0  0.00000000000E+00 -0.71054273576E-14 -0.99730883499E+03  0.10964002979E+04  0.45548732239E+03 0.  0.
      99925    2    3    3    0    0 -0.13494572754E+02  0.44428162550E+02 -0.87703676372E+03  0.91676498858E+03  0.26288513510E+03 0.  0.
         25    1    4    4    0    0 -0.13308702267E+02 -0.27389805045E+01 -0.31853858977E+03  0.34248936457E+03  0.12509000000E+03 0.  0.
         25    1    3    3    0    0  0.13494572754E+02 -0.44428162550E+02 -0.12027207127E+03  0.17963530930E+03  0.12509000000E+03 0.  0.
         25    1    4    4    0    0 -0.18587048678E+00  0.47167143055E+02 -0.55849817395E+03  0.57427562401E+03  0.12509000000E+03 0.  0.
<mgrwt>
<rscale>  2 0.45548732E+03</rscale>
<asrwt>0</asrwt>
<pdfrwt beam="1">  1       21 0.72861378E-02 0.45548732E+03</pdfrwt>
<pdfrwt beam="2">  1       21 0.15394918E+00 0.45548732E+03</pdfrwt>
<totfact> 0.35484238E+04</totfact>
</mgrwt>
</event>
<event>
 6    0  0.4770865E-002  0.4540035E+03  0.7546771E-02  0.1026535E+00
         21   -1    0    0  502  501  0.00000000000E+00  0.00000000000E+00  0.83515245070E+02  0.83515245070E+02  0.00000000000E+00 0. -1.
         21   -1    0    0  501  502 -0.00000000000E+00 -0.00000000000E+00 -0.61701052376E+03  0.61701052376E+03  0.00000000000E+00 0. -1.
      99926    2    1    2    0    0  0.00000000000E+00 -0.14210854715E-13 -0.53349527869E+03  0.70052576883E+03  0.45400345859E+03 0.  0.
         25    1    3    3    0    0 -0.43468938171E+02 -0.17981660531E+02 -0.14818780660E+03  0.19954954980E+03  0.12509000000E+03 0.  0.
         25    1    3    3    0    0 -0.17996637922E+02  0.85050894083E+02 -0.26241660712E+03  0.30342629641E+03  0.12509000000E+03 0.  0.
         25    1    3    3    0    0  0.61465576093E+02 -0.67069233551E+02 -0.12289086497E+03  0.19754992262E+03  0.12509000000E+03 0.  0.
<mgrwt>
<rscale>  2 0.45400346E+03</rscale>
<asrwt>0</asrwt>
<pdfrwt beam="1">  1       21 0.12281654E-01 0.45400346E+03</pdfrwt>
<pdfrwt beam="2">  1       21 0.90736841E-01 0.45400346E+03</pdfrwt>
<totfact> 0.53291123E+04</totfact>
</mgrwt>
</event>
<event>
 7    0  0.4770865E-002  0.4533046E+03  0.7546771E-02  0.1026741E+00
         21   -1    0    0  502  501  0.00000000000E+00  0.00000000000E+00  0.73813018093E+02  0.73813018093E+02  0.00000000000E+00 0.  1.
         21   -1    0    0  501  502 -0.00000000000E+00 -0.00000000000E+00 -0.69596476176E+03  0.69596476176E+03  0.00000000000E+00 0.  1.
      99926    2    1    2    0    0 -0.35527136788E-14  0.00000000000E+00 -0.62215174367E+03  0.76977777986E+03  0.45330457554E+03 0.  0.
      99925    2    3    3    0    0 -0.24597861711E+02 -0.69495838913E+02 -0.25172071373E+03  0.37190671723E+03  0.26365993662E+03 0.  0.
         25    1    4    4    0    0 -0.32560481241E+02  0.15489462384E+01 -0.10869006320E+03  0.16888937832E+03  0.12509000000E+03 0.  0.
         25    1    4    4    0    0  0.79626195298E+01 -0.71044785152E+02 -0.14303065053E+03  0.20301733891E+03  0.12509000000E+03 0.  0.
         25    1    3    3    0    0  0.24597861711E+02  0.69495838913E+02 -0.37043102995E+03  0.39787106262E+03  0.12509000000E+03 0.  0.
<mgrwt>
<rscale>  2 0.45330458E+03</rscale>
<asrwt>0</asrwt>
<pdfrwt beam="1">  1       21 0.10854856E-01 0.45330458E+03</pdfrwt>
<pdfrwt beam="2">  1       21 0.10234776E+00 0.45330458E+03</pdfrwt>
<totfact> 0.49922431E+04</totfact>
</mgrwt>
</event>
<event>
 7    0  0.4770865E-002  0.4536179E+03  0.7546771E-02  0.1026649E+00
         21   -1    0    0  502  501  0.00000000000E+00  0.00000000000E+00  0.92079451014E+02  0.92079451014E+02  0.00000000000E+00 0.  1.
         21   -1    0    0  501  502 -0.00000000000E+00 -0.00000000000E+00 -0.55867290190E+03  0.55867290190E+03  0.00000000000E+00 0.  1.
      99926    2    1    2    0    0  0.00000000000E+00  0.00000000000E+00 -0.46659345089E+03  0.65075235292E+03  0.45361787488E+03 0.  0.
      99925    2    3    3    0    0 -0.34837970474E+02  0.44931069431E+02 -0.43221262131E+03  0.50911184060E+03  0.26297268116E+03 0.  0.
         25    1    4    4    0    0 -0.57005376152E+02  0.14129202770E+02 -0.23024623738E+03  0.26853321063E+03  0.12509000000E+03 0.  0.
         25    1    4    4    0    0  0.22167405678E+02  0.30801866661E+02 -0.20196638393E+03  0.24057862997E+03  0.12509000000E+03 0.  0.
         25    1    3    3    0    0  0.34837970474E+02 -0.44931069431E+02 -0.34380829586E+02  0.14164051232E+03  0.12509000000E+03 0.  0.
<mgrwt>
<rscale>  2 0.45361787E+03</rscale>
<asrwt>0</asrwt>
<pdfrwt beam="1">  1       21 0.13541096E-01 0.45361787E+03</pdfrwt>
<pdfrwt beam="2">  1       21 0.82157777E-01 0.45361787E+03</pdfrwt>
<totfact> 0.56269175E+04</totfact>
</mgrwt>
</event>
<event>
 7    0  0.4770865E-002  0.4542810E+03  0.7546771E-02  0.1026453E+00
         21   -1    0    0  502  501  0.00000000000E+00  0.00000000000E+00  0.51265453898E+03  0.51265453898E+03  0.00000000000E+00 0. -1.
         21   -1    0    0  501  502 -0.00000000000E+00 -0.00000000000E+00 -0.10063854626E+03  0.10063854626E+03  0.00000000000E+00 0. -1.
      99926    2    1    2    0    0  0.44408920985E-15  0.00000000000E+00  0.41201599272E+03  0.61329308525E+03  0.45428100351E+03 0.  0.
      99925    2    3    3    0    0 -0.25473725563E+01 -0.11162836635E+03  0.27679130060E+03  0.39788508460E+03  0.26311924137E+03 0.  0.
         25    1    4    4    0    0 -0.16109533273E+02 -0.40502302594E+02  0.83713129150E+02  0.15670146671E+03  0.12509000000E+03 0.  0.
         25    1    4    4    0    0  0.13562160717E+02 -0.71126063756E+02  0.19307817145E+03  0.24118361789E+03  0.12509000000E+03 0.  0.
         25    1    3    3    0    0  0.25473725563E+01  0.11162836635E+03  0.13522469212E+03  0.21540800064E+03  0.12509000000E+03 0.  0.
<mgrwt>
<rscale>  2 0.45428100E+03</rscale>
<asrwt>0</asrwt>
<pdfrwt beam="1">  1       21 0.75390372E-01 0.45428100E+03</pdfrwt>
<pdfrwt beam="2">  1       21 0.14799786E-01 0.45428100E+03</pdfrwt>
<totfact> 0.58197199E+04</totfact>
</mgrwt>
</event>
<event>
 7    0  0.4770865E-002  0.4579969E+03  0.7546771E-02  0.1025364E+00
         21   -1    0    0  502  501  0.00000000000E+00  0.00000000000E+00  0.65596699269E+03  0.65596699269E+03  0.00000000000E+00 0.  1.
         21   -1    0    0  501  502 -0.00000000000E+00 -0.00000000000E+00 -0.79943491043E+02  0.79943491043E+02  0.00000000000E+00 0.  1.
      99926    2    1    2    0    0  0.00000000000E+00  0.00000000000E+00  0.57602350164E+03  0.73591048373E+03  0.45799690569E+03 0.  0.
      99925    2    3    3    0    0  0.10053839981E+03  0.55736175537E+02  0.33801665595E+03  0.44349082332E+03  0.26308622079E+03 0.  0.
         25    1    4    4    0    0  0.77793573783E+02  0.46927835235E+02  0.22596296325E+03  0.27378975638E+03  0.12509000000E+03 0.  0.
         25    1    4    4    0    0  0.22744826024E+02  0.88083403018E+01  0.11205369271E+03  0.16970106693E+03  0.12509000000E+03 0.  0.
         25    1    3    3    0    0 -0.10053839981E+03 -0.55736175537E+02  0.23800684569E+03  0.29241966041E+03  0.12509000000E+03 0.  0.
<mgrwt>
<rscale>  2 0.45799691E+03</rscale>
<asrwt>0</asrwt>
<pdfrwt beam="1">  1       21 0.96465732E-01 0.45799691E+03</pdfrwt>
<pdfrwt beam="2">  1       21 0.11756396E-01 0.45799691E+03</pdfrwt>
<totfact> 0.49812130E+04</totfact>
</mgrwt>
</event>
<event>
 7    0  0.4770865E-002  0.4593235E+03  0.7546771E-02  0.1024978E+00
         21   -1    0    0  502  501  0.00000000000E+00  0.00000000000E+00  0.18588433372E+03  0.18588433372E+03  0.00000000000E+00 0. -1.
         21   -1    0    0  501  502 -0.00000000000E+00 -0.00000000000E+00 -0.28374919500E+03  0.28374919500E+03  0.00000000000E+00 0. -1.
      99926    2    1    2    0    0  0.00000000000E+00 -0.14210854715E-13 -0.97864861272E+02  0.46963352872E+03  0.45932354635E+03 0.  0.
      99925    2    3    3    0    0  0.83450938973E+02  0.69004161716E+02 -0.15521361839E+02  0.28482661990E+03  0.26298223739E+03 0.  0.
         25    1    4    4    0    0  0.22168162149E+02  0.55736444842E+02  0.20762984896E+02  0.14027326309E+03  0.12509000000E+03 0.  0.
         25    1    3    3    0    0 -0.83450938973E+02 -0.69004161716E+02 -0.82343499433E+02  0.18480690882E+03  0.12509000000E+03 0.  0.
         25    1    4    4    0    0  0.61282776824E+02  0.13267716874E+02 -0.36284346735E+02  0.14455335681E+03  0.12509000000E+03 0.  0.
<mgrwt>
<rscale>  2 0.45932355E+03</rscale>
<asrwt>0</asrwt>
<pdfrwt beam="1">  1       21 0.27335932E-01 0.45932355E+03</pdfrwt>
<pdfrwt beam="2">  1       21 0.41727822E-01 0.45932355E+03</pdfrwt>
<totfact> 0.65198041E+04</totfact>
</mgrwt>
</event>
<event>
 7    0  0.4770865E-002  0.4460307E+03  0.7546771E-02  0.1028912E+00
         21   -1    0    0  502  501  0.00000000000E+00  0.00000000000E+00  0.25374558469E+02  0.25374558469E+02  0.00000000000E+00 0.  1.
         21   -1    0    0  501  502 -0.00000000000E+00 -0.00000000000E+00 -0.19600677052E+04  0.19600677052E+04  0.00000000000E+00 0.  1.
      99926    2    1    2    0    0  0.00000000000E+00  0.14210854715E-13 -0.19346931468E+04  0.19854422637E+04  0.44603072804E+03 0.  0.
      99925    2    3    3    0    0 -0.70594771911E+02 -0.71604417979E+02 -0.13552304340E+04  0.13841641599E+04  0.26296402395E+03 0.  0.
         25    1    4    4    0    0 -0.15389720495E+02 -0.27701218567E+02 -0.81594259325E+03  0.82608354577E+03  0.12509000000E+03 0.  0.
         25    1    4    4    0    0 -0.55205051416E+02 -0.43903199411E+02 -0.53928784076E+03  0.55808061417E+03  0.12509000000E+03 0.  0.
         25    1    3    3    0    0  0.70594771911E+02  0.71604417979E+02 -0.57946271274E+03  0.60127810375E+03  0.12509000000E+03 0.  0.
<mgrwt>
<rscale>  2 0.44603073E+03</rscale>
<asrwt>0</asrwt>
<pdfrwt beam="1">  1       21 0.37315525E-02 0.44603073E+03</pdfrwt>
<pdfrwt beam="2">  1       21 0.28824527E+00 0.44603073E+03</pdfrwt>
<totfact> 0.14963856E+04</totfact>
</mgrwt>
</event>
<event>
 7    0  0.4770865E-002  0.4577359E+03  0.7546771E-02  0.1025440E+00
         21   -1    0    0  502  501  0.00000000000E+00  0.00000000000E+00  0.27338470147E+03  0.27338470147E+03  0.00000000000E+00 0.  1.
         21   -1    0    0  501  502 -0.00000000000E+00 -0.00000000000E+00 -0.19160010836E+03  0.19160010836E+03  0.00000000000E+00 0.  1.
      99926    2    1    2    0    0  0.14210854715E-13  0.00000000000E+00  0.81784593108E+02  0.46498480983E+03  0.45773589952E+03 0.  0.
      99925    2    3    3    0    0 -0.75645064031E+02  0.15675136041E+02  0.13881102319E+03  0.30729077878E+03  0.26304227219E+03 0.  0.
         25    1    4    4    0    0 -0.13694232098E+02 -0.18576629244E+02  0.88704842405E+02  0.15507636929E+03  0.12509000000E+03 0.  0.
         25    1    3    3    0    0  0.75645064031E+02 -0.15675136041E+02 -0.57026430083E+02  0.15769403105E+03  0.12509000000E+03 0.  0.
         25    1    4    4    0    0 -0.61950831933E+02  0.34251765285E+02  0.50106180786E+02  0.15221440949E+03  0.12509000000E+03 0.  0.
<mgrwt>
<rscale>  2 0.45773590E+03</rscale>
<asrwt>0</asrwt>
<pdfrwt beam="1">  1       21 0.40203633E-01 0.45773590E+03</pdfrwt>
<pdfrwt beam="2">  1       21 0.28176486E-01 0.45773590E+03</pdfrwt>
<totfact> 0.66356311E+04</totfact>
</mgrwt>
</event>
<event>
 7    0  0.4770865E-002  0.4481316E+03  0.7546771E-02  0.1028281E+00
         21   -1    0    0  502  501  0.00000000000E+00  0.00000000000E+00  0.10887092174E+03  0.10887092174E+03  0.00000000000E+00 0. -1.
         21   -1    0    0  501  502 -0.00000000000E+00 -0.00000000000E+00 -0.46114688497E+03  0.46114688497E+03  0.00000000000E+00 0. -1.
      99926    2    1    2    0    0  0.71054273576E-14  0.00000000000E+00 -0.35227596323E+03  0.57001780672E+03  0.44813161650E+03 0.  0.
      99925    2    3    3    0    0  0.50229880731E+02  0.91298340895E+02 -0.25021646240E+03  0.37786662202E+03  0.26328022717E+03 0.  0.
         25    1    3    3    0    0 -0.50229880731E+02 -0.91298340895E+02 -0.10205950083E+03  0.19215118469E+03  0.12509000000E+03 0.  0.
         25    1    4    4    0    0  0.11340171109E+02  0.53686306665E+01 -0.12530655202E+03  0.17750115987E+03  0.12509000000E+03 0.  0.
         25    1    4    4    0    0  0.38889709622E+02  0.85929710228E+02 -0.12490991037E+03  0.20036546215E+03  0.12509000000E+03 0.  0.
<mgrwt>
<rscale>  2 0.44813162E+03</rscale>
<asrwt>0</asrwt>
<pdfrwt beam="1">  1       21 0.16010429E-01 0.44813162E+03</pdfrwt>
<pdfrwt beam="2">  1       21 0.67815720E-01 0.44813162E+03</pdfrwt>
<totfact> 0.63966858E+04</totfact>
</mgrwt>
</event>
<event>
 7    0  0.4770865E-002  0.4458702E+03  0.7546771E-02  0.1028961E+00
         21   -1    0    0  502  501  0.00000000000E+00  0.00000000000E+00  0.80489549002E+03  0.80489549002E+03  0.00000000000E+00 0. -1.
         21   -1    0    0  501  502 -0.00000000000E+00 -0.00000000000E+00 -0.61747229848E+02  0.61747229848E+02  0.00000000000E+00 0. -1.
      99926    2    1    2    0    0  0.00000000000E+00  0.71054273576E-14  0.74314826017E+03  0.86664271986E+03  0.44587023595E+03 0.  0.
      99925    2    3    3    0    0 -0.75844052605E+02  0.60761379158E+02  0.54562126848E+03  0.61344578849E+03  0.26299981233E+03 0.  0.
         25    1    4    4    0    0 -0.14743101785E+02  0.21736957240E+02  0.32949730960E+03  0.35342020244E+03  0.12509000000E+03 0.  0.
         25    1    4    4    0    0 -0.61100950820E+02  0.39024421918E+02  0.21612395888E+03  0.26002558605E+03  0.12509000000E+03 0.  0.
         25    1    3    3    0    0  0.75844052605E+02 -0.60761379158E+02  0.19752699169E+03  0.25319693138E+03  0.12509000000E+03 0.  0.
<mgrwt>
<rscale>  2 0.44587024E+03</rscale>
<asrwt>0</asrwt>
<pdfrwt beam="1">  1       21 0.11836698E+00 0.44587024E+03</pdfrwt>
<pdfrwt beam="2">  1       21 0.90804755E-02 0.44587024E+03</pdfrwt>
<totfact> 0.48053012E+04</totfact>
</mgrwt>
</event>
<event>
 7    0  0.4770865E-002  0.4591356E+03  0.7546771E-02  0.1025032E+00
         21   -1    0    0  502  501  0.00000000000E+00  0.00000000000E+00  0.37987975005E+03  0.37987975005E+03  0.00000000000E+00 0.  1.
         21   -1    0    0  501  502 -0.00000000000E+00 -0.00000000000E+00 -0.13873172843E+03  0.13873172843E+03  0.00000000000E+00 0.  1.
      99926    2    1    2    0    0  0.17763568394E-14  0.00000000000E+00  0.24114802163E+03  0.51861147848E+03  0.45913559792E+03 0.  0.
      99925    2    3    3    0    0 -0.80582346128E+01 -0.18688688453E+02  0.21010278676E+02  0.26459900597E+03  0.26297718519E+03 0.  0.
         25    1    4    4    0    0 -0.28661169295E+02  0.10399265027E+02  0.35943022357E+02  0.13367503991E+03  0.12509000000E+03 0.  0.
         25    1    3    3    0    0  0.80582346128E+01  0.18688688453E+02  0.22013774295E+03  0.25401247251E+03  0.12509000000E+03 0.  0.
         25    1    4    4    0    0  0.20602934683E+02 -0.29087953480E+02 -0.14932743681E+02  0.13092396606E+03  0.12509000000E+03 0.  0.
<mgrwt>
<rscale>  2 0.45913560E+03</rscale>
<asrwt>0</asrwt>
<pdfrwt beam="1">  1       21 0.55864669E-01 0.45913560E+03</pdfrwt>
<pdfrwt beam="2">  1       21 0.20401725E-01 0.45913560E+03</pdfrwt>
<totfact> 0.61924820E+04</totfact>
</mgrwt>
</event>
<event>
 7    0  0.4770865E-002  0.4525659E+03  0.7546771E-02  0.1026960E+00
         21   -1    0    0  502  501  0.00000000000E+00  0.00000000000E+00  0.14389165574E+04  0.14389165574E+04  0.00000000000E+00 0. -1.
         21   -1    0    0  501  502 -0.00000000000E+00 -0.00000000000E+00 -0.35585085782E+02  0.35585085782E+02  0.00000000000E+00 0. -1.
      99926    2    1    2    0    0  0.00000000000E+00  0.00000000000E+00  0.14033314716E+04  0.14745016432E+04  0.45256588085E+03 0.  0.
      99925    2    3    3    0    0 -0.10854714403E+03  0.17213447430E+02  0.83819603188E+03  0.88534601129E+03  0.26303267209E+03 0.  0.
         25    1    4    4    0    0 -0.46051957414E+02  0.31113754340E+02  0.31191883693E+03  0.34063135121E+03  0.12509000000E+03 0.  0.
         25    1    3    3    0    0  0.10854714403E+03 -0.17213447430E+02  0.56513543971E+03  0.58915563187E+03  0.12509000000E+03 0.  0.
         25    1    4    4    0    0 -0.62495186613E+02 -0.13900306909E+02  0.52627719495E+03  0.54471466008E+03  0.12509000000E+03 0.  0.
<mgrwt>
<rscale>  2 0.45256588E+03</rscale>
<asrwt>0</asrwt>
<pdfrwt beam="1">  1       21 0.21160534E+00 0.45256588E+03</pdfrwt>
<pdfrwt beam="2">  1       21 0.52331018E-02 0.45256588E+03</pdfrwt>
<totfact> 0.24878109E+04</totfact>
</mgrwt>
</event>
<event>
 7    0  0.4770865E-002  0.4385885E+03  0.7546771E-02  0.1031181E+00
         21   -1    0    0  502  501  0.00000000000E+00  0.00000000000E+00  0.12538418957E+04  0.12538418957E+04  0.00000000000E+00 0. -1.
         21   -1    0    0  501  502 -0.00000000000E+00 -0.00000000000E+00 -0.38354085263E+02  0.38354085263E+02  0.00000000000E+00 0. -1.
      99926    2    1    2    0    0  0.00000000000E+00  0.00000000000E+00  0.12154878105E+04  0.12921959810E+04  0.43858845847E+03 0.  0.
      99925    2    3    3    0    0  0.80484773704E+01 -0.11044449144E+02  0.49388677969E+03  0.55970549399E+03  0.26298161722E+03 0.  0.
         25    1    4    4    0    0 -0.34791421298E+02  0.31200378651E+01  0.26095946816E+03  0.29149190341E+03  0.12509000000E+03 0.  0.
         25    1    4    4    0    0  0.42839898669E+02 -0.14164487009E+02  0.23292731154E+03  0.26821359058E+03  0.12509000000E+03 0.  0.
         25    1    3    3    0    0 -0.80484773704E+01  0.11044449144E+02  0.72160103078E+03  0.73249048702E+03  0.12509000000E+03 0.  0.
<mgrwt>
<rscale>  2 0.43858846E+03</rscale>
<asrwt>0</asrwt>
<pdfrwt beam="1">  1       21 0.18438849E+00 0.43858846E+03</pdfrwt>
<pdfrwt beam="2">  1       21 0.56403075E-02 0.43858846E+03</pdfrwt>
<totfact> 0.33407149E+04</totfact>
</mgrwt>
</event>
<event>
 7    0  0.4770865E-002  0.4333275E+03  0.7546771E-02  0.1032814E+00
         21   -1    0    0  502  501  0.00000000000E+00  0.00000000000E+00  0.35148535566E+03  0.35148535566E+03  0.00000000000E+00 0. -1.
         21   -1    0    0  501  502 -0.00000000000E+00 -0.00000000000E+00 -0.13355659123E+03  0.13355659123E+03  0.00000000000E+00 0. -1.
      99926    2    1    2    0    0 -0.14210854715E-13  0.00000000000E+00  0.21792876443E+03  0.48504194688E+03  0.43332752494E+03 0.  0.
      99925    2    3    3    0    0 -0.78116269477E+02 -0.47129973985E+02  0.13992615899E+03  0.31167730066E+03  0.26313499154E+03 0.  0.
         25    1    3    3    0    0  0.78116269477E+02  0.47129973985E+02  0.78002605441E+02  0.17336464622E+03  0.12509000000E+03 0.  0.
         25    1    4    4    0    0 -0.44392550950E+02 -0.63439755287E+02  0.62260933369E+02  0.15974740391E+03  0.12509000000E+03 0.  0.
         25    1    4    4    0    0 -0.33723718527E+02  0.16309781302E+02  0.77665225618E+02  0.15192989675E+03  0.12509000000E+03 0.  0.
<mgrwt>
<rscale>  2 0.43332752E+03</rscale>
<asrwt>0</asrwt>
<pdfrwt beam="1">  1       21 0.51689023E-01 0.43332752E+03</pdfrwt>
<pdfrwt beam="2">  1       21 0.19640675E-01 0.43332752E+03</pdfrwt>
<totfact> 0.79090570E+04</totfact>
</mgrwt>
</event>
<event>
 7    0  0.4770865E-002  0.4540557E+03  0.7546771E-02  0.1026519E+00
         21   -1    0    0  502  501  0.00000000000E+00  0.00000000000E+00  0.45250709192E+03  0.45250709192E+03  0.00000000000E+00 0.  1.
         21   -1    0    0  501  502 -0.00000000000E+00 -0.00000000000E+00 -0.11390240740E+03  0.11390240740E+03  0.00000000000E+00 0.  1.
      99926    2    1    2    0    0 -0.71054273576E-14  0.71054273576E-14  0.33860468452E+03  0.56640949932E+03  0.45405571083E+03 0.  0.
      99925    2    3    3    0    0  0.61878071190E+02 -0.54742732197E+02  0.30839057160E+03  0.41348447474E+03  0.26275274267E+03 0.  0.
         25    1    4    4    0    0  0.10703509940E+02 -0.42332312523E+02  0.10540573230E+03  0.16930583661E+03  0.12509000000E+03 0.  0.
         25    1    4    4    0    0  0.51174561250E+02 -0.12410419674E+02  0.20298483929E+03  0.24417863813E+03  0.12509000000E+03 0.  0.
         25    1    3    3    0    0 -0.61878071190E+02  0.54742732197E+02  0.30214112926E+02  0.15292502458E+03  0.12509000000E+03 0.  0.
<mgrwt>
<rscale>  2 0.45405571E+03</rscale>
<asrwt>0</asrwt>
<pdfrwt beam="1">  1       21 0.66545160E-01 0.45405571E+03</pdfrwt>
<pdfrwt beam="2">  1       21 0.16750354E-01 0.45405571E+03</pdfrwt>
<totfact> 0.61251148E+04</totfact>
</mgrwt>
</event>
<event>
 7    0  0.4770865E-002  0.4547526E+03  0.7546771E-02  0.1026314E+00
         21   -1    0    0  502  501  0.00000000000E+00  0.00000000000E+00  0.21343636987E+02  0.21343636987E+02  0.00000000000E+00 0. -1.
         21   -1    0    0  501  502 -0.00000000000E+00 -0.00000000000E+00 -0.24222671397E+04  0.24222671397E+04  0.00000000000E+00 0. -1.
      99926    2    1    2    0    0  0.00000000000E+00 -0.71054273576E-14 -0.24009235027E+04  0.24436107766E+04  0.45475263832E+03 0.  0.
      99925    2    3    3    0    0  0.34256473048E+02  0.34516152383E+02 -0.96427338370E+03  0.10007053940E+04  0.26310312887E+03 0.  0.
         25    1    4    4    0    0  0.17634962874E+02 -0.23195699001E+02 -0.43762248000E+03  0.45608110624E+03  0.12509000000E+03 0.  0.
         25    1    4    4    0    0  0.16621510174E+02  0.57711851384E+02 -0.52665090370E+03  0.54462428779E+03  0.12509000000E+03 0.  0.
         25    1    3    3    0    0 -0.34256473048E+02 -0.34516152383E+02 -0.14366501190E+04  0.14429053826E+04  0.12509000000E+03 0.  0.
<mgrwt>
<rscale>  2 0.45475264E+03</rscale>
<asrwt>0</asrwt>
<pdfrwt beam="1">  1       21 0.31387719E-02 0.45475264E+03</pdfrwt>
<pdfrwt beam="2">  1       21 0.35621556E+00 0.45475264E+03</pdfrwt>
<totfact> 0.77410373E+03</totfact>
</mgrwt>
</event>
<event>
 7    0  0.4770865E-002  0.4604441E+03  0.7546771E-02  0.1024653E+00
         21   -1    0    0  502  501  0.00000000000E+00  0.00000000000E+00  0.99159931959E+02  0.99159931959E+02  0.00000000000E+00 0.  1.
         21   -1    0    0  501  502 -0.00000000000E+00 -0.00000000000E+00 -0.53451215745E+03  0.53451215745E+03  0.00000000000E+00 0.  1.
      99926    2    1    2    0    0  0.00000000000E+00 -0.14210854715E-13 -0.43535222549E+03  0.63367208941E+03  0.46044408635E+03 0.  0.
      99925    2    3    3    0    0  0.90705153750E+02  0.75620505731E+02 -0.28180972358E+03  0.40308871231E+03  0.26290284114E+03 0.  0.
         25    1    4    4    0    0  0.10323237338E+02  0.31252856152E+02 -0.96416600998E+02  0.16132879252E+03  0.12509000000E+03 0.  0.
         25    1    4    4    0    0  0.80381916413E+02  0.44367649579E+02 -0.18539312259E+03  0.24175991979E+03  0.12509000000E+03 0.  0.
         25    1    3    3    0    0 -0.90705153750E+02 -0.75620505731E+02 -0.15354250191E+03  0.23058337710E+03  0.12509000000E+03 0.  0.
<mgrwt>
<rscale>  2 0.46044409E+03</rscale>
<asrwt>0</asrwt>
<pdfrwt beam="1">  1       21 0.14582343E-01 0.46044409E+03</pdfrwt>
<pdfrwt beam="2">  1       21 0.78604728E-01 0.46044409E+03</pdfrwt>
<totfact> 0.54281579E+04</totfact>
</mgrwt>
</event>
<event>
 7    0  0.4770865E-002  0.4565748E+03  0.7546771E-02  0.1025779E+00
         21   -1    0    0  502  501  0.00000000000E+00  0.00000000000E+00  0.63425731518E+02  0.63425731518E+02  0.00000000000E+00 0.  1.
         21   -1    0    0  501  502 -0.00000000000E+00 -0.00000000000E+00 -0.82167200352E+03  0.82167200352E+03  0.00000000000E+00 0.  1.
      99926    2    1    2    0    0  0.00000000000E+00 -0.35527136788E-14 -0.75824627201E+03  0.88509773504E+03  0.45657484771E+03 0.  0.
      99925    2    3    3    0    0 -0.97853337087E+02 -0.18497320104E+02 -0.58675989494E+03  0.65063555888E+03  0.26291068777E+03 0.  0.
         25    1    3    3    0    0  0.97853337087E+02  0.18497320104E+02 -0.17148637707E+03  0.23446217616E+03  0.12509000000E+03 0.  0.
         25    1    4    4    0    0 -0.66869219889E+02  0.23619345847E+02 -0.26549747467E+03  0.30193672056E+03  0.12509000000E+03 0.  0.
         25    1    4    4    0    0 -0.30984117198E+02 -0.42116665951E+02 -0.32126242027E+03  0.34869883832E+03  0.12509000000E+03 0.  0.
<mgrwt>
<rscale>  2 0.45657485E+03</rscale>
<asrwt>0</asrwt>
<pdfrwt beam="1">  1       21 0.93273142E-02 0.45657485E+03</pdfrwt>
<pdfrwt beam="2">  1       21 0.12083411E+00 0.45657485E+03</pdfrwt>
<totfact> 0.43347221E+04</totfact>
</mgrwt>
</event>
<event>
 7    0  0.4770865E-002  0.4588268E+03  0.7546771E-02  0.1025122E+00
         21   -1    0    0  502  501  0.00000000000E+00  0.00000000000E+00  0.27368863073E+02  0.27368863073E+02  0.00000000000E+00 0.  1.
         21   -1    0    0  501  502 -0.00000000000E+00 -0.00000000000E+00 -0.19230071357E+04  0.19230071357E+04  0.00000000000E+00 0.  1.
      99926    2    1    2    0    0  0.00000000000E+00  0.00000000000E+00 -0.18956382726E+04  0.19503759987E+04  0.45882684745E+03 0.  0.
      99925    2    3    3    0    0  0.70648777098E+02 -0.89872915018E+02 -0.10897714569E+04  0.11268851225E+04  0.26305866345E+03 0.  0.
         25    1    3    3    0    0 -0.70648777098E+02  0.89872915018E+02 -0.80586681571E+03  0.82349087628E+03  0.12509000000E+03 0.  0.
         25    1    4    4    0    0  0.16065671287E+02 -0.72410097975E+02 -0.46812897366E+03  0.49019748282E+03  0.12509000000E+03 0.  0.
         25    1    4    4    0    0  0.54583105811E+02 -0.17462817043E+02 -0.62164248322E+03  0.63668763964E+03  0.12509000000E+03 0.  0.
<mgrwt>
<rscale>  2 0.45882685E+03</rscale>
<asrwt>0</asrwt>
<pdfrwt beam="1">  1       21 0.40248325E-02 0.45882685E+03</pdfrwt>
<pdfrwt beam="2">  1       21 0.28279519E+00 0.45882685E+03</pdfrwt>
<totfact> 0.14113324E+04</totfact>
</mgrwt>
</event>
<event>
 7    0  0.4770865E-002  0.4479228E+03  0.7546771E-02  0.1028343E+00
         21   -1    0    0  502  501  0.00000000000E+00  0.00000000000E+00  0.20431110605E+03  0.20431110605E+03  0.00000000000E+00 0. -1.
         21   -1    0    0  501  502 -0.00000000000E+00 -0.00000000000E+00 -0.24550160590E+03  0.24550160590E+03  0.00000000000E+00 0. -1.
      99926    2    1    2    0    0  0.00000000000E+00  0.35527136788E-14 -0.41190499847E+02  0.44981271195E+03  0.44792278191E+03 0.  0.
      99925    2    3    3    0    0  0.16311619480E+02  0.27216346188E+02 -0.12809114954E+03  0.29422984192E+03  0.26297729723E+03 0.  0.
         25    1    4    4    0    0  0.23751561889E+02  0.43355235915E+02 -0.91554804701E+02  0.16270710967E+03  0.12509000000E+03 0.  0.
         25    1    3    3    0    0 -0.16311619480E+02 -0.27216346188E+02  0.86900649690E+02  0.15558287003E+03  0.12509000000E+03 0.  0.
         25    1    4    4    0    0 -0.74399424089E+01 -0.16138889728E+02 -0.36536344836E+02  0.13152273225E+03  0.12509000000E+03 0.  0.
<mgrwt>
<rscale>  2 0.44792278E+03</rscale>
<asrwt>0</asrwt>
<pdfrwt beam="1">  1       21 0.30045751E-01 0.44792278E+03</pdfrwt>
<pdfrwt beam="2">  1       21 0.36103177E-01 0.44792278E+03</pdfrwt>
<totfact> 0.72961137E+04</totfact>
</mgrwt>
</event>
<event>
 7    0  0.4770865E-002  0.4580667E+03  0.7546771E-02  0.1025343E+00
         21   -1    0    0  502  501  0.00000000000E+00  0.00000000000E+00  0.31352298739E+03  0.31352298739E+03  0.00000000000E+00 0.  1.
         21   -1    0    0  501  502 -0.00000000000E+00 -0.00000000000E+00 -0.16731238782E+03  0.16731238782E+03  0.00000000000E+00 0.  1.
      99926    2    1    2    0    0 -0.14210854715E-13  0.71054273576E-14  0.14621059957E+03  0.48083537521E+03  0.45806671854E+03 0.  0.
      99925    2    3    3    0    0 -0.66450895624E+02  0.39093495229E+02  0.75118618474E+00  0.27407471179E+03  0.26300638863E+03 0.  0.
         25    1    4    4    0    0 -0.56552101605E+02  0.48834138739E+02  0.18852273010E+02  0.14692116798E+03  0.12509000000E+03 0.  0.
         25    1    4    4    0    0 -0.98987940199E+01 -0.97406435104E+01 -0.18101086826E+02  0.12715354381E+03  0.12509000000E+03 0.  0.
         25    1    3    3    0    0  0.66450895624E+02 -0.39093495229E+02  0.14545941338E+03  0.20676066343E+03  0.12509000000E+03 0.  0.
<mgrwt>
<rscale>  2 0.45806672E+03</rscale>
<asrwt>0</asrwt>
<pdfrwt beam="1">  1       21 0.46106322E-01 0.45806672E+03</pdfrwt>
<pdfrwt beam="2">  1       21 0.24604763E-01 0.45806672E+03</pdfrwt>
<totfact> 0.65041673E+04</totfact>
</mgrwt>
</event>
<event>
 7    0  0.4770865E-002  0.4502735E+03  0.7546771E-02  0.1027640E+00
         21   -1    0    0  502  501  0.00000000000E+00  0.00000000000E+00  0.11396243923E+03  0.11396243923E+03  0.00000000000E+00 0.  1.
         21   -1    0    0  501  502 -0.00000000000E+00 -0.00000000000E+00 -0.44476554788E+03  0.44476554788E+03  0.00000000000E+00 0.  1.
      99926    2    1    2    0    0  0.00000000000E+00  0.00000000000E+00 -0.33080310865E+03  0.55872798711E+03  0.45027354674E+03 0.  0.
      99925    2    3    3    0    0 -0.84006681261E+02  0.61058112203E+02 -0.24900546884E+03  0.37672914772E+03  0.26293708690E+03 0.  0.
         25    1    3    3    0    0  0.84006681261E+02 -0.61058112203E+02 -0.81797639809E+02  0.18199883939E+03  0.12509000000E+03 0.  0.
         25    1    4    4    0    0 -0.51674224478E+02  0.49573250650E+02 -0.17737525902E+03  0.22855463957E+03  0.12509000000E+03 0.  0.
         25    1    4    4    0    0 -0.32332456782E+02  0.11484861552E+02 -0.71630209818E+02  0.14817450815E+03  0.12509000000E+03 0.  0.
<mgrwt>
<rscale>  2 0.45027355E+03</rscale>
<asrwt>0</asrwt>
<pdfrwt beam="1">  1       21 0.16759182E-01 0.45027355E+03</pdfrwt>
<pdfrwt beam="2">  1       21 0.65406698E-01 0.45027355E+03</pdfrwt>
<totfact> 0.63639517E+04</totfact>
</mgrwt>
</event>
<event>
 7    0  0.4770865E-002  0.4679061E+03  0.7546771E-02  0.1022513E+00
         21   -1    0    0  502  501  0.00000000000E+00  0.00000000000E+00  0.17109625641E+03  0.17109625641E+03  0.00000000000E+00 0. -1.
         21   -1    0    0  501  502 -0.00000000000E+00 -0.00000000000E+00 -0.31990199691E+03  0.31990199691E+03  0.00000000000E+00 0. -1.
      99926    2    1    2    0    0  0.00000000000E+00  0.00000000000E+00 -0.14880574051E+03  0.49099825332E+03  0.46790611917E+03 0.  0.
      99925    2    3    3    0    0  0.83823021819E+02  0.91937152212E+02 -0.80589642257E+02  0.30184307072E+03  0.26293689349E+03 0.  0.
         25    1    4    4    0    0  0.55301279626E+02  0.84971023067E+02 -0.59378069528E+02  0.17161459591E+03  0.12509000000E+03 0.  0.
         25    1    3    3    0    0 -0.83823021819E+02 -0.91937152212E+02 -0.68216098251E+02  0.18915518260E+03  0.12509000000E+03 0.  0.
         25    1    4    4    0    0  0.28521742193E+02  0.69661291454E+01 -0.21211572729E+02  0.13022847481E+03  0.12509000000E+03 0.  0.
<mgrwt>
<rscale>  2 0.46790612E+03</rscale>
<asrwt>0</asrwt>
<pdfrwt beam="1">  1       21 0.25161214E-01 0.46790612E+03</pdfrwt>
<pdfrwt beam="2">  1       21 0.47044411E-01 0.46790612E+03</pdfrwt>
<totfact> 0.59567261E+04</totfact>
</mgrwt>
</event>
<event>
 7    0  0.4770865E-002  0.4490708E+03  0.7546771E-02  0.1028000E+00
         21   -1    0    0  502  501  0.00000000000E+00  0.00000000000E+00  0.35611688604E+02  0.35611688604E+02  0.00000000000E+00 0.  1.
         21   -1    0    0  501  502 -0.00000000000E+00 -0.00000000000E+00 -0.14157189077E+04  0.14157189077E+04  0.00000000000E+00 0.  1.
      99926    2    1    2    0    0  0.00000000000E+00  0.00000000000E+00 -0.13801072191E+04  0.14513305963E+04  0.44907077790E+03 0.  0.
      99925    2    3    3    0    0 -0.51373406684E+02 -0.51554440995E+02 -0.11290181245E+04  0.11615197462E+04  0.26296218002E+03 0.  0.
         25    1    4    4    0    0  0.14397101966E+02 -0.28092553215E+02 -0.57274568509E+03  0.58709590015E+03  0.12509000000E+03 0.  0.
         25    1    3    3    0    0  0.51373406684E+02  0.51554440995E+02 -0.25108909464E+03  0.28981085012E+03  0.12509000000E+03 0.  0.
         25    1    4    4    0    0 -0.65770508650E+02 -0.23461887780E+02 -0.55627243937E+03  0.57442384603E+03  0.12509000000E+03 0.  0.
<mgrwt>
<rscale>  2 0.44907078E+03</rscale>
<asrwt>0</asrwt>
<pdfrwt beam="1">  1       21 0.52370134E-02 0.44907078E+03</pdfrwt>
<pdfrwt beam="2">  1       21 0.20819394E+00 0.44907078E+03</pdfrwt>
<totfact> 0.26181122E+04</totfact>
</mgrwt>
</event>
<event>
 7    0  0.4770865E-002  0.4452682E+03  0.7546771E-02  0.1029143E+00
         21   -1    0    0  502  501  0.00000000000E+00  0.00000000000E+00  0.10026342726E+03  0.10026342726E+03  0.00000000000E+00 0. -1.
         21   -1    0    0  501  502 -0.00000000000E+00 -0.00000000000E+00 -0.49435716105E+03  0.49435716105E+03  0.00000000000E+00 0. -1.
      99926    2    1    2    0    0  0.35527136788E-14  0.00000000000E+00 -0.39409373380E+03  0.59462058831E+03  0.44526820347E+03 0.  0.
      99925    2    3    3    0    0 -0.30665935947E+02  0.39636600854E+02 -0.12878179926E+03  0.29704809216E+03  0.26294744243E+03 0.  0.
         25    1    3    3    0    0  0.30665935947E+02 -0.39636600854E+02 -0.26531193453E+03  0.29757249614E+03  0.12509000000E+03 0.  0.
         25    1    4    4    0    0 -0.27964943655E+02  0.58700187611E+02 -0.72613131022E+02  0.15858097299E+03  0.12509000000E+03 0.  0.
         25    1    4    4    0    0 -0.27009922922E+01 -0.19063586757E+02 -0.56168668240E+02  0.13846711917E+03  0.12509000000E+03 0.  0.
<mgrwt>
<rscale>  2 0.44526820E+03</rscale>
<asrwt>0</asrwt>
<pdfrwt beam="1">  1       21 0.14744621E-01 0.44526820E+03</pdfrwt>
<pdfrwt beam="2">  1       21 0.72699583E-01 0.44526820E+03</pdfrwt>
<totfact> 0.63775381E+04</totfact>
</mgrwt>
</event>
<event>
 7    0  0.4770865E-002  0.4580067E+03  0.7546771E-02  0.1025361E+00
         21   -1    0    0  502  501  0.00000000000E+00  0.00000000000E+00  0.64780736992E+03  0.64780736992E+03  0.00000000000E+00 0. -1.
         21   -1    0    0  501  502 -0.00000000000E+00 -0.00000000000E+00 -0.80953898166E+02  0.80953898166E+02  0.00000000000E+00 0. -1.
      99926    2    1    2    0    0  0.00000000000E+00  0.00000000000E+00  0.56685347175E+03  0.72876126808E+03  0.45800668928E+03 0.  0.
      99925    2    3    3    0    0 -0.23806202298E+02  0.11003973907E+03  0.31110733145E+03  0.42260922119E+03  0.26293592890E+03 0.  0.
         25    1    3    3    0    0  0.23806202298E+02 -0.11003973907E+03  0.25574614030E+03  0.30615204690E+03  0.12509000000E+03 0.  0.
         25    1    4    4    0    0  0.71467272486E+01  0.48092499793E+02  0.98828014802E+02  0.16666867989E+03  0.12509000000E+03 0.  0.
         25    1    4    4    0    0 -0.30952929547E+02  0.61947239273E+02  0.21227931665E+03  0.25594054130E+03  0.12509000000E+03 0.  0.
<mgrwt>
<rscale>  2 0.45800669E+03</rscale>
<asrwt>0</asrwt>
<pdfrwt beam="1">  1       21 0.95265787E-01 0.45800669E+03</pdfrwt>
<pdfrwt beam="2">  1       21 0.11904985E-01 0.45800669E+03</pdfrwt>
<totfact> 0.50172268E+04</totfact>
</mgrwt>
</event>
<event>
 7    0  0.4770865E-002  0.4486376E+03  0.7546771E-02  0.1028129E+00
         21   -1    0    0  502  501  0.00000000000E+00  0.00000000000E+00  0.15206430053E+03  0.15206430053E+03  0.00000000000E+00 0.  1.
         21   -1    0    0  501  502 -0.00000000000E+00 -0.00000000000E+00 -0.33090560131E+03  0.33090560131E+03  0.00000000000E+00 0.  1.
      99926    2    1    2    0    0  0.00000000000E+00  0.00000000000E+00 -0.17884130078E+03  0.48296990184E+03  0.44863762126E+03 0.  0.
      99925    2    3    3    0    0 -0.22431717254E+02 -0.10464639544E+03 -0.11483046567E+03  0.30633767055E+03  0.26306402744E+03 0.  0.
         25    1    3    3    0    0  0.22431717254E+02  0.10464639544E+03 -0.64010835120E+02  0.17663223129E+03  0.12509000000E+03 0.  0.
         25    1    4    4    0    0  0.37861774440E+01 -0.91561630869E+02 -0.54110635332E+02  0.16423561229E+03  0.12509000000E+03 0.  0.
         25    1    4    4    0    0 -0.26217894698E+02 -0.13084764571E+02 -0.60719830333E+02  0.14210205826E+03  0.12509000000E+03 0.  0.
<mgrwt>
<rscale>  2 0.44863762E+03</rscale>
<asrwt>0</asrwt>
<pdfrwt beam="1">  1       21 0.22362397E-01 0.44863762E+03</pdfrwt>
<pdfrwt beam="2">  1       21 0.48662588E-01 0.44863762E+03</pdfrwt>
<totfact> 0.69951430E+04</totfact>
</mgrwt>
</event>
<event>
 7    0  0.4770865E-002  0.4416372E+03  0.7546771E-02  0.1030246E+00
         21   -1    0    0  502  501  0.00000000000E+00  0.00000000000E+00  0.38304580923E+03  0.38304580923E+03  0.00000000000E+00 0. -1.
         21   -1    0    0  501  502 -0.00000000000E+00 -0.00000000000E+00 -0.12729771781E+03  0.12729771781E+03  0.00000000000E+00 0. -1.
      99926    2    1    2    0    0  0.00000000000E+00  0.00000000000E+00  0.25574809143E+03  0.51034352704E+03  0.44163721460E+03 0.  0.
      99925    2    3    3    0    0 -0.88711270482E+02  0.42158679266E+02  0.18564134834E+03  0.33653470311E+03  0.26295598954E+03 0.  0.
         25    1    4    4    0    0 -0.11689953166E+02  0.37028154571E+02  0.11096071066E+03  0.17166108075E+03  0.12509000000E+03 0.  0.
         25    1    3    3    0    0  0.88711270482E+02 -0.42158679266E+02  0.70106743082E+02  0.17380882392E+03  0.12509000000E+03 0.  0.
         25    1    4    4    0    0 -0.77021317316E+02  0.51305246951E+01  0.74680637685E+02  0.16487362236E+03  0.12509000000E+03 0.  0.
<mgrwt>
<rscale>  2 0.44163721E+03</rscale>
<asrwt>0</asrwt>
<pdfrwt beam="1">  1       21 0.56330266E-01 0.44163721E+03</pdfrwt>
<pdfrwt beam="2">  1       21 0.18720253E-01 0.44163721E+03</pdfrwt>
<totfact> 0.71873055E+04</totfact>
</mgrwt>
</event>
<event>
 7    0  0.4770865E-002  0.4574240E+03  0.7546771E-02  0.1025531E+00
         21   -1    0    0  502  501  0.00000000000E+00  0.00000000000E+00  0.16050461375E+03  0.16050461375E+03  0.00000000000E+00 0.  1.
         21   -1    0    0  501  502 -0.00000000000E+00 -0.00000000000E+00 -0.32590444780E+03  0.32590444780E+03  0.00000000000E+00 0.  1.
      99926    2    1    2    0    0  0.00000000000E+00  0.00000000000E+00 -0.16539983405E+03  0.48640906156E+03  0.45742395003E+03 0.  0.
      99925    2    3    3    0    0  0.12324351172E+02  0.55395585431E+02  0.30402214449E+01  0.26906113561E+03  0.26299066758E+03 0.  0.
         25    1    4    4    0    0 -0.11052832951E+02  0.59330850220E+02  0.21061125611E+02  0.14047559936E+03  0.12509000000E+03 0.  0.
         25    1    4    4    0    0  0.23377184122E+02 -0.39352647885E+01 -0.18020904166E+02  0.12858553625E+03  0.12509000000E+03 0.  0.
         25    1    3    3    0    0 -0.12324351172E+02 -0.55395585431E+02 -0.16844005549E+03  0.21734792594E+03  0.12509000000E+03 0.  0.
<mgrwt>
<rscale>  2 0.45742395E+03</rscale>
<asrwt>0</asrwt>
<pdfrwt beam="1">  1       21 0.23603620E-01 0.45742395E+03</pdfrwt>
<pdfrwt beam="2">  1       21 0.47927124E-01 0.45742395E+03</pdfrwt>
<totfact> 0.64977117E+04</totfact>
</mgrwt>
</event>
<event>
 7    0  0.4770865E-002  0.4521154E+03  0.7546771E-02  0.1027093E+00
         21   -1    0    0  502  501  0.00000000000E+00  0.00000000000E+00  0.29545943680E+03  0.29545943680E+03  0.00000000000E+00 0.  1.
         21   -1    0    0  501  502 -0.00000000000E+00 -0.00000000000E+00 -0.17295801474E+03  0.17295801474E+03  0.00000000000E+00 0.  1.
      99926    2    1    2    0    0  0.00000000000E+00  0.00000000000E+00  0.12250142206E+03  0.46841745154E+03  0.45211537300E+03 0.  0.
      99925    2    3    3    0    0 -0.64697477339E+02  0.74511799449E+02  0.12885284298E+03  0.30896331870E+03  0.26290208316E+03 0.  0.
         25    1    4    4    0    0 -0.66170476160E+02  0.51716122512E+02  0.47373115231E+02  0.15793925854E+03  0.12509000000E+03 0.  0.
         25    1    3    3    0    0  0.64697477339E+02 -0.74511799449E+02 -0.63514209206E+01  0.15945413284E+03  0.12509000000E+03 0.  0.
         25    1    4    4    0    0  0.14729988212E+01  0.22795676937E+02  0.81479727749E+02  0.15102406016E+03  0.12509000000E+03 0.  0.
<mgrwt>
<rscale>  2 0.45211537E+03</rscale>
<asrwt>0</asrwt>
<pdfrwt beam="1">  1       21 0.43449917E-01 0.45211537E+03</pdfrwt>
<pdfrwt beam="2">  1       21 0.25435002E-01 0.45211537E+03</pdfrwt>
<totfact> 0.69121909E+04</totfact>
</mgrwt>
</event>
<event>
 7    0  0.4770865E-002  0.4557462E+03  0.7546771E-02  0.1026022E+00
         21   -1    0    0  502  501  0.00000000000E+00  0.00000000000E+00  0.80219919244E+03  0.80219919244E+03  0.00000000000E+00 0.  1.
         21   -1    0    0  501  502 -0.00000000000E+00 -0.00000000000E+00 -0.64729737848E+02  0.64729737848E+02  0.00000000000E+00 0.  1.
      99926    2    1    2    0    0  0.00000000000E+00  0.00000000000E+00  0.73746945459E+03  0.86692893029E+03  0.45574617246E+03 0.  0.
      99925    2    3    3    0    0 -0.20394788767E+02  0.10321279780E+03  0.54799624205E+03  0.61669616783E+03  0.26257466189E+03 0.  0.
         25    1    4    4    0    0  0.23614027885E+02  0.27845984111E+02  0.24787440919E+03  0.28003973285E+03  0.12509000000E+03 0.  0.
         25    1    4    4    0    0 -0.44008816652E+02  0.75366813693E+02  0.30012183286E+03  0.33665643498E+03  0.12509000000E+03 0.  0.
         25    1    3    3    0    0  0.20394788767E+02 -0.10321279780E+03  0.18947321254E+03  0.25023276246E+03  0.12509000000E+03 0.  0.
<mgrwt>
<rscale>  2 0.45574617E+03</rscale>
<asrwt>0</asrwt>
<pdfrwt beam="1">  1       21 0.11797046E+00 0.45574617E+03</pdfrwt>
<pdfrwt beam="2">  1       21 0.95190796E-02 0.45574617E+03</pdfrwt>
<totfact> 0.44430630E+04</totfact>
</mgrwt>
</event>
<event>
 7    0  0.4770865E-002  0.4632457E+03  0.7546771E-02  0.1023844E+00
         21   -1    0    0  502  501  0.00000000000E+00  0.00000000000E+00  0.18794104801E+03  0.18794104801E+03  0.00000000000E+00 0. -1.
         21   -1    0    0  501  502 -0.00000000000E+00 -0.00000000000E+00 -0.28545730790E+03  0.28545730790E+03  0.00000000000E+00 0. -1.
      99926    2    1    2    0    0  0.00000000000E+00  0.14210854715E-13 -0.97516259884E+02  0.47339835591E+03  0.46324570418E+03 0.  0.
      99925    2    3    3    0    0  0.35205135146E+02  0.11060280184E+03 -0.95278140117E+02  0.30273817134E+03  0.26286896943E+03 0.  0.
         25    1    4    4    0    0 -0.86389161109E+01  0.87247100584E+02 -0.51613367832E+02  0.16123937258E+03  0.12509000000E+03 0.  0.
         25    1    4    4    0    0  0.43844051257E+02  0.23355701259E+02 -0.43664772285E+02  0.14149879876E+03  0.12509000000E+03 0.  0.
         25    1    3    3    0    0 -0.35205135146E+02 -0.11060280184E+03 -0.22381197665E+01  0.17066018457E+03  0.12509000000E+03 0.  0.
<mgrwt>
<rscale>  2 0.46324570E+03</rscale>
<asrwt>0</asrwt>
<pdfrwt beam="1">  1       21 0.27638390E-01 0.46324570E+03</pdfrwt>
<pdfrwt beam="2">  1       21 0.41979015E-01 0.46324570E+03</pdfrwt>
<totfact> 0.62962182E+04</totfact>
</mgrwt>
</event>
<event>
 7    0  0.4770865E-002  0.3999730E+03  0.7546771E-02  0.1043789E+00
         21   -1    0    0  502  501  0.00000000000E+00  0.00000000000E+00  0.40835282803E+02  0.40835282803E+02  0.00000000000E+00 0. -1.
         21   -1    0    0  501  502 -0.00000000000E+00 -0.00000000000E+00 -0.97941261917E+03  0.97941261917E+03  0.00000000000E+00 0. -1.
      99926    2    1    2    0    0 -0.17763568394E-14  0.35527136788E-14 -0.93857733636E+03  0.10202479020E+04  0.39997295551E+03 0.  0.
      99925    2    3    3    0    0 -0.12340160936E+02  0.22972178581E+02 -0.72128670024E+03  0.76817107002E+03  0.26296822680E+03 0.  0.
         25    1    4    4    0    0  0.15985740326E+02  0.35564998150E+01 -0.45189973861E+03  0.46917914962E+03  0.12509000000E+03 0.  0.
         25    1    3    3    0    0  0.12340160936E+02 -0.22972178581E+02 -0.21729063612E+03  0.25207683195E+03  0.12509000000E+03 0.  0.
         25    1    4    4    0    0 -0.28325901262E+02  0.19415678766E+02 -0.26938696163E+03  0.29899192040E+03  0.12509000000E+03 0.  0.
<mgrwt>
<rscale>  2 0.39997296E+03</rscale>
<asrwt>0</asrwt>
<pdfrwt beam="1">  1       21 0.60051883E-02 0.39997296E+03</pdfrwt>
<pdfrwt beam="2">  1       21 0.14403128E+00 0.39997296E+03</pdfrwt>
<totfact> 0.60494658E+04</totfact>
</mgrwt>
</event>
<event>
 7    0  0.4770865E-002  0.4451572E+03  0.7546771E-02  0.1029176E+00
         21   -1    0    0  502  501  0.00000000000E+00  0.00000000000E+00  0.48570108931E+03  0.48570108931E+03  0.00000000000E+00 0.  1.
         21   -1    0    0  501  502 -0.00000000000E+00 -0.00000000000E+00 -0.10199943807E+03  0.10199943807E+03  0.00000000000E+00 0.  1.
      99926    2    1    2    0    0  0.00000000000E+00 -0.35527136788E-14  0.38370165125E+03  0.58770052738E+03  0.44515722246E+03 0.  0.
      99925    2    3    3    0    0  0.79612335729E+02  0.11852647303E+02  0.15749635364E+03  0.31697011901E+03  0.26303297453E+03 0.  0.
         25    1    4    4    0    0  0.22761849966E+02  0.42923361692E+02  0.77951675817E+02  0.15519178024E+03  0.12509000000E+03 0.  0.
         25    1    3    3    0    0 -0.79612335729E+02 -0.11852647303E+02  0.22620529761E+03  0.27073040837E+03  0.12509000000E+03 0.  0.
         25    1    4    4    0    0  0.56850485763E+02 -0.31070714389E+02  0.79544677822E+02  0.16177833877E+03  0.12509000000E+03 0.  0.
<mgrwt>
<rscale>  2 0.44515722E+03</rscale>
<asrwt>0</asrwt>
<pdfrwt beam="1">  1       21 0.71426630E-01 0.44515722E+03</pdfrwt>
<pdfrwt beam="2">  1       21 0.14999918E-01 0.44515722E+03</pdfrwt>
<totfact> 0.64299874E+04</totfact>
</mgrwt>
</event>
<event>
 7    0  0.4770865E-002  0.4565539E+03  0.7546771E-02  0.1025785E+00
         21   -1    0    0  502  501  0.00000000000E+00  0.00000000000E+00  0.12315066079E+03  0.12315066079E+03  0.00000000000E+00 0.  1.
         21   -1    0    0  501  502 -0.00000000000E+00 -0.00000000000E+00 -0.42314324987E+03  0.42314324987E+03  0.00000000000E+00 0.  1.
      99926    2    1    2    0    0  0.14210854715E-13  0.00000000000E+00 -0.29999258909E+03  0.54629391066E+03  0.45655392159E+03 0.  0.
      99925    2    3    3    0    0  0.10500052028E+03  0.42434213802E+02 -0.21418802141E+03  0.35699070494E+03  0.26218330065E+03 0.  0.
         25    1    4    4    0    0  0.79454246161E+02  0.16717479303E+02 -0.15102364946E+03  0.21224538191E+03  0.12509000000E+03 0.  0.
         25    1    3    3    0    0 -0.10500052028E+03 -0.42434213802E+02 -0.85804567676E+02  0.18930320572E+03  0.12509000000E+03 0.  0.
         25    1    4    4    0    0  0.25546274123E+02  0.25716734499E+02 -0.63164371956E+02  0.14474532303E+03  0.12509000000E+03 0.  0.
<mgrwt>
<rscale>  2 0.45655392E+03</rscale>
<asrwt>0</asrwt>
<pdfrwt beam="1">  1       21 0.18110392E-01 0.45655392E+03</pdfrwt>
<pdfrwt beam="2">  1       21 0.62226947E-01 0.45655392E+03</pdfrwt>
<totfact> 0.61354201E+04</totfact>
</mgrwt>
</event>
<event>
 7    0  0.4770865E-002  0.4583242E+03  0.7546771E-02  0.1025268E+00
         21   -1    0    0  502  501  0.00000000000E+00  0.00000000000E+00  0.90242750930E+02  0.90242750930E+02  0.00000000000E+00 0.  1.
         21   -1    0    0  501  502 -0.00000000000E+00 -0.00000000000E+00 -0.58193342054E+03  0.58193342054E+03  0.00000000000E+00 0.  1.
      99926    2    1    2    0    0  0.00000000000E+00  0.00000000000E+00 -0.49169066961E+03  0.67217617147E+03  0.45832422030E+03 0.  0.
      99925    2    3    3    0    0  0.41786106014E+02 -0.94667906805E+02 -0.23189925696E+03  0.36583130466E+03  0.26333854039E+03 0.  0.
         25    1    4    4    0    0  0.54987197929E+02 -0.63773347399E+02 -0.99794040192E+02  0.18082309126E+03  0.12509000000E+03 0.  0.
         25    1    4    4    0    0 -0.13201091915E+02 -0.30894559406E+02 -0.13210521677E+03  0.18500821340E+03  0.12509000000E+03 0.  0.
         25    1    3    3    0    0 -0.41786106014E+02  0.94667906805E+02 -0.25979141265E+03  0.30634486681E+03  0.12509000000E+03 0.  0.
<mgrwt>
<rscale>  2 0.45832422E+03</rscale>
<asrwt>0</asrwt>
<pdfrwt beam="1">  1       21 0.13270993E-01 0.45832422E+03</pdfrwt>
<pdfrwt beam="2">  1       21 0.85578444E-01 0.45832422E+03</pdfrwt>
<totfact> 0.53036528E+04</totfact>
</mgrwt>
</event>
<event>
 7    0  0.4770865E-002  0.4560679E+03  0.7546771E-02  0.1025928E+00
         21   -1    0    0  502  501  0.00000000000E+00  0.00000000000E+00  0.23563048353E+03  0.23563048353E+03  0.00000000000E+00 0.  1.
         21   -1    0    0  501  502 -0.00000000000E+00 -0.00000000000E+00 -0.22068234555E+03  0.22068234555E+03  0.00000000000E+00 0.  1.
      99926    2    1    2    0    0  0.00000000000E+00  0.00000000000E+00  0.14948137980E+02  0.45631282908E+03  0.45606792384E+03 0.  0.
      99925    2    3    3    0    0  0.34729050112E+02 -0.95093021915E+02 -0.43442054532E+02  0.28512371605E+03  0.26298199865E+03 0.  0.
         25    1    4    4    0    0  0.26134495023E+02 -0.74655570636E+02  0.76442299130E+01  0.14819719433E+03  0.12509000000E+03 0.  0.
         25    1    4    4    0    0  0.85945550882E+01 -0.20437451279E+02 -0.51086284445E+02  0.13692652172E+03  0.12509000000E+03 0.  0.
         25    1    3    3    0    0 -0.34729050112E+02  0.95093021915E+02  0.58390192512E+02  0.17118911303E+03  0.12509000000E+03 0.  0.
<mgrwt>
<rscale>  2 0.45606792E+03</rscale>
<asrwt>0</asrwt>
<pdfrwt beam="1">  1       21 0.34651542E-01 0.45606792E+03</pdfrwt>
<pdfrwt beam="2">  1       21 0.32453286E-01 0.45606792E+03</pdfrwt>
<totfact> 0.67869581E+04</totfact>
</mgrwt>
</event>
<event>
 7    0  0.4770865E-002  0.4582656E+03  0.7546771E-02  0.1025285E+00
         21   -1    0    0  502  501  0.00000000000E+00  0.00000000000E+00  0.38853466573E+03  0.38853466573E+03  0.00000000000E+00 0. -1.
         21   -1    0    0  501  502 -0.00000000000E+00 -0.00000000000E+00 -0.13512783045E+03  0.13512783045E+03  0.00000000000E+00 0. -1.
      99926    2    1    2    0    0  0.00000000000E+00  0.00000000000E+00  0.25340683527E+03  0.52366249618E+03  0.45826562793E+03 0.  0.
      99925    2    3    3    0    0 -0.30826017813E+02 -0.10945708392E+03  0.13166993375E+03  0.31533948284E+03  0.26300365281E+03 0.  0.
         25    1    4    4    0    0 -0.33245651866E+02 -0.76132504990E+02  0.10476717405E+03  0.18309860880E+03  0.12509000000E+03 0.  0.
         25    1    3    3    0    0  0.30826017813E+02  0.10945708392E+03  0.12173690153E+03  0.20832301334E+03  0.12509000000E+03 0.  0.
         25    1    4    4    0    0  0.24196340529E+01 -0.33324578926E+02  0.26902759694E+02  0.13224087405E+03  0.12509000000E+03 0.  0.
<mgrwt>
<rscale>  2 0.45826563E+03</rscale>
<asrwt>0</asrwt>
<pdfrwt beam="1">  1       21 0.57137451E-01 0.45826563E+03</pdfrwt>
<pdfrwt beam="2">  1       21 0.19871740E-01 0.45826563E+03</pdfrwt>
<totfact> 0.62016078E+04</totfact>
</mgrwt>
</event>
<event>
 7    0  0.4770865E-002  0.4614641E+03  0.7546771E-02  0.1024357E+00
         21   -1    0    0  502  501  0.00000000000E+00  0.00000000000E+00  0.67761527216E+03  0.67761527216E+03  0.00000000000E+00 0. -1.
         21   -1    0    0  501  502 -0.00000000000E+00 -0.00000000000E+00 -0.78565625384E+02  0.78565625384E+02  0.00000000000E+00 0. -1.
      99926    2    1    2    0    0  0.00000000000E+00  0.00000000000E+00  0.59904964678E+03  0.75618089755E+03  0.46146405115E+03 0.  0.
      99925    2    3    3    0    0  0.10832810324E+03 -0.43571559068E+02  0.33508051690E+03  0.44160075141E+03  0.26286652912E+03 0.  0.
         25    1    4    4    0    0  0.84574925412E+02 -0.43763431918E+02  0.21688847724E+03  0.26787361878E+03  0.12509000000E+03 0.  0.
         25    1    3    3    0    0 -0.10832810324E+03  0.43571559068E+02  0.26396912988E+03  0.31458014614E+03  0.12509000000E+03 0.  0.
         25    1    4    4    0    0  0.23753177830E+02  0.19187284989E+00  0.11819203966E+03  0.17372713263E+03  0.12509000000E+03 0.  0.
<mgrwt>
<rscale>  2 0.46146405E+03</rscale>
<asrwt>0</asrwt>
<pdfrwt beam="1">  1       21 0.99649302E-01 0.46146405E+03</pdfrwt>
<pdfrwt beam="2">  1       21 0.11553769E-01 0.46146405E+03</pdfrwt>
<totfact> 0.47497544E+04</totfact>
</mgrwt>
</event>
<event>
 6    0  0.4770865E-002  0.4448207E+03  0.7546771E-02  0.1029278E+00
         21   -1    0    0  502  501  0.00000000000E+00  0.00000000000E+00  0.49916606624E+02  0.49916606624E+02  0.00000000000E+00 0. -1.
         21   -1    0    0  501  502 -0.00000000000E+00 -0.00000000000E+00 -0.99098009201E+03  0.99098009201E+03  0.00000000000E+00 0. -1.
      99926    2    1    2    0    0  0.88817841970E-15 -0.44408920985E-15 -0.94106348538E+03  0.10408966986E+04  0.44482069837E+03 0.  0.
         25    1    3    3    0    0  0.42117473525E+01  0.20451883835E+01 -0.59743049937E+03  0.61040366258E+03  0.12509000000E+03 0.  0.
         25    1    3    3    0    0 -0.21326476630E+02  0.80003225567E+01 -0.12801240463E+03  0.18042590614E+03  0.12509000000E+03 0.  0.
         25    1    3    3    0    0  0.17114729278E+02 -0.10045510940E+02 -0.21562058138E+03  0.25006712992E+03  0.12509000000E+03 0.  0.
<mgrwt>
<rscale>  2 0.44482070E+03</rscale>
<asrwt>0</asrwt>
<pdfrwt beam="1">  1       21 0.73406781E-02 0.44482070E+03</pdfrwt>
<pdfrwt beam="2">  1       21 0.14573235E+00 0.44482070E+03</pdfrwt>
<totfact> 0.40756650E+04</totfact>
</mgrwt>
</event>
<event>
 7    0  0.4770865E-002  0.4559810E+03  0.7546771E-02  0.1025953E+00
         21   -1    0    0  502  501  0.00000000000E+00  0.00000000000E+00  0.19989558260E+03  0.19989558260E+03  0.00000000000E+00 0.  1.
         21   -1    0    0  501  502 -0.00000000000E+00 -0.00000000000E+00 -0.26003412972E+03  0.26003412972E+03  0.00000000000E+00 0.  1.
      99926    2    1    2    0    0  0.71054273576E-14  0.00000000000E+00 -0.60138547124E+02  0.45992971232E+03  0.45598102529E+03 0.  0.
      99925    2    3    3    0    0 -0.54028429500E+02 -0.74024393345E+02  0.30915901948E+02  0.28010451163E+03  0.26287651557E+03 0.  0.
         25    1    4    4    0    0 -0.59772142792E+02 -0.60000989226E+02  0.32525361873E+01  0.15109902334E+03  0.12509000000E+03 0.  0.
         25    1    3    3    0    0  0.54028429500E+02  0.74024393345E+02 -0.91054449072E+02  0.17982520068E+03  0.12509000000E+03 0.  0.
         25    1    4    4    0    0  0.57437132912E+01 -0.14023404119E+02  0.27663365761E+02  0.12900548830E+03  0.12509000000E+03 0.  0.
<mgrwt>
<rscale>  2 0.45598103E+03</rscale>
<asrwt>0</asrwt>
<pdfrwt beam="1">  1       21 0.29396409E-01 0.45598103E+03</pdfrwt>
<pdfrwt beam="2">  1       21 0.38240313E-01 0.45598103E+03</pdfrwt>
<totfact> 0.67654833E+04</totfact>
</mgrwt>
</event>
<event>
 7    0  0.4770865E-002  0.4549082E+03  0.7546771E-02  0.1026268E+00
         21   -1    0    0  502  501  0.00000000000E+00  0.00000000000E+00  0.46978841848E+03  0.46978841848E+03  0.00000000000E+00 0.  1.
         21   -1    0    0  501  502 -0.00000000000E+00 -0.00000000000E+00 -0.11012480496E+03  0.11012480496E+03  0.00000000000E+00 0.  1.
      99926    2    1    2    0    0  0.00000000000E+00  0.00000000000E+00  0.35966361353E+03  0.57991322344E+03  0.45490815758E+03 0.  0.
      99925    2    3    3    0    0  0.95189167638E+02  0.60997055252E+02  0.22966274593E+03  0.36700631406E+03  0.26299627243E+03 0.  0.
         25    1    4    4    0    0  0.52405774857E+02  0.32098390062E+02  0.16802637127E+03  0.21830492763E+03  0.12509000000E+03 0.  0.
         25    1    3    3    0    0 -0.95189167638E+02 -0.60997055252E+02  0.13000086760E+03  0.21290690938E+03  0.12509000000E+03 0.  0.
         25    1    4    4    0    0  0.42783392780E+02  0.28898665190E+02  0.61636374655E+02  0.14870138644E+03  0.12509000000E+03 0.  0.
<mgrwt>
<rscale>  2 0.45490816E+03</rscale>
<asrwt>0</asrwt>
<pdfrwt beam="1">  1       21 0.69086531E-01 0.45490816E+03</pdfrwt>
<pdfrwt beam="2">  1       21 0.16194824E-01 0.45490816E+03</pdfrwt>
<totfact> 0.59975549E+04</totfact>
</mgrwt>
</event>
<event>
 7    0  0.4770865E-002  0.4544014E+03  0.7546771E-02  0.1026418E+00
         21   -1    0    0  502  501  0.00000000000E+00  0.00000000000E+00  0.18382278842E+03  0.18382278842E+03  0.00000000000E+00 0.  1.
         21   -1    0    0  501  502 -0.00000000000E+00 -0.00000000000E+00 -0.28081477057E+03  0.28081477057E+03  0.00000000000E+00 0.  1.
      99926    2    1    2    0    0  0.00000000000E+00  0.00000000000E+00 -0.96991982147E+02  0.46463755899E+03  0.45440138273E+03 0.  0.
      99925    2    3    3    0    0  0.49285553767E+02  0.10098379538E+03 -0.64599404407E+02  0.29339626744E+03  0.26321377996E+03 0.  0.
         25    1    3    3    0    0 -0.49285553767E+02 -0.10098379538E+03 -0.32392577741E+02  0.17124129155E+03  0.12509000000E+03 0.  0.
         25    1    4    4    0    0  0.19455513082E+00  0.42619708000E+02  0.26859152889E+01  0.13217866546E+03  0.12509000000E+03 0.  0.
         25    1    4    4    0    0  0.49090998636E+02  0.58364087377E+02 -0.67285319695E+02  0.16121760198E+03  0.12509000000E+03 0.  0.
<mgrwt>
<rscale>  2 0.45440138E+03</rscale>
<asrwt>0</asrwt>
<pdfrwt beam="1">  1       21 0.27032763E-01 0.45440138E+03</pdfrwt>
<pdfrwt beam="2">  1       21 0.41296290E-01 0.45440138E+03</pdfrwt>
<totfact> 0.68160335E+04</totfact>
</mgrwt>
</event>
<event>
 7    0  0.4770865E-002  0.4542064E+03  0.7546771E-02  0.1026475E+00
         21   -1    0    0  502  501  0.00000000000E+00  0.00000000000E+00  0.34283569152E+03  0.34283569152E+03  0.00000000000E+00 0.  1.
         21   -1    0    0  501  502 -0.00000000000E+00 -0.00000000000E+00 -0.15043900467E+03  0.15043900467E+03  0.00000000000E+00 0.  1.
      99926    2    1    2    0    0 -0.17763568394E-14  0.00000000000E+00  0.19239668686E+03  0.49327469619E+03  0.45420638567E+03 0.  0.
      99925    2    3    3    0    0  0.13284673422E+02 -0.10912213593E+03  0.95631023891E+02  0.30067348974E+03  0.26301165678E+03 0.  0.
         25    1    4    4    0    0 -0.18210224926E+02 -0.46948811001E+02  0.79591082420E+02  0.15658241168E+03  0.12509000000E+03 0.  0.
         25    1    3    3    0    0 -0.13284673422E+02  0.10912213593E+03  0.96765662966E+02  0.19260120645E+03  0.12509000000E+03 0.  0.
         25    1    4    4    0    0  0.31494898348E+02 -0.62173324926E+02  0.16039941471E+02  0.14409107806E+03  0.12509000000E+03 0.  0.
<mgrwt>
<rscale>  2 0.45420639E+03</rscale>
<asrwt>0</asrwt>
<pdfrwt beam="1">  1       21 0.50417013E-01 0.45420639E+03</pdfrwt>
<pdfrwt beam="2">  1       21 0.22123383E-01 0.45420639E+03</pdfrwt>
<totfact> 0.66161608E+04</totfact>
</mgrwt>
</event>
<event>
 7    0  0.4770865E-002  0.4615329E+03  0.7546771E-02  0.1024338E+00
         21   -1    0    0  502  501  0.00000000000E+00  0.00000000000E+00  0.39018169188E+02  0.39018169188E+02  0.00000000000E+00 0.  1.
         21   -1    0    0  501  502 -0.00000000000E+00 -0.00000000000E+00 -0.13648297191E+04  0.13648297191E+04  0.00000000000E+00 0.  1.
      99926    2    1    2    0    0 -0.14210854715E-13  0.00000000000E+00 -0.13258115499E+04  0.14038478883E+04  0.46153291060E+03 0.  0.
      99925    2    3    3    0    0 -0.75618118746E+02  0.88781500209E+02 -0.90431851822E+03  0.94898072248E+03  0.26300603527E+03 0.  0.
         25    1    4    4    0    0 -0.72123340320E+02  0.30169434018E+02 -0.52261921373E+03  0.54303804805E+03  0.12509000000E+03 0.  0.
         25    1    3    3    0    0  0.75618118746E+02 -0.88781500209E+02 -0.42149303168E+03  0.45486716579E+03  0.12509000000E+03 0.  0.
         25    1    4    4    0    0 -0.34947784267E+01  0.58612066192E+02 -0.38169930449E+03  0.40594267443E+03  0.12509000000E+03 0.  0.
<mgrwt>
<rscale>  2 0.46153291E+03</rscale>
<asrwt>0</asrwt>
<pdfrwt beam="1">  1       21 0.57379649E-02 0.46153291E+03</pdfrwt>
<pdfrwt beam="2">  1       21 0.20071029E+00 0.46153291E+03</pdfrwt>
<totfact> 0.24939301E+04</totfact>
</mgrwt>
</event>
<event>
 7    0  0.4770865E-002  0.4504891E+03  0.7546771E-02  0.1027576E+00
         21   -1    0    0  502  501  0.00000000000E+00  0.00000000000E+00  0.29512027655E+03  0.29512027655E+03  0.00000000000E+00 0.  1.
         21   -1    0    0  501  502 -0.00000000000E+00 -0.00000000000E+00 -0.17191332146E+03  0.17191332146E+03  0.00000000000E+00 0.  1.
      99926    2    1    2    0    0  0.00000000000E+00 -0.35527136788E-14  0.12320695509E+03  0.46703359801E+03  0.45048909852E+03 0.  0.
      99925    2    3    3    0    0  0.10530526675E+03  0.16682005559E+02  0.55003200498E+02  0.28908206316E+03  0.26301254468E+03 0.  0.
         25    1    3    3    0    0 -0.10530526675E+03 -0.16682005559E+02  0.68203754591E+02  0.17795153485E+03  0.12509000000E+03 0.  0.
         25    1    4    4    0    0  0.66160426614E+02  0.24264757422E+02  0.64606279543E+02  0.15744033778E+03  0.12509000000E+03 0.  0.
         25    1    4    4    0    0  0.39144840133E+02 -0.75827518624E+01 -0.96030790449E+01  0.13164172538E+03  0.12509000000E+03 0.  0.
<mgrwt>
<rscale>  2 0.45048910E+03</rscale>
<asrwt>0</asrwt>
<pdfrwt beam="1">  1       21 0.43400041E-01 0.45048910E+03</pdfrwt>
<pdfrwt beam="2">  1       21 0.25281371E-01 0.45048910E+03</pdfrwt>
<totfact> 0.70133340E+04</totfact>
</mgrwt>
</event>
<event>
 7    0  0.4770865E-002  0.4411181E+03  0.7546771E-02  0.1030404E+00
         21   -1    0    0  502  501  0.00000000000E+00  0.00000000000E+00  0.33332640264E+03  0.33332640264E+03  0.00000000000E+00 0. -1.
         21   -1    0    0  501  502 -0.00000000000E+00 -0.00000000000E+00 -0.14594192785E+03  0.14594192785E+03  0.00000000000E+00 0. -1.
      99926    2    1    2    0    0  0.00000000000E+00 -0.14210854715E-13  0.18738447479E+03  0.47926833048E+03  0.44111811481E+03 0.  0.
      99925    2    3    3    0    0 -0.29167970027E+02 -0.92593677064E+02  0.14436052486E+03  0.31518625384E+03  0.26282704192E+03 0.  0.
         25    1    3    3    0    0  0.29167970027E+02  0.92593677064E+02  0.43023949932E+02  0.16408207664E+03  0.12509000000E+03 0.  0.
         25    1    4    4    0    0 -0.12986079402E+02 -0.13168564427E+02  0.37872913965E+02  0.13199967826E+03  0.12509000000E+03 0.  0.
         25    1    4    4    0    0 -0.16181890625E+02 -0.79425112637E+02  0.10648761089E+03  0.18318657559E+03  0.12509000000E+03 0.  0.
<mgrwt>
<rscale>  2 0.44111811E+03</rscale>
<asrwt>0</asrwt>
<pdfrwt beam="1">  1       21 0.49018589E-01 0.44111811E+03</pdfrwt>
<pdfrwt beam="2">  1       21 0.21462048E-01 0.44111811E+03</pdfrwt>
<totfact> 0.74646516E+04</totfact>
</mgrwt>
</event>
<event>
 7    0  0.4770865E-002  0.4517084E+03  0.7546771E-02  0.1027214E+00
         21   -1    0    0  502  501  0.00000000000E+00  0.00000000000E+00  0.34271211964E+03  0.34271211964E+03  0.00000000000E+00 0. -1.
         21   -1    0    0  501  502 -0.00000000000E+00 -0.00000000000E+00 -0.14884247160E+03  0.14884247160E+03  0.00000000000E+00 0. -1.
      99926    2    1    2    0    0  0.00000000000E+00  0.17763568394E-14  0.19386964804E+03  0.49155459125E+03  0.45170839681E+03 0.  0.
      99925    2    3    3    0    0 -0.73545207799E+02 -0.12567486991E+02  0.34606953905E+02  0.27573301410E+03  0.26318095388E+03 0.  0.
         25    1    4    4    0    0 -0.20766214983E+02 -0.25015827912E+02  0.49890358766E+02  0.13854090850E+03  0.12509000000E+03 0.  0.
         25    1    3    3    0    0  0.73545207799E+02  0.12567486991E+02  0.15926269413E+03  0.21582157715E+03  0.12509000000E+03 0.  0.
         25    1    4    4    0    0 -0.52778992815E+02  0.12448340922E+02 -0.15283404861E+02  0.13719210560E+03  0.12509000000E+03 0.  0.
<mgrwt>
<rscale>  2 0.45170840E+03</rscale>
<asrwt>0</asrwt>
<pdfrwt beam="1">  1       21 0.50398841E-01 0.45170840E+03</pdfrwt>
<pdfrwt beam="2">  1       21 0.21888599E-01 0.45170840E+03</pdfrwt>
<totfact> 0.67617850E+04</totfact>
</mgrwt>
</event>
<event>
 7    0  0.4770865E-002  0.4633659E+03  0.7546771E-02  0.1023810E+00
         21   -1    0    0  502  501  0.00000000000E+00  0.00000000000E+00  0.57620521615E+03  0.57620521615E+03  0.00000000000E+00 0. -1.
         21   -1    0    0  501  502 -0.00000000000E+00 -0.00000000000E+00 -0.93156041302E+02  0.93156041302E+02  0.00000000000E+00 0. -1.
      99926    2    1    2    0    0  0.88817841970E-15 -0.28421709430E-13  0.48304917485E+03  0.66936125746E+03  0.46336593278E+03 0.  0.
      99925    2    3    3    0    0  0.40282591822E+01 -0.11925925432E+03  0.27464105776E+03  0.39858376950E+03  0.26306332715E+03 0.  0.
         25    1    3    3    0    0 -0.40282591822E+01  0.11925925432E+03  0.20840811709E+03  0.27077748796E+03  0.12509000000E+03 0.  0.
         25    1    4    4    0    0  0.19764687791E+02 -0.88672022526E+02  0.11393153466E+03  0.19204497690E+03  0.12509000000E+03 0.  0.
         25    1    4    4    0    0 -0.15736428609E+02 -0.30587231794E+02  0.16070952310E+03  0.20653879260E+03  0.12509000000E+03 0.  0.
<mgrwt>
<rscale>  2 0.46336593E+03</rscale>
<asrwt>0</asrwt>
<pdfrwt beam="1">  1       21 0.84736060E-01 0.46336593E+03</pdfrwt>
<pdfrwt beam="2">  1       21 0.13699418E-01 0.46336593E+03</pdfrwt>
<totfact> 0.51140864E+04</totfact>
</mgrwt>
</event>
<event>
 7    0  0.4770865E-002  0.4605870E+03  0.7546771E-02  0.1024611E+00
         21   -1    0    0  502  501  0.00000000000E+00  0.00000000000E+00  0.13636883409E+04  0.13636883409E+04  0.00000000000E+00 0. -1.
         21   -1    0    0  501  502 -0.00000000000E+00 -0.00000000000E+00 -0.38890927848E+02  0.38890927848E+02  0.00000000000E+00 0. -1.
      99926    2    1    2    0    0  0.00000000000E+00  0.00000000000E+00  0.13247974130E+04  0.14025792687E+04  0.46058703791E+03 0.  0.
      99925    2    3    3    0    0 -0.99251783754E+02 -0.61025441990E+02  0.89232038905E+03  0.93754281261E+03  0.26301297992E+03 0.  0.
         25    1    4    4    0    0 -0.60167025043E+02 -0.41913653092E+02  0.34118127036E+03  0.37071416558E+03  0.12509000000E+03 0.  0.
         25    1    4    4    0    0 -0.39084758712E+02 -0.19111788898E+02  0.55113911869E+03  0.56682864702E+03  0.12509000000E+03 0.  0.
         25    1    3    3    0    0  0.99251783754E+02  0.61025441990E+02  0.43247702396E+03  0.46503645610E+03  0.12509000000E+03 0.  0.
<mgrwt>
<rscale>  2 0.46058704E+03</rscale>
<asrwt>0</asrwt>
<pdfrwt beam="1">  1       21 0.20054237E+00 0.46058704E+03</pdfrwt>
<pdfrwt beam="2">  1       21 0.57192550E-02 0.46058704E+03</pdfrwt>
<totfact> 0.25153409E+04</totfact>
</mgrwt>
</event>
<event>
 7    0  0.4770865E-002  0.4583967E+03  0.7546771E-02  0.1025247E+00
         21   -1    0    0  502  501  0.00000000000E+00  0.00000000000E+00  0.74127439595E+03  0.74127439595E+03  0.00000000000E+00 0. -1.
         21   -1    0    0  501  502 -0.00000000000E+00 -0.00000000000E+00 -0.70866986273E+02  0.70866986273E+02  0.00000000000E+00 0. -1.
      99926    2    1    2    0    0  0.00000000000E+00 -0.14210854715E-13  0.67040740967E+03  0.81214138222E+03  0.45839669476E+03 0.  0.
      99925    2    3    3    0    0  0.81464848488E+02  0.69367595498E+02  0.33969298591E+03  0.44272573145E+03  0.26299498811E+03 0.  0.
         25    1    3    3    0    0 -0.81464848488E+02 -0.69367595498E+02  0.33071442377E+03  0.36941565077E+03  0.12509000000E+03 0.  0.
         25    1    4    4    0    0  0.61270268949E+02  0.26816730699E+01  0.14538878355E+03  0.20136197186E+03  0.12509000000E+03 0.  0.
         25    1    4    4    0    0  0.20194579539E+02  0.66685922428E+02  0.19430420236E+03  0.24136375960E+03  0.12509000000E+03 0.  0.
<mgrwt>
<rscale>  2 0.45839669E+03</rscale>
<asrwt>0</asrwt>
<pdfrwt beam="1">  1       21 0.10901094E+00 0.45839669E+03</pdfrwt>
<pdfrwt beam="2">  1       21 0.10421616E-01 0.45839669E+03</pdfrwt>
<totfact> 0.45946192E+04</totfact>
</mgrwt>
</event>
<event>
 7    0  0.4770865E-002  0.4569975E+03  0.7546771E-02  0.1025656E+00
         21   -1    0    0  502  501  0.00000000000E+00  0.00000000000E+00  0.26848237972E+03  0.26848237972E+03  0.00000000000E+00 0.  1.
         21   -1    0    0  501  502 -0.00000000000E+00 -0.00000000000E+00 -0.19446965158E+03  0.19446965158E+03  0.00000000000E+00 0.  1.
      99926    2    1    2    0    0  0.00000000000E+00  0.00000000000E+00  0.74012728134E+02  0.46295203130E+03  0.45699748288E+03 0.  0.
      99925    2    3    3    0    0 -0.11492373514E+03  0.16034723754E+01  0.51257981274E+02  0.29155972510E+03  0.26300124835E+03 0.  0.
         25    1    4    4    0    0 -0.13237797826E+02  0.92474946722E-02  0.23980631985E+02  0.12805396592E+03  0.12509000000E+03 0.  0.
         25    1    4    4    0    0 -0.10168593731E+03  0.15942248807E+01  0.27277349289E+02  0.16350575918E+03  0.12509000000E+03 0.  0.
         25    1    3    3    0    0  0.11492373514E+03 -0.16034723754E+01  0.22754746861E+02  0.17139230621E+03  0.12509000000E+03 0.  0.
<mgrwt>
<rscale>  2 0.45699748E+03</rscale>
<asrwt>0</asrwt>
<pdfrwt beam="1">  1       21 0.39482703E-01 0.45699748E+03</pdfrwt>
<pdfrwt beam="2">  1       21 0.28598478E-01 0.45699748E+03</pdfrwt>
<totfact> 0.66893852E+04</totfact>
</mgrwt>
</event>
<event>
 7    0  0.4770865E-002  0.4556433E+03  0.7546771E-02  0.1026052E+00
         21   -1    0    0  502  501  0.00000000000E+00  0.00000000000E+00  0.24580048581E+02  0.24580048581E+02  0.00000000000E+00 0.  1.
         21   -1    0    0  501  502 -0.00000000000E+00 -0.00000000000E+00 -0.21115787875E+04  0.21115787875E+04  0.00000000000E+00 0.  1.
      99926    2    1    2    0    0  0.00000000000E+00  0.00000000000E+00 -0.20869987389E+04  0.21361588361E+04  0.45564332182E+03 0.  0.
      99925    2    3    3    0    0  0.77584194868E+02  0.40066163689E+02 -0.16556877706E+04  0.16786642850E+04  0.26265411342E+03 0.  0.
         25    1    4    4    0    0  0.76866220475E+02  0.26667787180E+02 -0.99156848193E+03  0.10027338377E+04  0.12509000000E+03 0.  0.
         25    1    3    3    0    0 -0.77584194868E+02 -0.40066163689E+02 -0.43131096835E+03  0.45749455110E+03  0.12509000000E+03 0.  0.
         25    1    4    4    0    0  0.71797439302E+00  0.13398376509E+02 -0.66411928865E+03  0.67593044734E+03  0.12509000000E+03 0.  0.
<mgrwt>
<rscale>  2 0.45564332E+03</rscale>
<asrwt>0</asrwt>
<pdfrwt beam="1">  1       21 0.36147134E-02 0.45564332E+03</pdfrwt>
<pdfrwt beam="2">  1       21 0.31052626E+00 0.45564332E+03</pdfrwt>
<totfact> 0.11553621E+04</totfact>
</mgrwt>
</event>
<event>
 7    0  0.4770865E-002  0.4535892E+03  0.7546771E-02  0.1026657E+00
         21   -1    0    0  502  501  0.00000000000E+00  0.00000000000E+00  0.14396468547E+03  0.14396468547E+03  0.00000000000E+00 0. -1.
         21   -1    0    0  501  502 -0.00000000000E+00 -0.00000000000E+00 -0.35728063440E+03  0.35728063440E+03  0.00000000000E+00 0. -1.
      99926    2    1    2    0    0  0.00000000000E+00 -0.14210854715E-13 -0.21331594893E+03  0.50124531988E+03  0.45358921573E+03 0.  0.
      99925    2    3    3    0    0 -0.18508532796E+02 -0.65287204807E+02 -0.23271678526E+03  0.35761772696E+03  0.26292271031E+03 0.  0.
         25    1    4    4    0    0 -0.24841254435E+02 -0.70169024425E+02 -0.11284692795E+03  0.18418120740E+03  0.12509000000E+03 0.  0.
         25    1    3    3    0    0  0.18508532796E+02  0.65287204807E+02  0.19400836326E+02  0.14362759292E+03  0.12509000000E+03 0.  0.
         25    1    4    4    0    0  0.63327216389E+01  0.48818196186E+01 -0.11986985731E+03  0.17343651956E+03  0.12509000000E+03 0.  0.
<mgrwt>
<rscale>  2 0.45358922E+03</rscale>
<asrwt>0</asrwt>
<pdfrwt beam="1">  1       21 0.21171278E-01 0.45358922E+03</pdfrwt>
<pdfrwt beam="2">  1       21 0.52541268E-01 0.45358922E+03</pdfrwt>
<totfact> 0.65918362E+04</totfact>
</mgrwt>
</event>
<event>
 7    0  0.4770865E-002  0.4577781E+03  0.7546771E-02  0.1025428E+00
         21   -1    0    0  502  501  0.00000000000E+00  0.00000000000E+00  0.23003910195E+03  0.23003910195E+03  0.00000000000E+00 0.  1.
         21   -1    0    0  501  502 -0.00000000000E+00 -0.00000000000E+00 -0.22774473141E+03  0.22774473141E+03  0.00000000000E+00 0.  1.
      99926    2    1    2    0    0  0.00000000000E+00  0.88817841970E-15  0.22943705486E+01  0.45778383336E+03  0.45777808374E+03 0.  0.
      99925    2    3    3    0    0 -0.64738058816E+02  0.67931528094E+01  0.96609044172E+02  0.28813735109E+03  0.26353873054E+03 0.  0.
         25    1    4    4    0    0 -0.24236336808E+02 -0.13799082631E+02  0.86597106929E+02  0.15467508439E+03  0.12509000000E+03 0.  0.
         25    1    4    4    0    0 -0.40501722008E+02  0.20592235440E+02  0.10011937243E+02  0.13346226670E+03  0.12509000000E+03 0.  0.
         25    1    3    3    0    0  0.64738058816E+02 -0.67931528094E+01 -0.94314673623E+02  0.16964648227E+03  0.12509000000E+03 0.  0.
<mgrwt>
<rscale>  2 0.45777808E+03</rscale>
<asrwt>0</asrwt>
<pdfrwt beam="1">  1       21 0.33829280E-01 0.45777808E+03</pdfrwt>
<pdfrwt beam="2">  1       21 0.33491872E-01 0.45777808E+03</pdfrwt>
<totfact> 0.66848222E+04</totfact>
</mgrwt>
</event>
<event>
 7    0  0.4770865E-002  0.4417963E+03  0.7546771E-02  0.1030197E+00
         21   -1    0    0  502  501  0.00000000000E+00  0.00000000000E+00  0.15435571749E+03  0.15435571749E+03  0.00000000000E+00 0. -1.
         21   -1    0    0  501  502 -0.00000000000E+00 -0.00000000000E+00 -0.31612694813E+03  0.31612694813E+03  0.00000000000E+00 0. -1.
      99926    2    1    2    0    0  0.00000000000E+00 -0.14210854715E-13 -0.16177123064E+03  0.47048266563E+03  0.44179634176E+03 0.  0.
      99925    2    3    3    0    0 -0.42052480207E+02 -0.75217628712E+02 -0.48762009678E+02  0.28115571328E+03  0.26314387465E+03 0.  0.
         25    1    4    4    0    0 -0.31688656584E+02 -0.19193836758E+02  0.11714334842E+02  0.13098590789E+03  0.12509000000E+03 0.  0.
         25    1    3    3    0    0  0.42052480207E+02  0.75217628712E+02 -0.11300922096E+03  0.18932695234E+03  0.12509000000E+03 0.  0.
         25    1    4    4    0    0 -0.10363823623E+02 -0.56023791954E+02 -0.60476344520E+02  0.15016980539E+03  0.12509000000E+03 0.  0.
<mgrwt>
<rscale>  2 0.44179634E+03</rscale>
<asrwt>0</asrwt>
<pdfrwt beam="1">  1       21 0.22699370E-01 0.44179634E+03</pdfrwt>
<pdfrwt beam="2">  1       21 0.46489257E-01 0.44179634E+03</pdfrwt>
<totfact> 0.74951611E+04</totfact>
</mgrwt>
</event>
<event>
 7    0  0.4770865E-002  0.4566457E+03  0.7546771E-02  0.1025759E+00
         21   -1    0    0  502  501  0.00000000000E+00  0.00000000000E+00  0.12692926843E+03  0.12692926843E+03  0.00000000000E+00 0.  1.
         21   -1    0    0  501  502 -0.00000000000E+00 -0.00000000000E+00 -0.41071156780E+03  0.41071156780E+03  0.00000000000E+00 0.  1.
      99926    2    1    2    0    0  0.00000000000E+00  0.00000000000E+00 -0.28378229937E+03  0.53764083622E+03  0.45664567812E+03 0.  0.
      99925    2    3    3    0    0 -0.76901834339E+02 -0.22232267590E+02 -0.82165856151E+02  0.28723144319E+03  0.26332965688E+03 0.  0.
         25    1    3    3    0    0  0.76901834339E+02  0.22232267590E+02 -0.20161644322E+03  0.25040939304E+03  0.12509000000E+03 0.  0.
         25    1    4    4    0    0 -0.17648186581E+02 -0.44502955724E+02 -0.27354519280E+02  0.13670314328E+03  0.12509000000E+03 0.  0.
         25    1    4    4    0    0 -0.59253647759E+02  0.22270688133E+02 -0.54811336871E+02  0.15052829991E+03  0.12509000000E+03 0.  0.
<mgrwt>
<rscale>  2 0.45664568E+03</rscale>
<asrwt>0</asrwt>
<pdfrwt beam="1">  1       21 0.18666069E-01 0.45664568E+03</pdfrwt>
<pdfrwt beam="2">  1       21 0.60398760E-01 0.45664568E+03</pdfrwt>
<totfact> 0.61880757E+04</totfact>
</mgrwt>
</event>
<event>
 7    0  0.4770865E-002  0.4521211E+03  0.7546771E-02  0.1027091E+00
         21   -1    0    0  502  501  0.00000000000E+00  0.00000000000E+00  0.24712373573E+02  0.24712373573E+02  0.00000000000E+00 0. -1.
         21   -1    0    0  501  502 -0.00000000000E+00 -0.00000000000E+00 -0.20679263828E+04  0.20679263828E+04  0.00000000000E+00 0. -1.
      99926    2    1    2    0    0  0.35527136788E-14  0.00000000000E+00 -0.20432140092E+04  0.20926387564E+04  0.45212108685E+03 0.  0.
      99925    2    3    3    0    0 -0.14481055106E+02 -0.47547192323E+02 -0.17459332470E+04  0.17663048842E+04  0.26282999147E+03 0.  0.
         25    1    4    4    0    0 -0.43312831531E+02 -0.36152045521E+02 -0.98993915889E+03  0.99940483197E+03  0.12509000000E+03 0.  0.
         25    1    4    4    0    0  0.28831776425E+02 -0.11395146801E+02 -0.75599408812E+03  0.76690005220E+03  0.12509000000E+03 0.  0.
         25    1    3    3    0    0  0.14481055106E+02  0.47547192323E+02 -0.29728076221E+03  0.32633387218E+03  0.12509000000E+03 0.  0.
<mgrwt>
<rscale>  2 0.45212109E+03</rscale>
<asrwt>0</asrwt>
<pdfrwt beam="1">  1       21 0.36341726E-02 0.45212109E+03</pdfrwt>
<pdfrwt beam="2">  1       21 0.30410682E+00 0.45212109E+03</pdfrwt>
<totfact> 0.12533477E+04</totfact>
</mgrwt>
</event>
<event>
 7    0  0.4770865E-002  0.4535809E+03  0.7546771E-02  0.1026660E+00
         21   -1    0    0  502  501  0.00000000000E+00  0.00000000000E+00  0.15640681899E+03  0.15640681899E+03  0.00000000000E+00 0. -1.
         21   -1    0    0  501  502 -0.00000000000E+00 -0.00000000000E+00 -0.32884702528E+03  0.32884702528E+03  0.00000000000E+00 0. -1.
      99926    2    1    2    0    0  0.00000000000E+00  0.00000000000E+00 -0.17244020629E+03  0.48525384427E+03  0.45358093945E+03 0.  0.
      99925    2    3    3    0    0  0.24302172385E+02  0.10491557544E+03 -0.14093290660E+03  0.31721191026E+03  0.26298942620E+03 0.  0.
         25    1    3    3    0    0 -0.24302172385E+02 -0.10491557544E+03 -0.31507299689E+02  0.16804193401E+03  0.12509000000E+03 0.  0.
         25    1    4    4    0    0  0.10236564535E+02  0.73798911745E+02 -0.34926879212E+02  0.14972795871E+03  0.12509000000E+03 0.  0.
         25    1    4    4    0    0  0.14065607850E+02  0.31116663697E+02 -0.10600602739E+03  0.16748395155E+03  0.12509000000E+03 0.  0.
<mgrwt>
<rscale>  2 0.45358094E+03</rscale>
<asrwt>0</asrwt>
<pdfrwt beam="1">  1       21 0.23001003E-01 0.45358094E+03</pdfrwt>
<pdfrwt beam="2">  1       21 0.48359857E-01 0.45358094E+03</pdfrwt>
<totfact> 0.67072005E+04</totfact>
</mgrwt>
</event>
<event>
 7    0  0.4770865E-002  0.4574794E+03  0.7546771E-02  0.1025515E+00
         21   -1    0    0  502  501  0.00000000000E+00  0.00000000000E+00  0.63898309784E+02  0.63898309784E+02  0.00000000000E+00 0.  1.
         21   -1    0    0  501  502 -0.00000000000E+00 -0.00000000000E+00 -0.81883002350E+03  0.81883002350E+03  0.00000000000E+00 0.  1.
      99926    2    1    2    0    0 -0.35527136788E-14  0.00000000000E+00 -0.75493171371E+03  0.88272833328E+03  0.45747941812E+03 0.  0.
      99925    2    3    3    0    0  0.29931129238E+02  0.11099325305E+03 -0.49648692387E+03  0.57344433399E+03  0.26291398573E+03 0.  0.
         25    1    4    4    0    0  0.43194850276E+02  0.79428011837E+02 -0.30995285106E+03  0.34625551568E+03  0.12509000000E+03 0.  0.
         25    1    4    4    0    0 -0.13263721038E+02  0.31565241213E+02 -0.18653407281E+03  0.22718881832E+03  0.12509000000E+03 0.  0.
         25    1    3    3    0    0 -0.29931129238E+02 -0.11099325305E+03 -0.25844478984E+03  0.30928399929E+03  0.12509000000E+03 0.  0.
<mgrwt>
<rscale>  2 0.45747942E+03</rscale>
<asrwt>0</asrwt>
<pdfrwt beam="1">  1       21 0.93968105E-02 0.45747942E+03</pdfrwt>
<pdfrwt beam="2">  1       21 0.12041618E+00 0.45747942E+03</pdfrwt>
<totfact> 0.43145006E+04</totfact>
</mgrwt>
</event>
<event>
 7    0  0.4770865E-002  0.4347968E+03  0.7546771E-02  0.1032355E+00
         21   -1    0    0  502  501  0.00000000000E+00  0.00000000000E+00  0.10729201470E+03  0.10729201470E+03  0.00000000000E+00 0.  1.
         21   -1    0    0  501  502 -0.00000000000E+00 -0.00000000000E+00 -0.44049942490E+03  0.44049942490E+03  0.00000000000E+00 0.  1.
      99926    2    1    2    0    0  0.00000000000E+00 -0.35527136788E-14 -0.33320741020E+03  0.54779143960E+03  0.43479682967E+03 0.  0.
      99925    2    3    3    0    0 -0.85551013318E+02 -0.21721606493E+02 -0.17773499615E+03  0.32959431840E+03  0.26315752279E+03 0.  0.
         25    1    3    3    0    0  0.85551013318E+02  0.21721606493E+02 -0.15547241405E+03  0.21819712120E+03  0.12509000000E+03 0.  0.
         25    1    4    4    0    0 -0.24569605446E+01  0.28268395718E+01 -0.73226869886E+02  0.14499555252E+03  0.12509000000E+03 0.  0.
         25    1    4    4    0    0 -0.83094052774E+02 -0.24548446065E+02 -0.10450812626E+03  0.18459876588E+03  0.12509000000E+03 0.  0.
<mgrwt>
<rscale>  2 0.43479683E+03</rscale>
<asrwt>0</asrwt>
<pdfrwt beam="1">  1       21 0.15778237E-01 0.43479683E+03</pdfrwt>
<pdfrwt beam="2">  1       21 0.64779327E-01 0.43479683E+03</pdfrwt>
<totfact> 0.73000683E+04</totfact>
</mgrwt>
</event>
<event>
 7    0  0.4770865E-002  0.4654450E+03  0.7546771E-02  0.1023214E+00
         21   -1    0    0  502  501  0.00000000000E+00  0.00000000000E+00  0.75250921257E+02  0.75250921257E+02  0.00000000000E+00 0. -1.
         21   -1    0    0  501  502 -0.00000000000E+00 -0.00000000000E+00 -0.71972211341E+03  0.71972211341E+03  0.00000000000E+00 0. -1.
      99926    2    1    2    0    0  0.14210854715E-13  0.00000000000E+00 -0.64447119216E+03  0.79497303467E+03  0.46544495736E+03 0.  0.
      99925    2    3    3    0    0  0.12047572597E+03  0.10618925660E+02 -0.43755616699E+03  0.52462418990E+03  0.26296003351E+03 0.  0.
         25    1    4    4    0    0  0.16351928049E+02  0.45956135976E+00 -0.18093247401E+03  0.22057122432E+03  0.12509000000E+03 0.  0.
         25    1    3    3    0    0 -0.12047572597E+03 -0.10618925660E+02 -0.20691502517E+03  0.27034884477E+03  0.12509000000E+03 0.  0.
         25    1    4    4    0    0  0.10412379792E+03  0.10159364300E+02 -0.25662369298E+03  0.30405296558E+03  0.12509000000E+03 0.  0.
<mgrwt>
<rscale>  2 0.46544496E+03</rscale>
<asrwt>0</asrwt>
<pdfrwt beam="1">  1       21 0.11066312E-01 0.46544496E+03</pdfrwt>
<pdfrwt beam="2">  1       21 0.10584149E+00 0.46544496E+03</pdfrwt>
<totfact> 0.44267150E+04</totfact>
</mgrwt>
</event>
<event>
 7    0  0.4770865E-002  0.4542662E+03  0.7546771E-02  0.1026457E+00
         21   -1    0    0  502  501  0.00000000000E+00  0.00000000000E+00  0.84152611076E+02  0.84152611076E+02  0.00000000000E+00 0. -1.
         21   -1    0    0  501  502 -0.00000000000E+00 -0.00000000000E+00 -0.61304621105E+03  0.61304621105E+03  0.00000000000E+00 0. -1.
      99926    2    1    2    0    0  0.71054273576E-14  0.00000000000E+00 -0.52889359997E+03  0.69719882213E+03  0.45426617471E+03 0.  0.
      99925    2    3    3    0    0 -0.34971193904E+02  0.53347910370E+02 -0.19029801327E+03  0.33064260082E+03  0.26275884700E+03 0.  0.
         25    1    4    4    0    0  0.22136481864E+02  0.27812937049E+02 -0.10162335645E+03  0.16504059493E+03  0.12509000000E+03 0.  0.
         25    1    4    4    0    0 -0.57107675768E+02  0.25534973321E+02 -0.88674656815E+02  0.16560200589E+03  0.12509000000E+03 0.  0.
         25    1    3    3    0    0  0.34971193904E+02 -0.53347910370E+02 -0.33859558671E+03  0.36655622131E+03  0.12509000000E+03 0.  0.
<mgrwt>
<rscale>  2 0.45426617E+03</rscale>
<asrwt>0</asrwt>
<pdfrwt beam="1">  1       21 0.12375384E-01 0.45426617E+03</pdfrwt>
<pdfrwt beam="2">  1       21 0.90153854E-01 0.45426617E+03</pdfrwt>
<totfact> 0.53362849E+04</totfact>
</mgrwt>
</event>
<event>
 7    0  0.4770865E-002  0.4575267E+03  0.7546771E-02  0.1025501E+00
         21   -1    0    0  502  501  0.00000000000E+00  0.00000000000E+00  0.64391249547E+03  0.64391249547E+03  0.00000000000E+00 0. -1.
         21   -1    0    0  501  502 -0.00000000000E+00 -0.00000000000E+00 -0.81272950835E+02  0.81272950835E+02  0.00000000000E+00 0. -1.
      99926    2    1    2    0    0  0.71054273576E-14  0.00000000000E+00  0.56263954464E+03  0.72518544631E+03  0.45752669250E+03 0.  0.
      99925    2    3    3    0    0 -0.44322919947E+02  0.59226861220E+02  0.49392738524E+03  0.56443342837E+03  0.26296100632E+03 0.  0.
         25    1    4    4    0    0 -0.25208520914E+02  0.65683354398E+02  0.30324191226E+03  0.33548910269E+03  0.12509000000E+03 0.  0.
         25    1    3    3    0    0  0.44322919947E+02 -0.59226861220E+02  0.68712159394E+02  0.16075201794E+03  0.12509000000E+03 0.  0.
         25    1    4    4    0    0 -0.19114399034E+02 -0.64564931780E+01  0.19068547298E+03  0.22894432568E+03  0.12509000000E+03 0.  0.
<mgrwt>
<rscale>  2 0.45752669E+03</rscale>
<asrwt>0</asrwt>
<pdfrwt beam="1">  1       21 0.94693011E-01 0.45752669E+03</pdfrwt>
<pdfrwt beam="2">  1       21 0.11951905E-01 0.45752669E+03</pdfrwt>
<totfact> 0.50544929E+04</totfact>
</mgrwt>
</event>
<event>
 7    0  0.4770865E-002  0.4599052E+03  0.7546771E-02  0.1024809E+00
         21   -1    0    0  502  501  0.00000000000E+00  0.00000000000E+00  0.15989094214E+04  0.15989094214E+04  0.00000000000E+00 0. -1.
         21   -1    0    0  501  502 -0.00000000000E+00 -0.00000000000E+00 -0.33071419032E+02  0.33071419032E+02  0.00000000000E+00 0. -1.
      99926    2    1    2    0    0  0.00000000000E+00  0.00000000000E+00  0.15658380024E+04  0.16319808404E+04  0.45990522271E+03 0.  0.
      99925    2    3    3    0    0  0.79359316296E+02 -0.85488175476E+02  0.10351859439E+04  0.10744458689E+04  0.26309286860E+03 0.  0.
         25    1    3    3    0    0 -0.79359316296E+02  0.85488175476E+02  0.53065205843E+03  0.55753497150E+03  0.12509000000E+03 0.  0.
         25    1    4    4    0    0  0.49825188958E+02 -0.65275774019E+02  0.42587430634E+03  0.45139772820E+03  0.12509000000E+03 0.  0.
         25    1    4    4    0    0  0.29534127337E+02 -0.20212401457E+02  0.60931163759E+03  0.62304814072E+03  0.12509000000E+03 0.  0.
<mgrwt>
<rscale>  2 0.45990522E+03</rscale>
<asrwt>0</asrwt>
<pdfrwt beam="1">  1       21 0.23513369E+00 0.45990522E+03</pdfrwt>
<pdfrwt beam="2">  1       21 0.48634450E-02 0.45990522E+03</pdfrwt>
<totfact> 0.19946085E+04</totfact>
</mgrwt>
</event>
<event>
 7    0  0.4770865E-002  0.4607666E+03  0.7546771E-02  0.1024559E+00
         21   -1    0    0  502  501  0.00000000000E+00  0.00000000000E+00  0.16354090452E+03  0.16354090452E+03  0.00000000000E+00 0.  1.
         21   -1    0    0  501  502 -0.00000000000E+00 -0.00000000000E+00 -0.32454547670E+03  0.32454547670E+03  0.00000000000E+00 0.  1.
      99926    2    1    2    0    0  0.00000000000E+00  0.00000000000E+00 -0.16100457218E+03  0.48808638122E+03  0.46076658220E+03 0.  0.
      99925    2    3    3    0    0 -0.98945845953E+01 -0.88710671236E+02 -0.18291842027E+02  0.27836771863E+03  0.26303328552E+03 0.  0.
         25    1    3    3    0    0  0.98945845953E+01  0.88710671236E+02 -0.14271273015E+03  0.20971866260E+03  0.12509000000E+03 0.  0.
         25    1    4    4    0    0  0.23936058928E+02 -0.16132884945E+02 -0.19426723587E+02  0.12983878690E+03  0.12509000000E+03 0.  0.
         25    1    4    4    0    0 -0.33830643523E+02 -0.72577786290E+02  0.11348815599E+01  0.14852893173E+03  0.12509000000E+03 0.  0.
<mgrwt>
<rscale>  2 0.46076658E+03</rscale>
<asrwt>0</asrwt>
<pdfrwt beam="1">  1       21 0.24050133E-01 0.46076658E+03</pdfrwt>
<pdfrwt beam="2">  1       21 0.47727276E-01 0.46076658E+03</pdfrwt>
<totfact> 0.63174194E+04</totfact>
</mgrwt>
</event>
<event>
 7    0  0.4770865E-002  0.4598840E+03  0.7546771E-02  0.1024815E+00
         21   -1    0    0  502  501  0.00000000000E+00  0.00000000000E+00  0.31621428853E+02  0.31621428853E+02  0.00000000000E+00 0. -1.
         21   -1    0    0  501  502 -0.00000000000E+00 -0.00000000000E+00 -0.16720728655E+04  0.16720728655E+04  0.00000000000E+00 0. -1.
      99926    2    1    2    0    0  0.17763568394E-14  0.00000000000E+00 -0.16404514367E+04  0.17036942944E+04  0.45988404258E+03 0.  0.
      99925    2    3    3    0    0  0.14183505074E+02 -0.98686576388E+02 -0.12594673637E+04  0.12904914578E+04  0.26300180671E+03 0.  0.
         25    1    3    3    0    0 -0.14183505074E+02  0.98686576388E+02 -0.38098407300E+03  0.41320283658E+03  0.12509000000E+03 0.  0.
         25    1    4    4    0    0  0.90868432701E+01 -0.28288828426E+02 -0.43483652022E+03  0.45344584677E+03  0.12509000000E+03 0.  0.
         25    1    4    4    0    0  0.50966618040E+01 -0.70397747961E+02 -0.82463084347E+03  0.83704561105E+03  0.12509000000E+03 0.  0.
<mgrwt>
<rscale>  2 0.45988404E+03</rscale>
<asrwt>0</asrwt>
<pdfrwt beam="1">  1       21 0.46502098E-02 0.45988404E+03</pdfrwt>
<pdfrwt beam="2">  1       21 0.24589309E+00 0.45988404E+03</pdfrwt>
<totfact> 0.18474404E+04</totfact>
</mgrwt>
</event>
<event>
 7    0  0.4770865E-002  0.4572747E+03  0.7546771E-02  0.1025575E+00
         21   -1    0    0  502  501  0.00000000000E+00  0.00000000000E+00  0.17648938635E+02  0.17648938635E+02  0.00000000000E+00 0. -1.
         21   -1    0    0  501  502 -0.00000000000E+00 -0.00000000000E+00 -0.29619365356E+04  0.29619365356E+04  0.00000000000E+00 0. -1.
      99926    2    1    2    0    0 -0.71054273576E-14  0.00000000000E+00 -0.29442875969E+04  0.29795854742E+04  0.45727469275E+03 0.  0.
      99925    2    3    3    0    0  0.43667976085E+02 -0.79401847685E+02 -0.13841126431E+04  0.14117828909E+04  0.26296687376E+03 0.  0.
         25    1    4    4    0    0 -0.11794248418E+02 -0.35672734220E+02 -0.54269808229E+03  0.55819384168E+03  0.12509000000E+03 0.  0.
         25    1    4    4    0    0  0.55462224503E+02 -0.43729113465E+02 -0.84141456084E+03  0.85358904925E+03  0.12509000000E+03 0.  0.
         25    1    3    3    0    0 -0.43667976085E+02  0.79401847685E+02 -0.15601749538E+04  0.15678025833E+04  0.12509000000E+03 0.  0.
<mgrwt>
<rscale>  2 0.45727469E+03</rscale>
<asrwt>0</asrwt>
<pdfrwt beam="1">  1       21 0.25954379E-02 0.45727469E+03</pdfrwt>
<pdfrwt beam="2">  1       21 0.43557793E+00 0.45727469E+03</pdfrwt>
<totfact> 0.33037854E+03</totfact>
</mgrwt>
</event>
<event>
 7    0  0.4770865E-002  0.4309322E+03  0.7546771E-02  0.1033566E+00
         21   -1    0    0  502  501  0.00000000000E+00  0.00000000000E+00  0.46569170181E+03  0.46569170181E+03  0.00000000000E+00 0.  1.
         21   -1    0    0  501  502 -0.00000000000E+00 -0.00000000000E+00 -0.99691800972E+02  0.99691800972E+02  0.00000000000E+00 0.  1.
      99926    2    1    2    0    0  0.00000000000E+00  0.00000000000E+00  0.36599990084E+03  0.56538350279E+03  0.43093221950E+03 0.  0.
      99925    2    3    3    0    0 -0.64715269756E+02 -0.34660229678E+02  0.17037176157E+03  0.32185265333E+03  0.26300797641E+03 0.  0.
         25    1    3    3    0    0  0.64715269756E+02  0.34660229678E+02  0.19562813928E+03  0.24353084946E+03  0.12509000000E+03 0.  0.
         25    1    4    4    0    0 -0.64778497517E+02 -0.74997220479E+01  0.11657791920E+03  0.18300387678E+03  0.12509000000E+03 0.  0.
         25    1    4    4    0    0  0.63227761252E-01 -0.27160507630E+02  0.53793842362E+02  0.13884877655E+03  0.12509000000E+03 0.  0.
<mgrwt>
<rscale>  2 0.43093222E+03</rscale>
<asrwt>0</asrwt>
<pdfrwt beam="1">  1       21 0.68484073E-01 0.43093222E+03</pdfrwt>
<pdfrwt beam="2">  1       21 0.14660559E-01 0.43093222E+03</pdfrwt>
<totfact> 0.73966166E+04</totfact>
</mgrwt>
</event>
<event>
 7    0  0.4770865E-002  0.4542096E+03  0.7546771E-02  0.1026474E+00
         21   -1    0    0  502  501  0.00000000000E+00  0.00000000000E+00  0.39710431478E+03  0.39710431478E+03  0.00000000000E+00 0. -1.
         21   -1    0    0  501  502 -0.00000000000E+00 -0.00000000000E+00 -0.12988169558E+03  0.12988169558E+03  0.00000000000E+00 0. -1.
      99926    2    1    2    0    0  0.00000000000E+00  0.00000000000E+00  0.26722261920E+03  0.52698601036E+03  0.45420956276E+03 0.  0.
      99925    2    3    3    0    0 -0.34261601157E+02  0.53163902038E+02  0.60488893539E+02  0.27721291489E+03  0.26303580772E+03 0.  0.
         25    1    3    3    0    0  0.34261601157E+02 -0.53163902038E+02  0.20673372566E+03  0.24977309547E+03  0.12509000000E+03 0.  0.
         25    1    4    4    0    0 -0.14249265575E+02  0.59967767140E+02  0.72747879553E+01  0.13964098720E+03  0.12509000000E+03 0.  0.
         25    1    4    4    0    0 -0.20012335582E+02 -0.68038651016E+01  0.53214105584E+02  0.13757192769E+03  0.12509000000E+03 0.  0.
<mgrwt>
<rscale>  2 0.45420956E+03</rscale>
<asrwt>0</asrwt>
<pdfrwt beam="1">  1       21 0.58397693E-01 0.45420956E+03</pdfrwt>
<pdfrwt beam="2">  1       21 0.19100250E-01 0.45420956E+03</pdfrwt>
<totfact> 0.63809893E+04</totfact>
</mgrwt>
</event>
<event>
 7    0  0.4770865E-002  0.4403545E+03  0.7546771E-02  0.1030638E+00
         21   -1    0    0  502  501  0.00000000000E+00  0.00000000000E+00  0.10342327407E+03  0.10342327407E+03  0.00000000000E+00 0.  1.
         21   -1    0    0  501  502 -0.00000000000E+00 -0.00000000000E+00 -0.46873414923E+03  0.46873414923E+03  0.00000000000E+00 0.  1.
      99926    2    1    2    0    0  0.00000000000E+00  0.55511151231E-14 -0.36531087516E+03  0.57215742330E+03  0.44035449530E+03 0.  0.
      99925    2    3    3    0    0  0.97927624016E+02 -0.11750956381E+01 -0.21670740888E+03  0.35462191199E+03  0.26306538921E+03 0.  0.
         25    1    4    4    0    0  0.47113575808E+02  0.37284913617E+02 -0.12631046319E+03  0.18764779514E+03  0.12509000000E+03 0.  0.
         25    1    4    4    0    0  0.50814048208E+02 -0.38460009255E+02 -0.90396945690E+02  0.16697411685E+03  0.12509000000E+03 0.  0.
         25    1    3    3    0    0 -0.97927624016E+02  0.11750956381E+01 -0.14860346628E+03  0.21753551132E+03  0.12509000000E+03 0.  0.
<mgrwt>
<rscale>  2 0.44035450E+03</rscale>
<asrwt>0</asrwt>
<pdfrwt beam="1">  1       21 0.15209305E-01 0.44035450E+03</pdfrwt>
<pdfrwt beam="2">  1       21 0.68931492E-01 0.44035450E+03</pdfrwt>
<totfact> 0.67960324E+04</totfact>
</mgrwt>
</event>
<event>
 7    0  0.4770865E-002  0.4511498E+03  0.7546771E-02  0.1027380E+00
         21   -1    0    0  502  501  0.00000000000E+00  0.00000000000E+00  0.18085480010E+02  0.18085480010E+02  0.00000000000E+00 0. -1.
         21   -1    0    0  501  502 -0.00000000000E+00 -0.00000000000E+00 -0.28135296817E+04  0.28135296817E+04  0.00000000000E+00 0. -1.
      99926    2    1    2    0    0  0.00000000000E+00  0.00000000000E+00 -0.27954442017E+04  0.28316151617E+04  0.45114979693E+03 0.  0.
      99925    2    3    3    0    0  0.26116713497E+02  0.94657392172E+02 -0.14607116812E+04  0.14874423626E+04  0.26299061149E+03 0.  0.
         25    1    4    4    0    0  0.40787963899E+02  0.79738246808E+02 -0.81431860897E+03  0.82872441198E+03  0.12509000000E+03 0.  0.
         25    1    4    4    0    0 -0.14671250402E+02  0.14919145365E+02 -0.64639307223E+03  0.65871795058E+03  0.12509000000E+03 0.  0.
         25    1    3    3    0    0 -0.26116713497E+02 -0.94657392172E+02 -0.13347325205E+04  0.13441727992E+04  0.12509000000E+03 0.  0.
<mgrwt>
<rscale>  2 0.45114980E+03</rscale>
<asrwt>0</asrwt>
<pdfrwt beam="1">  1       21 0.26596310E-02 0.45114980E+03</pdfrwt>
<pdfrwt beam="2">  1       21 0.41375412E+00 0.45114980E+03</pdfrwt>
<totfact> 0.44304840E+03</totfact>
</mgrwt>
</event>
<event>
 7    0  0.4770865E-002  0.4474925E+03  0.7546771E-02  0.1028472E+00
         21   -1    0    0  502  501  0.00000000000E+00  0.00000000000E+00  0.19800968968E+04  0.19800968968E+04  0.00000000000E+00 0.  1.
         21   -1    0    0  501  502 -0.00000000000E+00 -0.00000000000E+00 -0.25282794541E+02  0.25282794541E+02  0.00000000000E+00 0.  1.
      99926    2    1    2    0    0  0.00000000000E+00 -0.71054273576E-14  0.19548141023E+04  0.20053796914E+04  0.44749249385E+03 0.  0.
      99925    2    3    3    0    0 -0.88350736551E+02  0.45866757599E+02  0.14016859257E+04  0.14296124642E+04  0.26298051497E+03 0.  0.
         25    1    4    4    0    0 -0.10072800122E+02  0.43074954460E+02  0.60612729860E+03  0.62047943013E+03  0.12509000000E+03 0.  0.
         25    1    3    3    0    0  0.88350736551E+02 -0.45866757599E+02  0.55312817659E+03  0.57576722722E+03  0.12509000000E+03 0.  0.
         25    1    4    4    0    0 -0.78277936429E+02  0.27918031387E+01  0.79555862710E+03  0.80913303402E+03  0.12509000000E+03 0.  0.
<mgrwt>
<rscale>  2 0.44749249E+03</rscale>
<asrwt>0</asrwt>
<pdfrwt beam="1">  1       21 0.29119061E+00 0.44749249E+03</pdfrwt>
<pdfrwt beam="2">  1       21 0.37180594E-02 0.44749249E+03</pdfrwt>
<totfact> 0.14445704E+04</totfact>
</mgrwt>
</event>
<event>
 7    0  0.4770865E-002  0.4576790E+03  0.7546771E-02  0.1025457E+00
         21   -1    0    0  502  501  0.00000000000E+00  0.00000000000E+00  0.35935227539E+02  0.35935227539E+02  0.00000000000E+00 0. -1.
         21   -1    0    0  501  502 -0.00000000000E+00 -0.00000000000E+00 -0.14572754158E+04  0.14572754158E+04  0.00000000000E+00 0. -1.
      99926    2    1    2    0    0  0.00000000000E+00  0.00000000000E+00 -0.14213401883E+04  0.14932106434E+04  0.45767903013E+03 0.  0.
      99925    2    3    3    0    0  0.34525304552E+02 -0.66875948144E+02 -0.61199217945E+03  0.67080192710E+03  0.26415224509E+03 0.  0.
         25    1    3    3    0    0 -0.34525304552E+02  0.66875948144E+02 -0.80934800884E+03  0.82240871627E+03  0.12509000000E+03 0.  0.
         25    1    4    4    0    0  0.50077923464E+02 -0.10101966757E+02 -0.33507459375E+03  0.36129259559E+03  0.12509000000E+03 0.  0.
         25    1    4    4    0    0 -0.15552618912E+02 -0.56773981387E+02 -0.27691758571E+03  0.30950933151E+03  0.12509000000E+03 0.  0.
<mgrwt>
<rscale>  2 0.45767903E+03</rscale>
<asrwt>0</asrwt>
<pdfrwt beam="1">  1       21 0.52845927E-02 0.45767903E+03</pdfrwt>
<pdfrwt beam="2">  1       21 0.21430519E+00 0.45767903E+03</pdfrwt>
<totfact> 0.23454141E+04</totfact>
</mgrwt>
</event>
<event>
 7    0  0.4770865E-002  0.4431227E+03  0.7546771E-02  0.1029793E+00
         21   -1    0    0  502  501  0.00000000000E+00  0.00000000000E+00  0.14622991131E+03  0.14622991131E+03  0.00000000000E+00 0.  1.
         21   -1    0    0  501  502 -0.00000000000E+00 -0.00000000000E+00 -0.33570038029E+03  0.33570038029E+03  0.00000000000E+00 0.  1.
      99926    2    1    2    0    0  0.00000000000E+00  0.00000000000E+00 -0.18947046898E+03  0.48193029160E+03  0.44312272267E+03 0.  0.
      99925    2    3    3    0    0  0.46634949466E+02  0.68480377111E+02 -0.56278460062E+02  0.28130128099E+03  0.26286643958E+03 0.  0.
         25    1    4    4    0    0  0.73232495778E+01  0.65642973167E+02 -0.84832354373E+01  0.14171133792E+03  0.12509000000E+03 0.  0.
         25    1    4    4    0    0  0.39311699888E+02  0.28374039441E+01 -0.47795224624E+02  0.13958994307E+03  0.12509000000E+03 0.  0.
         25    1    3    3    0    0 -0.46634949466E+02 -0.68480377111E+02 -0.13319200892E+03  0.20062901062E+03  0.12509000000E+03 0.  0.
<mgrwt>
<rscale>  2 0.44312272E+03</rscale>
<asrwt>0</asrwt>
<pdfrwt beam="1">  1       21 0.21504399E-01 0.44312272E+03</pdfrwt>
<pdfrwt beam="2">  1       21 0.49367702E-01 0.44312272E+03</pdfrwt>
<totfact> 0.73224326E+04</totfact>
</mgrwt>
</event>
<event>
 7    0  0.4770865E-002  0.4528357E+03  0.7546771E-02  0.1026880E+00
         21   -1    0    0  502  501  0.00000000000E+00  0.00000000000E+00  0.22179811942E+03  0.22179811942E+03  0.00000000000E+00 0. -1.
         21   -1    0    0  501  502 -0.00000000000E+00 -0.00000000000E+00 -0.23113380279E+03  0.23113380279E+03  0.00000000000E+00 0. -1.
      99926    2    1    2    0    0  0.00000000000E+00  0.71054273576E-14 -0.93356833726E+01  0.45293192221E+03  0.45283569998E+03 0.  0.
      99925    2    3    3    0    0 -0.92492283535E+02 -0.54542848043E+02 -0.34236780940E+02  0.28620664654E+03  0.26308238742E+03 0.  0.
         25    1    4    4    0    0 -0.60664483919E+01 -0.16632888530E+02 -0.27902104948E+02  0.12938118232E+03  0.12509000000E+03 0.  0.
         25    1    3    3    0    0  0.92492283535E+02  0.54542848043E+02  0.24901097568E+02  0.16672527567E+03  0.12509000000E+03 0.  0.
         25    1    4    4    0    0 -0.86425835143E+02 -0.37909959513E+02 -0.63346759927E+01  0.15682546423E+03  0.12509000000E+03 0.  0.
<mgrwt>
<rscale>  2 0.45283570E+03</rscale>
<asrwt>0</asrwt>
<pdfrwt beam="1">  1       21 0.32617371E-01 0.45283570E+03</pdfrwt>
<pdfrwt beam="2">  1       21 0.33990265E-01 0.45283570E+03</pdfrwt>
<totfact> 0.69896828E+04</totfact>
</mgrwt>
</event>
<event>
 7    0  0.4770865E-002  0.4473374E+03  0.7546771E-02  0.1028519E+00
         21   -1    0    0  502  501  0.00000000000E+00  0.00000000000E+00  0.61028716791E+03  0.61028716791E+03  0.00000000000E+00 0.  1.
         21   -1    0    0  501  502 -0.00000000000E+00 -0.00000000000E+00 -0.81974019889E+02  0.81974019889E+02  0.00000000000E+00 0.  1.
      99926    2    1    2    0    0  0.00000000000E+00 -0.35527136788E-14  0.52831314802E+03  0.69226118780E+03  0.44733742271E+03 0.  0.
      99925    2    3    3    0    0 -0.67691058372E+02 -0.29016635795E+02  0.45244335688E+03  0.52846931424E+03  0.26296535964E+03 0.  0.
         25    1    3    3    0    0  0.67691058372E+02  0.29016635795E+02  0.75869791145E+02  0.16379187356E+03  0.12509000000E+03 0.  0.
         25    1    4    4    0    0 -0.47547190380E+02 -0.50733924867E+02  0.26508634758E+03  0.30125229662E+03  0.12509000000E+03 0.  0.
         25    1    4    4    0    0 -0.20143867992E+02  0.21717289072E+02  0.18735700930E+03  0.22721701762E+03  0.12509000000E+03 0.  0.
<mgrwt>
<rscale>  2 0.44733742E+03</rscale>
<asrwt>0</asrwt>
<pdfrwt beam="1">  1       21 0.89748111E-01 0.44733742E+03</pdfrwt>
<pdfrwt beam="2">  1       21 0.12055003E-01 0.44733742E+03</pdfrwt>
<totfact> 0.56666453E+04</totfact>
</mgrwt>
</event>
<event>
 7    0  0.4770865E-002  0.4620107E+03  0.7546771E-02  0.1024200E+00
         21   -1    0    0  502  501  0.00000000000E+00  0.00000000000E+00  0.16476697337E+03  0.16476697337E+03  0.00000000000E+00 0.  1.
         21   -1    0    0  501  502 -0.00000000000E+00 -0.00000000000E+00 -0.32387233494E+03  0.32387233494E+03  0.00000000000E+00 0.  1.
      99926    2    1    2    0    0 -0.14210854715E-13  0.00000000000E+00 -0.15910536157E+03  0.48863930831E+03  0.46201066822E+03 0.  0.
      99925    2    3    3    0    0 -0.80437458613E+02  0.11393045865E+02 -0.67301117369E+01  0.27541240780E+03  0.26307168932E+03 0.  0.
         25    1    4    4    0    0 -0.48727321991E+02  0.11567108512E+01 -0.43011384693E+02  0.14097225685E+03  0.12509000000E+03 0.  0.
         25    1    3    3    0    0  0.80437458613E+02 -0.11393045865E+02 -0.15237524983E+03  0.21322690052E+03  0.12509000000E+03 0.  0.
         25    1    4    4    0    0 -0.31710136622E+02  0.10236335014E+02  0.36281272956E+02  0.13444015095E+03  0.12509000000E+03 0.  0.
<mgrwt>
<rscale>  2 0.46201067E+03</rscale>
<asrwt>0</asrwt>
<pdfrwt beam="1">  1       21 0.24230437E-01 0.46201067E+03</pdfrwt>
<pdfrwt beam="2">  1       21 0.47628284E-01 0.46201067E+03</pdfrwt>
<totfact> 0.62523672E+04</totfact>
</mgrwt>
</event>
<event>
 7    0  0.4770865E-002  0.4591228E+03  0.7546771E-02  0.1025036E+00
         21   -1    0    0  502  501  0.00000000000E+00  0.00000000000E+00  0.74475246126E+03  0.74475246126E+03  0.00000000000E+00 0. -1.
         21   -1    0    0  501  502 -0.00000000000E+00 -0.00000000000E+00 -0.70759668438E+02  0.70759668438E+02  0.00000000000E+00 0. -1.
      99926    2    1    2    0    0  0.00000000000E+00  0.00000000000E+00  0.67399279282E+03  0.81551212970E+03  0.45912280373E+03 0.  0.
      99925    2    3    3    0    0  0.91578260353E+02  0.35779622018E+02  0.31022825806E+03  0.41847446905E+03  0.26308278170E+03 0.  0.
         25    1    3    3    0    0 -0.91578260353E+02 -0.35779622018E+02  0.36376453477E+03  0.39703766065E+03  0.12509000000E+03 0.  0.
         25    1    4    4    0    0  0.77670783302E+01  0.35569545076E+02  0.14473949719E+03  0.19473713100E+03  0.12509000000E+03 0.  0.
         25    1    4    4    0    0  0.83811182023E+02  0.21007694195E+00  0.16548876087E+03  0.22373733805E+03  0.12509000000E+03 0.  0.
<mgrwt>
<rscale>  2 0.45912280E+03</rscale>
<asrwt>0</asrwt>
<pdfrwt beam="1">  1       21 0.10952242E+00 0.45912280E+03</pdfrwt>
<pdfrwt beam="2">  1       21 0.10405834E-01 0.45912280E+03</pdfrwt>
<totfact> 0.45532637E+04</totfact>
</mgrwt>
</event>
<event>
 7    0  0.4770865E-002  0.4510125E+03  0.7546771E-02  0.1027421E+00
         21   -1    0    0  502  501  0.00000000000E+00  0.00000000000E+00  0.50501198619E+02  0.50501198619E+02  0.00000000000E+00 0.  1.
         21   -1    0    0  501  502 -0.00000000000E+00 -0.00000000000E+00 -0.10069674624E+04  0.10069674624E+04  0.00000000000E+00 0.  1.
      99926    2    1    2    0    0  0.00000000000E+00  0.00000000000E+00 -0.95646626378E+03  0.10574686610E+04  0.45101247797E+03 0.  0.
      99925    2    3    3    0    0  0.66856164976E+02 -0.59037408050E+02 -0.75254520910E+03  0.80215225538E+03  0.26299959455E+03 0.  0.
         25    1    4    4    0    0  0.32398582416E+02 -0.68386583655E+02 -0.35743435272E+03  0.38617770206E+03  0.12509000000E+03 0.  0.
         25    1    4    4    0    0  0.34457582560E+02  0.93491756054E+01 -0.39511085638E+03  0.41597455332E+03  0.12509000000E+03 0.  0.
         25    1    3    3    0    0 -0.66856164976E+02  0.59037408050E+02 -0.20392105468E+03  0.25531640564E+03  0.12509000000E+03 0.  0.
<mgrwt>
<rscale>  2 0.45101248E+03</rscale>
<asrwt>0</asrwt>
<pdfrwt beam="1">  1       21 0.74266470E-02 0.45101248E+03</pdfrwt>
<pdfrwt beam="2">  1       21 0.14808345E+00 0.45101248E+03</pdfrwt>
<totfact> 0.38178926E+04</totfact>
</mgrwt>
</event>
<event>
 7    0  0.4770865E-002  0.4553317E+03  0.7546771E-02  0.1026144E+00
         21   -1    0    0  502  501  0.00000000000E+00  0.00000000000E+00  0.65992600097E+02  0.65992600097E+02  0.00000000000E+00 0.  1.
         21   -1    0    0  501  502 -0.00000000000E+00 -0.00000000000E+00 -0.78541731886E+03  0.78541731886E+03  0.00000000000E+00 0.  1.
      99926    2    1    2    0    0  0.00000000000E+00  0.00000000000E+00 -0.71942471876E+03  0.85140991895E+03  0.45533166388E+03 0.  0.
      99925    2    3    3    0    0 -0.92096415834E+02  0.39535171646E+02 -0.35290929908E+03  0.45137761954E+03  0.26296768327E+03 0.  0.
         25    1    3    3    0    0  0.92096415834E+02 -0.39535171646E+02 -0.36651541969E+03  0.40003229941E+03  0.12509000000E+03 0.  0.
         25    1    4    4    0    0 -0.41616169784E+02 -0.69644140980E+01 -0.12092490200E+03  0.17902722887E+03  0.12509000000E+03 0.  0.
         25    1    4    4    0    0 -0.50480246050E+02  0.46499585744E+02 -0.23198439707E+03  0.27235039067E+03  0.12509000000E+03 0.  0.
<mgrwt>
<rscale>  2 0.45533166E+03</rscale>
<asrwt>0</asrwt>
<pdfrwt beam="1">  1       21 0.97047943E-02 0.45533166E+03</pdfrwt>
<pdfrwt beam="2">  1       21 0.11550254E+00 0.45533166E+03</pdfrwt>
<totfact> 0.45258507E+04</totfact>
</mgrwt>
</event>
<event>
 7    0  0.4770865E-002  0.4203867E+03  0.7546771E-02  0.1036941E+00
         21   -1    0    0  502  501  0.00000000000E+00  0.00000000000E+00  0.65539023238E+02  0.65539023238E+02  0.00000000000E+00 0.  1.
         21   -1    0    0  501  502 -0.00000000000E+00 -0.00000000000E+00 -0.67412129828E+03  0.67412129828E+03  0.00000000000E+00 0.  1.
      99926    2    1    2    0    0  0.17763568394E-14  0.00000000000E+00 -0.60858227504E+03  0.73966032152E+03  0.42038673354E+03 0.  0.
      99925    2    3    3    0    0 -0.12214893133E+02 -0.75055269539E+02 -0.37850894234E+03  0.46696315685E+03  0.26268436063E+03 0.  0.
         25    1    4    4    0    0 -0.19890501954E+02 -0.11735453030E+02 -0.22829747358E+03  0.26134382998E+03  0.12509000000E+03 0.  0.
         25    1    3    3    0    0  0.12214893133E+02  0.75055269539E+02 -0.23007333270E+03  0.27269716467E+03  0.12509000000E+03 0.  0.
         25    1    4    4    0    0  0.76756088215E+01 -0.63319816509E+02 -0.15021146876E+03  0.20561932686E+03  0.12509000000E+03 0.  0.
<mgrwt>
<rscale>  2 0.42038673E+03</rscale>
<asrwt>0</asrwt>
<pdfrwt beam="1">  1       21 0.96380917E-02 0.42038673E+03</pdfrwt>
<pdfrwt beam="2">  1       21 0.99135485E-01 0.42038673E+03</pdfrwt>
<totfact> 0.67339195E+04</totfact>
</mgrwt>
</event>
<event>
 7    0  0.4770865E-002  0.4594634E+03  0.7546771E-02  0.1024937E+00
         21   -1    0    0  502  501  0.00000000000E+00  0.00000000000E+00  0.24773539445E+03  0.24773539445E+03  0.00000000000E+00 0. -1.
         21   -1    0    0  501  502 -0.00000000000E+00 -0.00000000000E+00 -0.21303636931E+03  0.21303636931E+03  0.00000000000E+00 0. -1.
      99926    2    1    2    0    0  0.00000000000E+00  0.71054273576E-14  0.34699025146E+02  0.46077176376E+03  0.45946337823E+03 0.  0.
      99925    2    3    3    0    0 -0.27474725203E+02 -0.45624916512E+02 -0.82929666784E+02  0.28099270270E+03  0.26314079084E+03 0.  0.
         25    1    4    4    0    0 -0.43753644026E+02  0.19311691566E+01 -0.28240068495E+02  0.13551059128E+03  0.12509000000E+03 0.  0.
         25    1    4    4    0    0  0.16278918823E+02 -0.47556085669E+02 -0.54689598289E+02  0.14548211142E+03  0.12509000000E+03 0.  0.
         25    1    3    3    0    0  0.27474725203E+02  0.45624916512E+02  0.11762869193E+03  0.17977906106E+03  0.12509000000E+03 0.  0.
<mgrwt>
<rscale>  2 0.45946338E+03</rscale>
<asrwt>0</asrwt>
<pdfrwt beam="1">  1       21 0.36431676E-01 0.45946338E+03</pdfrwt>
<pdfrwt beam="2">  1       21 0.31328878E-01 0.45946338E+03</pdfrwt>
<totfact> 0.65752090E+04</totfact>
</mgrwt>
</event>
<event>
 7    0  0.4770865E-002  0.4522423E+03  0.7546771E-02  0.1027055E+00
         21   -1    0    0  502  501  0.00000000000E+00  0.00000000000E+00  0.26813867720E+03  0.26813867720E+03  0.00000000000E+00 0.  1.
         21   -1    0    0  501  502 -0.00000000000E+00 -0.00000000000E+00 -0.19068778286E+03  0.19068778286E+03  0.00000000000E+00 0.  1.
      99926    2    1    2    0    0  0.00000000000E+00  0.00000000000E+00  0.77450894344E+02  0.45882646006E+03  0.45224227956E+03 0.  0.
      99925    2    3    3    0    0 -0.90335822781E+02 -0.58502578786E+02  0.17956692311E+02  0.28341214828E+03  0.26156622563E+03 0.  0.
         25    1    3    3    0    0  0.90335822781E+02  0.58502578786E+02  0.59494202033E+02  0.17541431178E+03  0.12509000000E+03 0.  0.
         25    1    4    4    0    0 -0.52640827249E+02 -0.26299638142E+02 -0.28337975318E+02  0.14111440963E+03  0.12509000000E+03 0.  0.
         25    1    4    4    0    0 -0.37694995531E+02 -0.32202940644E+02  0.46294667629E+02  0.14229773865E+03  0.12509000000E+03 0.  0.
<mgrwt>
<rscale>  2 0.45224228E+03</rscale>
<asrwt>0</asrwt>
<pdfrwt beam="1">  1       21 0.39432159E-01 0.45224228E+03</pdfrwt>
<pdfrwt beam="2">  1       21 0.28042321E-01 0.45224228E+03</pdfrwt>
<totfact> 0.69788197E+04</totfact>
</mgrwt>
</event>
<event>
 7    0  0.4770865E-002  0.4470199E+03  0.7546771E-02  0.1028614E+00
         21   -1    0    0  502  501  0.00000000000E+00  0.00000000000E+00  0.48283868100E+03  0.48283868100E+03  0.00000000000E+00 0. -1.
         21   -1    0    0  501  502 -0.00000000000E+00 -0.00000000000E+00 -0.10346459169E+03  0.10346459169E+03  0.00000000000E+00 0. -1.
      99926    2    1    2    0    0  0.00000000000E+00  0.00000000000E+00  0.37937408931E+03  0.58630327269E+03  0.44701994131E+03 0.  0.
      99925    2    3    3    0    0  0.99997379284E+02  0.16910480613E+02  0.20227548331E+03  0.34693563794E+03  0.26298959201E+03 0.  0.
         25    1    3    3    0    0 -0.99997379284E+02 -0.16910480613E+02  0.17709860600E+03  0.23936763475E+03  0.12509000000E+03 0.  0.
         25    1    4    4    0    0  0.37880009040E+02 -0.27745425112E+02  0.77912575232E+02  0.15466926385E+03  0.12509000000E+03 0.  0.
         25    1    4    4    0    0  0.62117370244E+02  0.44655905725E+02  0.12436290808E+03  0.19226637410E+03  0.12509000000E+03 0.  0.
<mgrwt>
<rscale>  2 0.44701994E+03</rscale>
<asrwt>0</asrwt>
<pdfrwt beam="1">  1       21 0.71005687E-01 0.44701994E+03</pdfrwt>
<pdfrwt beam="2">  1       21 0.15215381E-01 0.44701994E+03</pdfrwt>
<totfact> 0.63436964E+04</totfact>
</mgrwt>
</event>
<event>
 7    0  0.4770865E-002  0.4504786E+03  0.7546771E-02  0.1027579E+00
         21   -1    0    0  502  501  0.00000000000E+00  0.00000000000E+00  0.15771608387E+04  0.15771608387E+04  0.00000000000E+00 0.  1.
         21   -1    0    0  501  502 -0.00000000000E+00 -0.00000000000E+00 -0.32167135113E+02  0.32167135113E+02  0.00000000000E+00 0.  1.
      99926    2    1    2    0    0  0.00000000000E+00  0.71054273576E-14  0.15449937036E+04  0.16093279738E+04  0.45047861568E+03 0.  0.
      99925    2    3    3    0    0  0.55542554834E+02  0.53654398985E+02  0.70066740216E+03  0.75229928042E+03  0.26278437727E+03 0.  0.
         25    1    4    4    0    0 -0.32462609311E+01  0.50427427877E+02  0.31858685995E+03  0.34597479551E+03  0.12509000000E+03 0.  0.
         25    1    4    4    0    0  0.58788815766E+02  0.32269711085E+01  0.38208054221E+03  0.40632448491E+03  0.12509000000E+03 0.  0.
         25    1    3    3    0    0 -0.55542554834E+02 -0.53654398985E+02  0.84432630146E+03  0.85702869343E+03  0.12509000000E+03 0.  0.
<mgrwt>
<rscale>  2 0.45047862E+03</rscale>
<asrwt>0</asrwt>
<pdfrwt beam="1">  1       21 0.23193537E+00 0.45047862E+03</pdfrwt>
<pdfrwt beam="2">  1       21 0.47304621E-02 0.45047862E+03</pdfrwt>
<totfact> 0.21981481E+04</totfact>
</mgrwt>
</event>
<event>
 7    0  0.4770865E-002  0.4663208E+03  0.7546771E-02  0.1022964E+00
         21   -1    0    0  502  501  0.00000000000E+00  0.00000000000E+00  0.41360062456E+03  0.41360062456E+03  0.00000000000E+00 0.  1.
         21   -1    0    0  501  502 -0.00000000000E+00 -0.00000000000E+00 -0.13144026139E+03  0.13144026139E+03  0.00000000000E+00 0.  1.
      99926    2    1    2    0    0  0.00000000000E+00 -0.14210854715E-13  0.28216036316E+03  0.54504088595E+03  0.46632080890E+03 0.  0.
      99925    2    3    3    0    0  0.67340956173E+02 -0.85906435442E+02  0.24308272755E+03  0.37448506009E+03  0.26312568816E+03 0.  0.
         25    1    3    3    0    0 -0.67340956173E+02  0.85906435442E+02  0.39077635613E+02  0.17055582586E+03  0.12509000000E+03 0.  0.
         25    1    4    4    0    0  0.85599018364E+00 -0.17753414250E+02  0.90543683431E+02  0.15543996637E+03  0.12509000000E+03 0.  0.
         25    1    4    4    0    0  0.66484965990E+02 -0.68153021191E+02  0.15253904412E+03  0.21904509372E+03  0.12509000000E+03 0.  0.
<mgrwt>
<rscale>  2 0.46632081E+03</rscale>
<asrwt>0</asrwt>
<pdfrwt beam="1">  1       21 0.60823621E-01 0.46632081E+03</pdfrwt>
<pdfrwt beam="2">  1       21 0.19329450E-01 0.46632081E+03</pdfrwt>
<totfact> 0.56919403E+04</totfact>
</mgrwt>
</event>
<event>
 7    0  0.4770865E-002  0.4630976E+03  0.7546771E-02  0.1023887E+00
         21   -1    0    0  502  501  0.00000000000E+00  0.00000000000E+00  0.12638577795E+03  0.12638577795E+03  0.00000000000E+00 0.  1.
         21   -1    0    0  501  502 -0.00000000000E+00 -0.00000000000E+00 -0.42421583152E+03  0.42421583152E+03  0.00000000000E+00 0.  1.
      99926    2    1    2    0    0  0.00000000000E+00  0.00000000000E+00 -0.29783005358E+03  0.55060160947E+03  0.46309760476E+03 0.  0.
      99925    2    3    3    0    0 -0.11464969824E+03 -0.34470078616E+02 -0.20325635505E+03  0.35330885192E+03  0.26302330572E+03 0.  0.
         25    1    3    3    0    0  0.11464969824E+03  0.34470078616E+02 -0.94573698527E+02  0.19729275755E+03  0.12509000000E+03 0.  0.
         25    1    4    4    0    0 -0.28300782177E+02 -0.46543408077E+02 -0.91983290178E+02  0.16454682276E+03  0.12509000000E+03 0.  0.
         25    1    4    4    0    0 -0.86348916065E+02  0.12073329461E+02 -0.11127306487E+03  0.18876202917E+03  0.12509000000E+03 0.  0.
<mgrwt>
<rscale>  2 0.46309760E+03</rscale>
<asrwt>0</asrwt>
<pdfrwt beam="1">  1       21 0.18586144E-01 0.46309760E+03</pdfrwt>
<pdfrwt beam="2">  1       21 0.62384680E-01 0.46309760E+03</pdfrwt>
<totfact> 0.58019284E+04</totfact>
</mgrwt>
</event>
<event>
 7    0  0.4770865E-002  0.4460585E+03  0.7546771E-02  0.1028904E+00
         21   -1    0    0  502  501  0.00000000000E+00  0.00000000000E+00  0.36051239241E+04  0.36051239241E+04  0.00000000000E+00 0. -1.
         21   -1    0    0  501  502 -0.00000000000E+00 -0.00000000000E+00 -0.13797599006E+02  0.13797599006E+02  0.00000000000E+00 0. -1.
      99926    2    1    2    0    0  0.00000000000E+00  0.00000000000E+00  0.35913263251E+04  0.36189215231E+04  0.44605853549E+03 0.  0.
      99925    2    3    3    0    0  0.10694471699E+02  0.92862642973E+02  0.18973741719E+04  0.19177868290E+04  0.26294434960E+03 0.  0.
         25    1    4    4    0    0  0.12388303488E+02  0.54300196521E+02  0.69914323602E+03  0.71242596386E+03  0.12509000000E+03 0.  0.
         25    1    3    3    0    0 -0.10694471699E+02 -0.92862642973E+02  0.16939521532E+04  0.17011346942E+04  0.12509000000E+03 0.  0.
         25    1    4    4    0    0 -0.16938317888E+01  0.38562446452E+02  0.11982309359E+04  0.12053608651E+04  0.12509000000E+03 0.  0.
<mgrwt>
<rscale>  2 0.44605854E+03</rscale>
<asrwt>0</asrwt>
<pdfrwt beam="1">  1       21 0.53016463E+00 0.44605854E+03</pdfrwt>
<pdfrwt beam="2">  1       21 0.20290612E-02 0.44605854E+03</pdfrwt>
<totfact> 0.10880717E+03</totfact>
</mgrwt>
</event>
<event>
 7    0  0.4770865E-002  0.4617541E+03  0.7546771E-02  0.1024274E+00
         21   -1    0    0  502  501  0.00000000000E+00  0.00000000000E+00  0.59790808175E+02  0.59790808175E+02  0.00000000000E+00 0.  1.
         21   -1    0    0  501  502 -0.00000000000E+00 -0.00000000000E+00 -0.89151198269E+03  0.89151198269E+03  0.00000000000E+00 0.  1.
      99926    2    1    2    0    0  0.14210854715E-13  0.00000000000E+00 -0.83172117451E+03  0.95130279086E+03  0.46175414212E+03 0.  0.
      99925    2    3    3    0    0 -0.65802216191E+02  0.24584996338E+02 -0.71895089746E+03  0.76882266267E+03  0.26317967240E+03 0.  0.
         25    1    4    4    0    0 -0.20395508193E+02 -0.23511162674E+02 -0.29666535299E+03  0.32346033960E+03  0.12509000000E+03 0.  0.
         25    1    3    3    0    0  0.65802216191E+02 -0.24584996338E+02 -0.11277027705E+03  0.18248012820E+03  0.12509000000E+03 0.  0.
         25    1    4    4    0    0 -0.45406707998E+02  0.48096159012E+02 -0.42228554447E+03  0.44536232307E+03  0.12509000000E+03 0.  0.
<mgrwt>
<rscale>  2 0.46175414E+03</rscale>
<asrwt>0</asrwt>
<pdfrwt beam="1">  1       21 0.87927660E-02 0.46175414E+03</pdfrwt>
<pdfrwt beam="2">  1       21 0.13110470E+00 0.46175414E+03</pdfrwt>
<totfact> 0.38987825E+04</totfact>
</mgrwt>
</event>
<event>
 7    0  0.4770865E-002  0.4596982E+03  0.7546771E-02  0.1024869E+00
         21   -1    0    0  502  501  0.00000000000E+00  0.00000000000E+00  0.47720040707E+03  0.47720040707E+03  0.00000000000E+00 0. -1.
         21   -1    0    0  501  502 -0.00000000000E+00 -0.00000000000E+00 -0.11070948094E+03  0.11070948094E+03  0.00000000000E+00 0. -1.
      99926    2    1    2    0    0  0.00000000000E+00 -0.14210854715E-13  0.36649092613E+03  0.58790988800E+03  0.45969820260E+03 0.  0.
      99925    2    3    3    0    0  0.79941489063E+02 -0.85666375849E+02  0.21720920077E+03  0.36061732048E+03  0.26293658039E+03 0.  0.
         25    1    4    4    0    0  0.36204484498E+02 -0.81555776375E+02  0.97406371580E+02  0.18192750942E+03  0.12509000000E+03 0.  0.
         25    1    3    3    0    0 -0.79941489063E+02  0.85666375849E+02  0.14928172536E+03  0.22729256752E+03  0.12509000000E+03 0.  0.
         25    1    4    4    0    0  0.43737004565E+02 -0.41105994742E+01  0.11980282919E+03  0.17868981106E+03  0.12509000000E+03 0.  0.
<mgrwt>
<rscale>  2 0.45969820E+03</rscale>
<asrwt>0</asrwt>
<pdfrwt beam="1">  1       21 0.70176529E-01 0.45969820E+03</pdfrwt>
<pdfrwt beam="2">  1       21 0.16280806E-01 0.45969820E+03</pdfrwt>
<totfact> 0.57272058E+04</totfact>
</mgrwt>
</event>
<event>
 7    0  0.4770865E-002  0.4570071E+03  0.7546771E-02  0.1025653E+00
         21   -1    0    0  502  501  0.00000000000E+00  0.00000000000E+00  0.82326604756E+03  0.82326604756E+03  0.00000000000E+00 0.  1.
         21   -1    0    0  501  502 -0.00000000000E+00 -0.00000000000E+00 -0.63422851315E+02  0.63422851315E+02  0.00000000000E+00 0.  1.
      99926    2    1    2    0    0  0.00000000000E+00 -0.14210854715E-13  0.75984319625E+03  0.88668889888E+03  0.45700713398E+03 0.  0.
      99925    2    3    3    0    0 -0.53967595083E+02 -0.10144196192E+03  0.46467855365E+03  0.54614132908E+03  0.26294718129E+03 0.  0.
         25    1    4    4    0    0  0.26197910493E+01 -0.66326861581E+02  0.27556884479E+03  0.30982545440E+03  0.12509000000E+03 0.  0.
         25    1    4    4    0    0 -0.56587386132E+02 -0.35115100340E+02  0.18910970886E+03  0.23631587468E+03  0.12509000000E+03 0.  0.
         25    1    3    3    0    0  0.53967595083E+02  0.10144196192E+03  0.29516464260E+03  0.34054756980E+03  0.12509000000E+03 0.  0.
<mgrwt>
<rscale>  2 0.45700713E+03</rscale>
<asrwt>0</asrwt>
<pdfrwt beam="1">  1       21 0.12106853E+00 0.45700713E+03</pdfrwt>
<pdfrwt beam="2">  1       21 0.93268904E-02 0.45700713E+03</pdfrwt>
<totfact> 0.43132272E+04</totfact>
</mgrwt>
</event>
<event>
 7    0  0.4770865E-002  0.4671963E+03  0.7546771E-02  0.1022715E+00
         21   -1    0    0  502  501  0.00000000000E+00  0.00000000000E+00  0.80621424045E+03  0.80621424045E+03  0.00000000000E+00 0.  1.
         21   -1    0    0  501  502 -0.00000000000E+00 -0.00000000000E+00 -0.67684371200E+02  0.67684371200E+02  0.00000000000E+00 0.  1.
      99926    2    1    2    0    0  0.00000000000E+00 -0.35527136788E-14  0.73852986925E+03  0.87389861165E+03  0.46719633525E+03 0.  0.
      99925    2    3    3    0    0 -0.12114217560E+03  0.26651477036E+02  0.47261242922E+03  0.55492318791E+03  0.26304278794E+03 0.  0.
         25    1    4    4    0    0 -0.63067075349E+02 -0.18055312159E+02  0.28244454556E+03  0.31579404635E+03  0.12509000000E+03 0.  0.
         25    1    3    3    0    0  0.12114217560E+03 -0.26651477036E+02  0.26591744003E+03  0.31897542374E+03  0.12509000000E+03 0.  0.
         25    1    4    4    0    0 -0.58075100254E+02  0.44706789195E+02  0.19016788366E+03  0.23912914156E+03  0.12509000000E+03 0.  0.
<mgrwt>
<rscale>  2 0.46719634E+03</rscale>
<asrwt>0</asrwt>
<pdfrwt beam="1">  1       21 0.11856091E+00 0.46719634E+03</pdfrwt>
<pdfrwt beam="2">  1       21 0.99535844E-02 0.46719634E+03</pdfrwt>
<totfact> 0.40383166E+04</totfact>
</mgrwt>
</event>
<event>
 7    0  0.4770865E-002  0.4582117E+03  0.7546771E-02  0.1025301E+00
         21   -1    0    0  502  501  0.00000000000E+00  0.00000000000E+00  0.96765595436E+02  0.96765595436E+02  0.00000000000E+00 0. -1.
         21   -1    0    0  501  502 -0.00000000000E+00 -0.00000000000E+00 -0.54243955305E+03  0.54243955305E+03  0.00000000000E+00 0. -1.
      99926    2    1    2    0    0  0.00000000000E+00  0.00000000000E+00 -0.44567395761E+03  0.63920514848E+03  0.45821168182E+03 0.  0.
      99925    2    3    3    0    0  0.78481544398E+02  0.49405754103E+02 -0.18207549096E+03  0.33304842216E+03  0.26300092347E+03 0.  0.
         25    1    4    4    0    0  0.67633251409E+02  0.14503831256E+01 -0.72435064253E+02  0.15959544774E+03  0.12509000000E+03 0.  0.
         25    1    4    4    0    0  0.10848292990E+02  0.47955370977E+02 -0.10964042670E+03  0.17345297442E+03  0.12509000000E+03 0.  0.
         25    1    3    3    0    0 -0.78481544398E+02 -0.49405754103E+02 -0.26359846666E+03  0.30615672632E+03  0.12509000000E+03 0.  0.
<mgrwt>
<rscale>  2 0.45821168E+03</rscale>
<asrwt>0</asrwt>
<pdfrwt beam="1">  1       21 0.14230235E-01 0.45821168E+03</pdfrwt>
<pdfrwt beam="2">  1       21 0.79770522E-01 0.45821168E+03</pdfrwt>
<totfact> 0.54922325E+04</totfact>
</mgrwt>
</event>
<event>
 7    0  0.4770865E-002  0.4579226E+03  0.7546771E-02  0.1025385E+00
         21   -1    0    0  502  501  0.00000000000E+00  0.00000000000E+00  0.90014192846E+02  0.90014192846E+02  0.00000000000E+00 0.  1.
         21   -1    0    0  501  502 -0.00000000000E+00 -0.00000000000E+00 -0.58238901699E+03  0.58238901699E+03  0.00000000000E+00 0.  1.
      99926    2    1    2    0    0 -0.88817841970E-15  0.00000000000E+00 -0.49237482414E+03  0.67240320983E+03  0.45792260170E+03 0.  0.
      99925    2    3    3    0    0 -0.36311649513E+01 -0.34195088814E+02 -0.14647241652E+03  0.30297327986E+03  0.26297556931E+03 0.  0.
         25    1    3    3    0    0  0.36311649513E+01  0.34195088814E+02 -0.34590240762E+03  0.36942992997E+03  0.12509000000E+03 0.  0.
         25    1    4    4    0    0 -0.40156656781E+02 -0.15725481372E+02 -0.88311292202E+02  0.15907935214E+03  0.12509000000E+03 0.  0.
         25    1    4    4    0    0  0.36525491830E+02 -0.18469607443E+02 -0.58161124315E+02  0.14389392772E+03  0.12509000000E+03 0.  0.
<mgrwt>
<rscale>  2 0.45792260E+03</rscale>
<asrwt>0</asrwt>
<pdfrwt beam="1">  1       21 0.13237381E-01 0.45792260E+03</pdfrwt>
<pdfrwt beam="2">  1       21 0.85645446E-01 0.45792260E+03</pdfrwt>
<totfact> 0.53191233E+04</totfact>
</mgrwt>
</event>
<event>
 7    0  0.4770865E-002  0.4512534E+03  0.7546771E-02  0.1027349E+00
         21   -1    0    0  502  501  0.00000000000E+00  0.00000000000E+00  0.62589605938E+02  0.62589605938E+02  0.00000000000E+00 0. -1.
         21   -1    0    0  501  502 -0.00000000000E+00 -0.00000000000E+00 -0.81335252856E+03  0.81335252856E+03  0.00000000000E+00 0. -1.
      99926    2    1    2    0    0  0.00000000000E+00  0.00000000000E+00 -0.75076292262E+03  0.87594213450E+03  0.45125342880E+03 0.  0.
      99925    2    3    3    0    0  0.23127245523E+02  0.46190340154E+02 -0.28635965982E+03  0.39222081430E+03  0.26299599881E+03 0.  0.
         25    1    4    4    0    0 -0.14069366817E+02  0.68815011728E+01 -0.97772040212E+02  0.15953740028E+03  0.12509000000E+03 0.  0.
         25    1    3    3    0    0 -0.23127245523E+02 -0.46190340154E+02 -0.46440326281E+03  0.48372132020E+03  0.12509000000E+03 0.  0.
         25    1    4    4    0    0  0.37196612340E+02  0.39308838981E+02 -0.18858761960E+03  0.23268341402E+03  0.12509000000E+03 0.  0.
<mgrwt>
<rscale>  2 0.45125343E+03</rscale>
<asrwt>0</asrwt>
<pdfrwt beam="1">  1       21 0.92043543E-02 0.45125343E+03</pdfrwt>
<pdfrwt beam="2">  1       21 0.11961066E+00 0.45125343E+03</pdfrwt>
<totfact> 0.45614122E+04</totfact>
</mgrwt>
</event>
<event>
 7    0  0.4770865E-002  0.4573418E+03  0.7546771E-02  0.1025555E+00
         21   -1    0    0  502  501  0.00000000000E+00  0.00000000000E+00  0.84997799043E+03  0.84997799043E+03  0.00000000000E+00 0.  1.
         21   -1    0    0  501  502 -0.00000000000E+00 -0.00000000000E+00 -0.61519694453E+02  0.61519694453E+02  0.00000000000E+00 0.  1.
      99926    2    1    2    0    0  0.00000000000E+00  0.00000000000E+00  0.78845829597E+03  0.91149768488E+03  0.45734182517E+03 0.  0.
      99925    2    3    3    0    0  0.85206848034E+02  0.55433622495E+02  0.60301793769E+03  0.66579720048E+03  0.26329106619E+03 0.  0.
         25    1    4    4    0    0  0.41005793118E+02  0.35310265308E+02  0.39872699449E+03  0.42137751973E+03  0.12509000000E+03 0.  0.
         25    1    4    4    0    0  0.44201054916E+02  0.20123357186E+02  0.20429094320E+03  0.24441968074E+03  0.12509000000E+03 0.  0.
         25    1    3    3    0    0 -0.85206848034E+02 -0.55433622495E+02  0.18544035829E+03  0.24570048440E+03  0.12509000000E+03 0.  0.
<mgrwt>
<rscale>  2 0.45734183E+03</rscale>
<asrwt>0</asrwt>
<pdfrwt beam="1">  1       21 0.12499676E+00 0.45734183E+03</pdfrwt>
<pdfrwt beam="2">  1       21 0.90470144E-02 0.45734183E+03</pdfrwt>
<totfact> 0.41965729E+04</totfact>
</mgrwt>
</event>
<event>
 7    0  0.4770865E-002  0.4534475E+03  0.7546771E-02  0.1026699E+00
         21   -1    0    0  502  501  0.00000000000E+00  0.00000000000E+00  0.13300606784E+04  0.13300606784E+04  0.00000000000E+00 0.  1.
         21   -1    0    0  501  502 -0.00000000000E+00 -0.00000000000E+00 -0.38647599446E+02  0.38647599446E+02  0.00000000000E+00 0.  1.
      99926    2    1    2    0    0  0.00000000000E+00 -0.17763568394E-14  0.12914130790E+04  0.13687082778E+04  0.45344747144E+03 0.  0.
      99925    2    3    3    0    0 -0.93713357453E+02 -0.72848451525E+01  0.63196740697E+03  0.69095362848E+03  0.26305674466E+03 0.  0.
         25    1    3    3    0    0  0.93713357453E+02  0.72848451525E+01  0.65944567198E+03  0.67775464936E+03  0.12509000000E+03 0.  0.
         25    1    4    4    0    0 -0.68500312362E+02  0.20669368889E+02  0.39338420643E+03  0.41894887227E+03  0.12509000000E+03 0.  0.
         25    1    4    4    0    0 -0.25213045091E+02 -0.27954214042E+02  0.23858320054E+03  0.27200475622E+03  0.12509000000E+03 0.  0.
<mgrwt>
<rscale>  2 0.45344747E+03</rscale>
<asrwt>0</asrwt>
<pdfrwt beam="1">  1       21 0.19559713E+00 0.45344747E+03</pdfrwt>
<pdfrwt beam="2">  1       21 0.56834714E-02 0.45344747E+03</pdfrwt>
<totfact> 0.27508399E+04</totfact>
</mgrwt>
</event>
<event>
 7    0  0.4770865E-002  0.4499886E+03  0.7546771E-02  0.1027725E+00
         21   -1    0    0  502  501  0.00000000000E+00  0.00000000000E+00  0.24624783222E+03  0.24624783222E+03  0.00000000000E+00 0.  1.
         21   -1    0    0  501  502 -0.00000000000E+00 -0.00000000000E+00 -0.20557519519E+03  0.20557519519E+03  0.00000000000E+00 0.  1.
      99926    2    1    2    0    0  0.00000000000E+00  0.00000000000E+00  0.40672637026E+02  0.45182302741E+03  0.44998864952E+03 0.  0.
      99925    2    3    3    0    0 -0.88779595301E+02 -0.61537091967E+02  0.21642881938E+02  0.28545515218E+03  0.26333932357E+03 0.  0.
         25    1    4    4    0    0 -0.87719348086E+02 -0.35187754521E+02  0.10575741330E+02  0.15713757190E+03  0.12509000000E+03 0.  0.
         25    1    3    3    0    0  0.88779595301E+02  0.61537091967E+02  0.19029755088E+02  0.16636787523E+03  0.12509000000E+03 0.  0.
         25    1    4    4    0    0 -0.10602472150E+01 -0.26349337446E+02  0.11067140608E+02  0.12831758028E+03  0.12509000000E+03 0.  0.
<mgrwt>
<rscale>  2 0.44998865E+03</rscale>
<asrwt>0</asrwt>
<pdfrwt beam="1">  1       21 0.36212917E-01 0.44998865E+03</pdfrwt>
<pdfrwt beam="2">  1       21 0.30231646E-01 0.44998865E+03</pdfrwt>
<totfact> 0.71599451E+04</totfact>
</mgrwt>
</event>
<event>
 7    0  0.4770865E-002  0.4555768E+03  0.7546771E-02  0.1026072E+00
         21   -1    0    0  502  501  0.00000000000E+00  0.00000000000E+00  0.49078076652E+03  0.49078076652E+03  0.00000000000E+00 0.  1.
         21   -1    0    0  501  502 -0.00000000000E+00 -0.00000000000E+00 -0.10572448600E+03  0.10572448600E+03  0.00000000000E+00 0.  1.
      99926    2    1    2    0    0  0.71054273576E-14 -0.14210854715E-13  0.38505628052E+03  0.59650525252E+03  0.45557675217E+03 0.  0.
      99925    2    3    3    0    0  0.37603432887E+02 -0.97769178253E+02  0.18422766890E+03  0.33775349943E+03  0.26299194286E+03 0.  0.
         25    1    4    4    0    0 -0.74039737619E+01 -0.43982383057E+02  0.12570780237E+03  0.18286396179E+03  0.12509000000E+03 0.  0.
         25    1    3    3    0    0 -0.37603432887E+02  0.97769178253E+02  0.20082861161E+03  0.25875175308E+03  0.12509000000E+03 0.  0.
         25    1    4    4    0    0  0.45007406649E+02 -0.53786795196E+02  0.58519866536E+02  0.15488953764E+03  0.12509000000E+03 0.  0.
<mgrwt>
<rscale>  2 0.45557675E+03</rscale>
<asrwt>0</asrwt>
<pdfrwt beam="1">  1       21 0.72173641E-01 0.45557675E+03</pdfrwt>
<pdfrwt beam="2">  1       21 0.15547719E-01 0.45557675E+03</pdfrwt>
<totfact> 0.58626246E+04</totfact>
</mgrwt>
</event>
<event>
 7    0  0.4770865E-002  0.4427123E+03  0.7546771E-02  0.1029918E+00
         21   -1    0    0  502  501  0.00000000000E+00  0.00000000000E+00  0.93693453200E+02  0.93693453200E+02  0.00000000000E+00 0. -1.
         21   -1    0    0  501  502 -0.00000000000E+00 -0.00000000000E+00 -0.52296667947E+03  0.52296667947E+03  0.00000000000E+00 0. -1.
      99926    2    1    2    0    0  0.14210854715E-13  0.00000000000E+00 -0.42927322627E+03  0.61666013267E+03  0.44271234050E+03 0.  0.
      99925    2    3    3    0    0  0.93846990084E+02 -0.36412233618E+02 -0.25877132450E+03  0.38245612990E+03  0.26301517943E+03 0.  0.
         25    1    3    3    0    0 -0.93846990084E+02  0.36412233618E+02 -0.17050190177E+03  0.23420400277E+03  0.12509000000E+03 0.  0.
         25    1    4    4    0    0  0.36149320767E+02  0.28670336761E+01 -0.78002945271E+02  0.15181225525E+03  0.12509000000E+03 0.  0.
         25    1    4    4    0    0  0.57697669317E+02 -0.39279267294E+02 -0.18076837923E+03  0.23064387465E+03  0.12509000000E+03 0.  0.
<mgrwt>
<rscale>  2 0.44271234E+03</rscale>
<asrwt>0</asrwt>
<pdfrwt beam="1">  1       21 0.13778448E-01 0.44271234E+03</pdfrwt>
<pdfrwt beam="2">  1       21 0.76906868E-01 0.44271234E+03</pdfrwt>
<totfact> 0.63616065E+04</totfact>
</mgrwt>
</event>
<event>
 7    0  0.4770865E-002  0.4545836E+03  0.7546771E-02  0.1026364E+00
         21   -1    0    0  502  501  0.00000000000E+00  0.00000000000E+00  0.18162416460E+03  0.18162416460E+03  0.00000000000E+00 0.  1.
         21   -1    0    0  501  502 -0.00000000000E+00 -0.00000000000E+00 -0.28444216880E+03  0.28444216880E+03  0.00000000000E+00 0.  1.
      99926    2    1    2    0    0  0.00000000000E+00 -0.71054273576E-14 -0.10281800420E+03  0.46606633340E+03  0.45458363932E+03 0.  0.
      99925    2    3    3    0    0  0.73276581326E+02  0.59957094604E+02 -0.12768275129E+03  0.30722655780E+03  0.26290865767E+03 0.  0.
         25    1    4    4    0    0  0.24738538021E+02 -0.96440435427E+01 -0.66776806829E+02  0.14426244442E+03  0.12509000000E+03 0.  0.
         25    1    4    4    0    0  0.48538043305E+02  0.69601138147E+02 -0.60905944458E+02  0.16296411338E+03  0.12509000000E+03 0.  0.
         25    1    3    3    0    0 -0.73276581326E+02 -0.59957094604E+02  0.24864747092E+02  0.15883977560E+03  0.12509000000E+03 0.  0.
<mgrwt>
<rscale>  2 0.45458364E+03</rscale>
<asrwt>0</asrwt>
<pdfrwt beam="1">  1       21 0.26709436E-01 0.45458364E+03</pdfrwt>
<pdfrwt beam="2">  1       21 0.41829730E-01 0.45458364E+03</pdfrwt>
<totfact> 0.67953901E+04</totfact>
</mgrwt>
</event>
<event>
 7    0  0.4770865E-002  0.4540439E+03  0.7546771E-02  0.1026523E+00
         21   -1    0    0  502  501  0.00000000000E+00  0.00000000000E+00  0.83022394425E+03  0.83022394425E+03  0.00000000000E+00 0.  1.
         21   -1    0    0  501  502 -0.00000000000E+00 -0.00000000000E+00 -0.62078380219E+02  0.62078380219E+02  0.00000000000E+00 0.  1.
      99926    2    1    2    0    0  0.00000000000E+00  0.00000000000E+00  0.76814556403E+03  0.89230232447E+03  0.45404386431E+03 0.  0.
      99925    2    3    3    0    0 -0.65564417045E+02  0.81116330780E+02  0.56534235728E+03  0.63219619099E+03  0.26302374622E+03 0.  0.
         25    1    3    3    0    0  0.65564417045E+02 -0.81116330780E+02  0.20280320675E+03  0.26010613347E+03  0.12509000000E+03 0.  0.
         25    1    4    4    0    0 -0.70835626415E+01  0.65700264710E+02  0.24296506981E+03  0.28115162260E+03  0.12509000000E+03 0.  0.
         25    1    4    4    0    0 -0.58480854404E+02  0.15416066070E+02  0.32237728747E+03  0.35104456839E+03  0.12509000000E+03 0.  0.
<mgrwt>
<rscale>  2 0.45404386E+03</rscale>
<asrwt>0</asrwt>
<pdfrwt beam="1">  1       21 0.12209175E+00 0.45404386E+03</pdfrwt>
<pdfrwt beam="2">  1       21 0.91291741E-02 0.45404386E+03</pdfrwt>
<totfact> 0.43895903E+04</totfact>
</mgrwt>
</event>
<event>
 7    0  0.4770865E-002  0.4541208E+03  0.7546771E-02  0.1026500E+00
         21   -1    0    0  502  501  0.00000000000E+00  0.00000000000E+00  0.22111152791E+03  0.22111152791E+03  0.00000000000E+00 0. -1.
         21   -1    0    0  501  502 -0.00000000000E+00 -0.00000000000E+00 -0.23316931912E+03  0.23316931912E+03  0.00000000000E+00 0. -1.
      99926    2    1    2    0    0  0.00000000000E+00  0.00000000000E+00 -0.12057791216E+02  0.45428084703E+03  0.45412079632E+03 0.  0.
      99925    2    3    3    0    0 -0.12140572389E+02 -0.18951969284E+02 -0.11808396139E+03  0.28876460161E+03  0.26255399934E+03 0.  0.
         25    1    4    4    0    0 -0.22713446906E+02  0.25616475008E+02 -0.48407308566E+02  0.13843005485E+03  0.12509000000E+03 0.  0.
         25    1    4    4    0    0  0.10572874517E+02 -0.44568444293E+02 -0.69676652821E+02  0.15033454676E+03  0.12509000000E+03 0.  0.
         25    1    3    3    0    0  0.12140572389E+02  0.18951969284E+02  0.10602617017E+03  0.16551624542E+03  0.12509000000E+03 0.  0.
<mgrwt>
<rscale>  2 0.45412080E+03</rscale>
<asrwt>0</asrwt>
<pdfrwt beam="1">  1       21 0.32516402E-01 0.45412080E+03</pdfrwt>
<pdfrwt beam="2">  1       21 0.34289605E-01 0.45412080E+03</pdfrwt>
<totfact> 0.69081863E+04</totfact>
</mgrwt>
</event>
<event>
 7    0  0.4770865E-002  0.4462974E+03  0.7546771E-02  0.1028832E+00
         21   -1    0    0  502  501  0.00000000000E+00  0.00000000000E+00  0.52241350634E+02  0.52241350634E+02  0.00000000000E+00 0.  1.
         21   -1    0    0  501  502 -0.00000000000E+00 -0.00000000000E+00 -0.95317853302E+03  0.95317853302E+03  0.00000000000E+00 0.  1.
      99926    2    1    2    0    0 -0.14210854715E-13  0.00000000000E+00 -0.90093718239E+03  0.10054198837E+04  0.44629736258E+03 0.  0.
      99925    2    3    3    0    0 -0.72743517375E+02 -0.73691421613E+02 -0.53206847992E+03  0.60238927353E+03  0.26278113440E+03 0.  0.
         25    1    4    4    0    0 -0.35573269787E+02 -0.39113103415E+02 -0.35234678143E+03  0.37761230762E+03  0.12509000000E+03 0.  0.
         25    1    3    3    0    0  0.72743517375E+02  0.73691421613E+02 -0.36886870247E+03  0.40303061013E+03  0.12509000000E+03 0.  0.
         25    1    4    4    0    0 -0.37170247588E+02 -0.34578318198E+02 -0.17972169849E+03  0.22477696591E+03  0.12509000000E+03 0.  0.
<mgrwt>
<rscale>  2 0.44629736E+03</rscale>
<asrwt>0</asrwt>
<pdfrwt beam="1">  1       21 0.76825516E-02 0.44629736E+03</pdfrwt>
<pdfrwt beam="2">  1       21 0.14017331E+00 0.44629736E+03</pdfrwt>
<totfact> 0.41720685E+04</totfact>
</mgrwt>
</event>
<event>
 7    0  0.4770865E-002  0.4517675E+03  0.7546771E-02  0.1027196E+00
         21   -1    0    0  502  501  0.00000000000E+00  0.00000000000E+00  0.20943543629E+03  0.20943543629E+03  0.00000000000E+00 0. -1.
         21   -1    0    0  501  502 -0.00000000000E+00 -0.00000000000E+00 -0.24362386052E+03  0.24362386052E+03  0.00000000000E+00 0. -1.
      99926    2    1    2    0    0  0.35527136788E-14  0.00000000000E+00 -0.34188424231E+02  0.45305929680E+03  0.45176750444E+03 0.  0.
      99925    2    3    3    0    0  0.29742335445E+02  0.67055904952E+02  0.60545764216E+02  0.27984504951E+03  0.26318503237E+03 0.  0.
         25    1    4    4    0    0  0.28990632978E+01 -0.42073274995E+00  0.50250226556E+02  0.13483758732E+03  0.12509000000E+03 0.  0.
         25    1    3    3    0    0 -0.29742335445E+02 -0.67055904952E+02 -0.94734188448E+02  0.17321424730E+03  0.12509000000E+03 0.  0.
         25    1    4    4    0    0  0.26843272147E+02  0.67476637702E+02  0.10295537660E+02  0.14500746219E+03  0.12509000000E+03 0.  0.
<mgrwt>
<rscale>  2 0.45176750E+03</rscale>
<asrwt>0</asrwt>
<pdfrwt beam="1">  1       21 0.30799329E-01 0.45176750E+03</pdfrwt>
<pdfrwt beam="2">  1       21 0.35827038E-01 0.45176750E+03</pdfrwt>
<totfact> 0.70488759E+04</totfact>
</mgrwt>
</event>
<event>
 7    0  0.4770865E-002  0.4528685E+03  0.7546771E-02  0.1026870E+00
         21   -1    0    0  502  501  0.00000000000E+00  0.00000000000E+00  0.45124031519E+03  0.45124031519E+03  0.00000000000E+00 0.  1.
         21   -1    0    0  501  502 -0.00000000000E+00 -0.00000000000E+00 -0.11362565654E+03  0.11362565654E+03  0.00000000000E+00 0.  1.
      99926    2    1    2    0    0  0.71054273576E-14  0.00000000000E+00  0.33761465865E+03  0.56486597173E+03  0.45286853312E+03 0.  0.
      99925    2    3    3    0    0 -0.51311460813E+02 -0.85160493750E+02  0.27618271141E+03  0.39367435994E+03  0.26233077572E+03 0.  0.
         25    1    3    3    0    0  0.51311460813E+02  0.85160493750E+02  0.61431947242E+02  0.17119161179E+03  0.12509000000E+03 0.  0.
         25    1    4    4    0    0 -0.40459215633E+02 -0.80679404626E+02  0.13883895286E+03  0.20753283449E+03  0.12509000000E+03 0.  0.
         25    1    4    4    0    0 -0.10852245180E+02 -0.44810891245E+01  0.13734375855E+03  0.18614152545E+03  0.12509000000E+03 0.  0.
<mgrwt>
<rscale>  2 0.45286853E+03</rscale>
<asrwt>0</asrwt>
<pdfrwt beam="1">  1       21 0.66358869E-01 0.45286853E+03</pdfrwt>
<pdfrwt beam="2">  1       21 0.16709656E-01 0.45286853E+03</pdfrwt>
<totfact> 0.61932148E+04</totfact>
</mgrwt>
</event>
<event>
 7    0  0.4770865E-002  0.4540777E+03  0.7546771E-02  0.1026513E+00
         21   -1    0    0  502  501  0.00000000000E+00  0.00000000000E+00  0.16588003907E+03  0.16588003907E+03  0.00000000000E+00 0. -1.
         21   -1    0    0  501  502 -0.00000000000E+00 -0.00000000000E+00 -0.31074650881E+03  0.31074650881E+03  0.00000000000E+00 0. -1.
      99926    2    1    2    0    0  0.00000000000E+00  0.00000000000E+00 -0.14486646975E+03  0.47662654788E+03  0.45407771591E+03 0.  0.
      99925    2    3    3    0    0  0.66810080899E+02 -0.87350677921E+02 -0.68416226618E+02  0.29336205154E+03  0.26322383133E+03 0.  0.
         25    1    4    4    0    0  0.18377703583E+02 -0.73100910836E+02 -0.10071273543E+02  0.14639133104E+03  0.12509000000E+03 0.  0.
         25    1    4    4    0    0  0.48432377316E+02 -0.14249767085E+02 -0.58344953075E+02  0.14697072050E+03  0.12509000000E+03 0.  0.
         25    1    3    3    0    0 -0.66810080899E+02  0.87350677921E+02 -0.76450243130E+02  0.18326449634E+03  0.12509000000E+03 0.  0.
<mgrwt>
<rscale>  2 0.45407772E+03</rscale>
<asrwt>0</asrwt>
<pdfrwt beam="1">  1       21 0.24394124E-01 0.45407772E+03</pdfrwt>
<pdfrwt beam="2">  1       21 0.45698016E-01 0.45407772E+03</pdfrwt>
<totfact> 0.67438778E+04</totfact>
</mgrwt>
</event>
<event>
 7    0  0.4770865E-002  0.4545524E+03  0.7546771E-02  0.1026373E+00
         21   -1    0    0  502  501  0.00000000000E+00  0.00000000000E+00  0.61867268706E+03  0.61867268706E+03  0.00000000000E+00 0.  1.
         21   -1    0    0  501  502 -0.00000000000E+00 -0.00000000000E+00 -0.83492394864E+02  0.83492394864E+02  0.00000000000E+00 0.  1.
      99926    2    1    2    0    0  0.00000000000E+00  0.00000000000E+00  0.53518029220E+03  0.70216508193E+03  0.45455237005E+03 0.  0.
      99925    2    3    3    0    0 -0.47500048305E+02 -0.10188677263E+03  0.32364667972E+03  0.43192232747E+03  0.26300675780E+03 0.  0.
         25    1    4    4    0    0 -0.30940319937E+02 -0.45618580470E+02  0.10126845463E+03  0.17012103422E+03  0.12509000000E+03 0.  0.
         25    1    3    3    0    0  0.47500048305E+02  0.10188677263E+03  0.21153361248E+03  0.27024275446E+03  0.12509000000E+03 0.  0.
         25    1    4    4    0    0 -0.16559728368E+02 -0.56268192163E+02  0.22237822509E+03  0.26180129325E+03  0.12509000000E+03 0.  0.
<mgrwt>
<rscale>  2 0.45455237E+03</rscale>
<asrwt>0</asrwt>
<pdfrwt beam="1">  1       21 0.90981275E-01 0.45455237E+03</pdfrwt>
<pdfrwt beam="2">  1       21 0.12278294E-01 0.45455237E+03</pdfrwt>
<totfact> 0.52971911E+04</totfact>
</mgrwt>
</event>
<event>
 7    0  0.4770865E-002  0.4619643E+03  0.7546771E-02  0.1024213E+00
         21   -1    0    0  502  501  0.00000000000E+00  0.00000000000E+00  0.65868762644E+03  0.65868762644E+03  0.00000000000E+00 0. -1.
         21   -1    0    0  501  502 -0.00000000000E+00 -0.00000000000E+00 -0.80998572359E+02  0.80998572359E+02  0.00000000000E+00 0. -1.
      99926    2    1    2    0    0 -0.14210854715E-13  0.00000000000E+00  0.57768905408E+03  0.73968619880E+03  0.46196431625E+03 0.  0.
      99925    2    3    3    0    0 -0.83052160788E+02 -0.31647854644E+02  0.48918040559E+03  0.56254067367E+03  0.26316400249E+03 0.  0.
         25    1    3    3    0    0  0.83052160788E+02  0.31647854644E+02  0.88508648488E+02  0.17714552513E+03  0.12509000000E+03 0.  0.
         25    1    4    4    0    0 -0.61278227516E+02  0.17110178355E+02  0.27674670200E+03  0.31029667181E+03  0.12509000000E+03 0.  0.
         25    1    4    4    0    0 -0.21773933272E+02 -0.48758032999E+02  0.21243370359E+03  0.25224400186E+03  0.12509000000E+03 0.  0.
<mgrwt>
<rscale>  2 0.46196432E+03</rscale>
<asrwt>0</asrwt>
<pdfrwt beam="1">  1       21 0.96865825E-01 0.46196432E+03</pdfrwt>
<pdfrwt beam="2">  1       21 0.11911555E-01 0.46196432E+03</pdfrwt>
<totfact> 0.48111872E+04</totfact>
</mgrwt>
</event>
<event>
 7    0  0.4770865E-002  0.4555938E+03  0.7546771E-02  0.1026067E+00
         21   -1    0    0  502  501  0.00000000000E+00  0.00000000000E+00  0.51521773944E+02  0.51521773944E+02  0.00000000000E+00 0. -1.
         21   -1    0    0  501  502 -0.00000000000E+00 -0.00000000000E+00 -0.10071747613E+04  0.10071747613E+04  0.00000000000E+00 0. -1.
      99926    2    1    2    0    0  0.00000000000E+00  0.00000000000E+00 -0.95565298739E+03  0.10586965353E+04  0.45559381197E+03 0.  0.
      99925    2    3    3    0    0  0.22957149794E+02 -0.65961746810E+02 -0.39299439405E+03  0.47808463088E+03  0.26313938846E+03 0.  0.
         25    1    3    3    0    0 -0.22957149794E+02  0.65961746810E+02 -0.56265859334E+03  0.58061190440E+03  0.12509000000E+03 0.  0.
         25    1    4    4    0    0  0.37020514070E+00 -0.55143880524E+02 -0.26028795849E+03  0.29400393543E+03  0.12509000000E+03 0.  0.
         25    1    4    4    0    0  0.22586944654E+02 -0.10817866286E+02 -0.13270643555E+03  0.18408069545E+03  0.12509000000E+03 0.  0.
<mgrwt>
<rscale>  2 0.45559381E+03</rscale>
<asrwt>0</asrwt>
<pdfrwt beam="1">  1       21 0.75767317E-02 0.45559381E+03</pdfrwt>
<pdfrwt beam="2">  1       21 0.14811393E+00 0.45559381E+03</pdfrwt>
<totfact> 0.36789104E+04</totfact>
</mgrwt>
</event>
<event>
 7    0  0.4770865E-002  0.4571376E+03  0.7546771E-02  0.1025615E+00
         21   -1    0    0  502  501  0.00000000000E+00  0.00000000000E+00  0.15195337882E+03  0.15195337882E+03  0.00000000000E+00 0. -1.
         21   -1    0    0  501  502 -0.00000000000E+00 -0.00000000000E+00 -0.34381393514E+03  0.34381393514E+03  0.00000000000E+00 0. -1.
      99926    2    1    2    0    0 -0.35527136788E-14  0.00000000000E+00 -0.19186055632E+03  0.49576731397E+03  0.45713756849E+03 0.  0.
      99925    2    3    3    0    0 -0.30932288257E+02 -0.37177332303E+02 -0.71434047252E+01  0.26749796717E+03  0.26299272559E+03 0.  0.
         25    1    4    4    0    0 -0.15168824261E+02 -0.81798136485E+01 -0.42757689361E+02  0.13331440537E+03  0.12509000000E+03 0.  0.
         25    1    3    3    0    0  0.30932288257E+02  0.37177332303E+02 -0.18471715160E+03  0.22826934680E+03  0.12509000000E+03 0.  0.
         25    1    4    4    0    0 -0.15763463996E+02 -0.28997518654E+02  0.35614284636E+02  0.13418356179E+03  0.12509000000E+03 0.  0.
<mgrwt>
<rscale>  2 0.45713757E+03</rscale>
<asrwt>0</asrwt>
<pdfrwt beam="1">  1       21 0.22346086E-01 0.45713757E+03</pdfrwt>
<pdfrwt beam="2">  1       21 0.50560872E-01 0.45713757E+03</pdfrwt>
<totfact> 0.64468112E+04</totfact>
</mgrwt>
</event>
<event>
 7    0  0.4770865E-002  0.4633625E+03  0.7546771E-02  0.1023810E+00
         21   -1    0    0  502  501  0.00000000000E+00  0.00000000000E+00  0.30730906632E+03  0.30730906632E+03  0.00000000000E+00 0. -1.
         21   -1    0    0  501  502 -0.00000000000E+00 -0.00000000000E+00 -0.17466522151E+03  0.17466522151E+03  0.00000000000E+00 0. -1.
      99926    2    1    2    0    0  0.00000000000E+00  0.88817841970E-15  0.13264384481E+03  0.48197428783E+03  0.46336251959E+03 0.  0.
      99925    2    3    3    0    0 -0.10017697510E+03  0.66966953294E+01  0.13006974540E+02  0.28187241153E+03  0.26306387613E+03 0.  0.
         25    1    4    4    0    0 -0.47048104493E+02 -0.23086284296E+02 -0.24398524467E+02  0.13780165730E+03  0.12509000000E+03 0.  0.
         25    1    4    4    0    0 -0.53128870608E+02  0.29782979626E+02  0.37405499008E+02  0.14407075423E+03  0.12509000000E+03 0.  0.
         25    1    3    3    0    0  0.10017697510E+03 -0.66966953294E+01  0.11963687027E+03  0.20010187630E+03  0.12509000000E+03 0.  0.
<mgrwt>
<rscale>  2 0.46336252E+03</rscale>
<asrwt>0</asrwt>
<pdfrwt beam="1">  1       21 0.45192510E-01 0.46336252E+03</pdfrwt>
<pdfrwt beam="2">  1       21 0.25686062E-01 0.46336252E+03</pdfrwt>
<totfact> 0.62316887E+04</totfact>
</mgrwt>
</event>
<event>
 6    0  0.4770865E-002  0.4528547E+03  0.7546771E-02  0.1026874E+00
         21   -1    0    0  502  501  0.00000000000E+00  0.00000000000E+00  0.31738565767E+03  0.31738565767E+03  0.00000000000E+00 0. -1.
         21   -1    0    0  501  502 -0.00000000000E+00 -0.00000000000E+00 -0.16153643868E+03  0.16153643868E+03  0.00000000000E+00 0. -1.
      99926    2    1    2    0    0  0.00000000000E+00  0.00000000000E+00  0.15584921899E+03  0.47892209635E+03  0.45285471767E+03 0.  0.
         25    1    3    3    0    0 -0.63640383878E+02 -0.51327456963E+02 -0.25019054813E+02  0.15151919846E+03  0.12509000000E+03 0.  0.
         25    1    3    3    0    0  0.31076608811E+02  0.62276067041E+02  0.97621814540E+02  0.17326739715E+03  0.12509000000E+03 0.  0.
         25    1    3    3    0    0  0.32563775068E+02 -0.10948610078E+02  0.83246459265E+02  0.15413550074E+03  0.12509000000E+03 0.  0.
<mgrwt>
<rscale>  2 0.45285472E+03</rscale>
<asrwt>0</asrwt>
<pdfrwt beam="1">  1       21 0.46674361E-01 0.45285472E+03</pdfrwt>
<pdfrwt beam="2">  1       21 0.23755359E-01 0.45285472E+03</pdfrwt>
<totfact> 0.67927983E+04</totfact>
</mgrwt>
</event>
<event>
 7    0  0.4770865E-002  0.4556632E+03  0.7546771E-02  0.1026047E+00
         21   -1    0    0  502  501  0.00000000000E+00  0.00000000000E+00  0.39031716886E+03  0.39031716886E+03  0.00000000000E+00 0. -1.
         21   -1    0    0  501  502 -0.00000000000E+00 -0.00000000000E+00 -0.13298732142E+03  0.13298732142E+03  0.00000000000E+00 0. -1.
      99926    2    1    2    0    0  0.00000000000E+00  0.00000000000E+00  0.25732984744E+03  0.52330449029E+03  0.45566318611E+03 0.  0.
      99925    2    3    3    0    0  0.52725138199E+02  0.38639993857E+02  0.54813010251E+02  0.27645723637E+03  0.26296605888E+03 0.  0.
         25    1    4    4    0    0  0.44609475088E+02  0.39192568222E+02  0.60196726354E+02  0.15098747178E+03  0.12509000000E+03 0.  0.
         25    1    3    3    0    0 -0.52725138199E+02 -0.38639993857E+02  0.20251683719E+03  0.24684725392E+03  0.12509000000E+03 0.  0.
         25    1    4    4    0    0  0.81156631119E+01 -0.55257436527E+00 -0.53837161028E+01  0.12546976459E+03  0.12509000000E+03 0.  0.
<mgrwt>
<rscale>  2 0.45566319E+03</rscale>
<asrwt>0</asrwt>
<pdfrwt beam="1">  1       21 0.57399583E-01 0.45566319E+03</pdfrwt>
<pdfrwt beam="2">  1       21 0.19556959E-01 0.45566319E+03</pdfrwt>
<totfact> 0.63328390E+04</totfact>
</mgrwt>
</event>
<event>
 7    0  0.4770865E-002  0.4468557E+03  0.7546771E-02  0.1028664E+00
         21   -1    0    0  502  501  0.00000000000E+00  0.00000000000E+00  0.22857321991E+03  0.22857321991E+03  0.00000000000E+00 0. -1.
         21   -1    0    0  501  502 -0.00000000000E+00 -0.00000000000E+00 -0.21839826513E+03  0.21839826513E+03  0.00000000000E+00 0. -1.
      99926    2    1    2    0    0  0.71054273576E-14 -0.14210854715E-13  0.10174954777E+02  0.44697148503E+03  0.44685565760E+03 0.  0.
      99925    2    3    3    0    0  0.34722492861E+02 -0.88372214648E+02  0.51975875759E+02  0.28445956262E+03  0.26305978650E+03 0.  0.
         25    1    4    4    0    0 -0.39383940089E+01 -0.74663682292E+02  0.45448463018E+02  0.15265401171E+03  0.12509000000E+03 0.  0.
         25    1    4    4    0    0  0.38660886870E+02 -0.13708532356E+02  0.65274127407E+01  0.13180555091E+03  0.12509000000E+03 0.  0.
         25    1    3    3    0    0 -0.34722492861E+02  0.88372214648E+02 -0.41800920981E+02  0.16251192242E+03  0.12509000000E+03 0.  0.
<mgrwt>
<rscale>  2 0.44685566E+03</rscale>
<asrwt>0</asrwt>
<pdfrwt beam="1">  1       21 0.33613709E-01 0.44685566E+03</pdfrwt>
<pdfrwt beam="2">  1       21 0.32117392E-01 0.44685566E+03</pdfrwt>
<totfact> 0.73819680E+04</totfact>
</mgrwt>
</event>
<event>
 7    0  0.4770865E-002  0.4537573E+03  0.7546771E-02  0.1026607E+00
         21   -1    0    0  502  501  0.00000000000E+00  0.00000000000E+00  0.23988080577E+04  0.23988080577E+04  0.00000000000E+00 0.  1.
         21   -1    0    0  501  502 -0.00000000000E+00 -0.00000000000E+00 -0.21458125502E+02  0.21458125502E+02  0.00000000000E+00 0.  1.
      99926    2    1    2    0    0  0.14210854715E-13  0.14210854715E-13  0.23773499322E+04  0.24202661832E+04  0.45375731116E+03 0.  0.
      99925    2    3    3    0    0  0.75479561652E+02  0.80232148610E+02  0.14093770810E+04  0.14380476176E+04  0.26363389782E+03 0.  0.
         25    1    3    3    0    0 -0.75479561652E+02 -0.80232148610E+02  0.96797285117E+03  0.98221856560E+03  0.12509000000E+03 0.  0.
         25    1    4    4    0    0  0.68517803523E+02  0.61188806137E+02  0.65765572087E+03  0.67571984926E+03  0.12509000000E+03 0.  0.
         25    1    4    4    0    0  0.69617581294E+01  0.19043342473E+02  0.75172136017E+03  0.76232776836E+03  0.12509000000E+03 0.  0.
<mgrwt>
<rscale>  2 0.45375731E+03</rscale>
<asrwt>0</asrwt>
<pdfrwt beam="1">  1       21 0.35276571E+00 0.45375731E+03</pdfrwt>
<pdfrwt beam="2">  1       21 0.31556083E-02 0.45375731E+03</pdfrwt>
<totfact> 0.80599164E+03</totfact>
</mgrwt>
</event>
<event>
 7    0  0.4770865E-002  0.4586634E+03  0.7546771E-02  0.1025170E+00
         21   -1    0    0  502  501  0.00000000000E+00  0.00000000000E+00  0.16315520703E+03  0.16315520703E+03  0.00000000000E+00 0. -1.
         21   -1    0    0  501  502 -0.00000000000E+00 -0.00000000000E+00 -0.32234966488E+03  0.32234966488E+03  0.00000000000E+00 0. -1.
      99926    2    1    2    0    0  0.00000000000E+00  0.00000000000E+00 -0.15919445784E+03  0.48550487191E+03  0.45866338990E+03 0.  0.
      99925    2    3    3    0    0 -0.34081769023E+02  0.48611321474E+02  0.64030103425E+01  0.26964691601E+03  0.26295215005E+03 0.  0.
         25    1    4    4    0    0  0.96941667667E+01  0.54010340937E+02  0.99753582110E+01  0.13696024850E+03  0.12509000000E+03 0.  0.
         25    1    3    3    0    0  0.34081769023E+02 -0.48611321474E+02 -0.16559746819E+03  0.21585795590E+03  0.12509000000E+03 0.  0.
         25    1    4    4    0    0 -0.43775935790E+02 -0.53990194634E+01 -0.35723478684E+01  0.13268666751E+03  0.12509000000E+03 0.  0.
<mgrwt>
<rscale>  2 0.45866339E+03</rscale>
<asrwt>0</asrwt>
<pdfrwt beam="1">  1       21 0.23993413E-01 0.45866339E+03</pdfrwt>
<pdfrwt beam="2">  1       21 0.47404362E-01 0.45866339E+03</pdfrwt>
<totfact> 0.64408029E+04</totfact>
</mgrwt>
</event>
<event>
 7    0  0.4770865E-002  0.4673759E+03  0.7546771E-02  0.1022663E+00
         21   -1    0    0  502  501  0.00000000000E+00  0.00000000000E+00  0.59793499622E+03  0.59793499622E+03  0.00000000000E+00 0. -1.
         21   -1    0    0  501  502 -0.00000000000E+00 -0.00000000000E+00 -0.91331080312E+02  0.91331080312E+02  0.00000000000E+00 0. -1.
      99926    2    1    2    0    0  0.00000000000E+00  0.00000000000E+00  0.50660391591E+03  0.68926607653E+03  0.46737586228E+03 0.  0.
      99925    2    3    3    0    0 -0.32375525409E+02  0.86589597304E+02  0.43820745499E+03  0.51934987079E+03  0.26296878461E+03 0.  0.
         25    1    4    4    0    0 -0.34251948316E+02  0.59952537727E+02  0.16903145022E+03  0.22132926152E+03  0.12509000000E+03 0.  0.
         25    1    4    4    0    0  0.18764229066E+01  0.26637059578E+02  0.26917600477E+03  0.29802060927E+03  0.12509000000E+03 0.  0.
         25    1    3    3    0    0  0.32375525409E+02 -0.86589597304E+02  0.68396460924E+02  0.16991620574E+03  0.12509000000E+03 0.  0.
<mgrwt>
<rscale>  2 0.46737586E+03</rscale>
<asrwt>0</asrwt>
<pdfrwt beam="1">  1       21 0.87931615E-01 0.46737586E+03</pdfrwt>
<pdfrwt beam="2">  1       21 0.13431042E-01 0.46737586E+03</pdfrwt>
<totfact> 0.48578234E+04</totfact>
</mgrwt>
</event>
<event>
 7    0  0.4770865E-002  0.4600583E+03  0.7546771E-02  0.1024764E+00
         21   -1    0    0  502  501  0.00000000000E+00  0.00000000000E+00  0.19347097685E+03  0.19347097685E+03  0.00000000000E+00 0. -1.
         21   -1    0    0  501  502 -0.00000000000E+00 -0.00000000000E+00 -0.27349532906E+03  0.27349532906E+03  0.00000000000E+00 0. -1.
      99926    2    1    2    0    0  0.00000000000E+00  0.00000000000E+00 -0.80024352208E+02  0.46696630591E+03  0.46005829403E+03 0.  0.
      99925    2    3    3    0    0 -0.42228118918E+02 -0.10055824605E+03 -0.47416853973E+01  0.28472974839E+03  0.26297028570E+03 0.  0.
         25    1    4    4    0    0  0.66435962154E+01 -0.18244925343E+02 -0.11187916915E+02  0.12708143946E+03  0.12509000000E+03 0.  0.
         25    1    3    3    0    0  0.42228118918E+02  0.10055824605E+03 -0.75282666810E+02  0.18223655752E+03  0.12509000000E+03 0.  0.
         25    1    4    4    0    0 -0.48871715134E+02 -0.82313320704E+02  0.64462315179E+01  0.15764830892E+03  0.12509000000E+03 0.  0.
<mgrwt>
<rscale>  2 0.46005829E+03</rscale>
<asrwt>0</asrwt>
<pdfrwt beam="1">  1       21 0.28451615E-01 0.46005829E+03</pdfrwt>
<pdfrwt beam="2">  1       21 0.40219901E-01 0.46005829E+03</pdfrwt>
<totfact> 0.65010724E+04</totfact>
</mgrwt>
</event>
<event>
 7    0  0.4770865E-002  0.4512734E+03  0.7546771E-02  0.1027343E+00
         21   -1    0    0  502  501  0.00000000000E+00  0.00000000000E+00  0.44830374869E+03  0.44830374869E+03  0.00000000000E+00 0. -1.
         21   -1    0    0  501  502 -0.00000000000E+00 -0.00000000000E+00 -0.11356566401E+03  0.11356566401E+03  0.00000000000E+00 0. -1.
      99926    2    1    2    0    0  0.35527136788E-14  0.22204460493E-14  0.33473808468E+03  0.56186941269E+03  0.45127336680E+03 0.  0.
      99925    2    3    3    0    0  0.16552863829E+02 -0.25853028135E+01  0.34605338914E+03  0.43515625116E+03  0.26330084256E+03 0.  0.
         25    1    4    4    0    0  0.15243807386E+01 -0.25322153281E+02  0.11904633639E+03  0.17453673966E+03  0.12509000000E+03 0.  0.
         25    1    4    4    0    0  0.15028483090E+02  0.22736850468E+02  0.22700705275E+03  0.26061951149E+03  0.12509000000E+03 0.  0.
         25    1    3    3    0    0 -0.16552863829E+02  0.25853028135E+01 -0.11315304461E+02  0.12671316154E+03  0.12509000000E+03 0.  0.
<mgrwt>
<rscale>  2 0.45127337E+03</rscale>
<asrwt>0</asrwt>
<pdfrwt beam="1">  1       21 0.65927021E-01 0.45127337E+03</pdfrwt>
<pdfrwt beam="2">  1       21 0.16700833E-01 0.45127337E+03</pdfrwt>
<totfact> 0.62923208E+04</totfact>
</mgrwt>
</event>
<event>
 7    0  0.4770865E-002  0.4550375E+03  0.7546771E-02  0.1026230E+00
         21   -1    0    0  502  501  0.00000000000E+00  0.00000000000E+00  0.47691179655E+02  0.47691179655E+02  0.00000000000E+00 0. -1.
         21   -1    0    0  501  502 -0.00000000000E+00 -0.00000000000E+00 -0.10854164097E+04  0.10854164097E+04  0.00000000000E+00 0. -1.
      99926    2    1    2    0    0  0.00000000000E+00  0.00000000000E+00 -0.10377252300E+04  0.11331075893E+04  0.45503753249E+03 0.  0.
      99925    2    3    3    0    0 -0.20911144907E+02 -0.49495254845E+02 -0.40501236165E+03  0.48591353950E+03  0.26303972808E+03 0.  0.
         25    1    3    3    0    0  0.20911144907E+02  0.49495254845E+02 -0.63271286836E+03  0.64719404982E+03  0.12509000000E+03 0.  0.
         25    1    4    4    0    0 -0.30615753709E+02 -0.32047492705E+02 -0.26957030248E+03  0.30046634128E+03  0.12509000000E+03 0.  0.
         25    1    4    4    0    0  0.97046088018E+01 -0.17447762139E+02 -0.13544205917E+03  0.18544719822E+03  0.12509000000E+03 0.  0.
<mgrwt>
<rscale>  2 0.45503753E+03</rscale>
<asrwt>0</asrwt>
<pdfrwt beam="1">  1       21 0.70134088E-02 0.45503753E+03</pdfrwt>
<pdfrwt beam="2">  1       21 0.15962006E+00 0.45503753E+03</pdfrwt>
<totfact> 0.34341355E+04</totfact>
</mgrwt>
</event>
<event>
 7    0  0.4770865E-002  0.4551309E+03  0.7546771E-02  0.1026203E+00
         21   -1    0    0  502  501  0.00000000000E+00  0.00000000000E+00  0.66885509169E+03  0.66885509169E+03  0.00000000000E+00 0. -1.
         21   -1    0    0  501  502 -0.00000000000E+00 -0.00000000000E+00 -0.77424885989E+02  0.77424885989E+02  0.00000000000E+00 0. -1.
      99926    2    1    2    0    0 -0.71054273576E-14  0.00000000000E+00  0.59143020570E+03  0.74627997768E+03  0.45513087883E+03 0.  0.
      99925    2    3    3    0    0 -0.63269831688E+02 -0.84874040316E+02  0.43839637478E+03  0.52206236948E+03  0.26296589490E+03 0.  0.
         25    1    4    4    0    0  0.10019339634E+02 -0.39014520436E+02  0.20335852386E+03  0.24212541647E+03  0.12509000000E+03 0.  0.
         25    1    4    4    0    0 -0.73289171322E+02 -0.45859519880E+02  0.23503785092E+03  0.27993695301E+03  0.12509000000E+03 0.  0.
         25    1    3    3    0    0  0.63269831688E+02  0.84874040316E+02  0.15303383092E+03  0.22421760820E+03  0.12509000000E+03 0.  0.
<mgrwt>
<rscale>  2 0.45513088E+03</rscale>
<asrwt>0</asrwt>
<pdfrwt beam="1">  1       21 0.98361040E-01 0.45513088E+03</pdfrwt>
<pdfrwt beam="2">  1       21 0.11386013E-01 0.45513088E+03</pdfrwt>
<totfact> 0.50409350E+04</totfact>
</mgrwt>
</event>
<event>
 7    0  0.4770865E-002  0.4651103E+03  0.7546771E-02  0.1023309E+00
         21   -1    0    0  502  501  0.00000000000E+00  0.00000000000E+00  0.15130345372E+03  0.15130345372E+03  0.00000000000E+00 0. -1.
         21   -1    0    0  501  502 -0.00000000000E+00 -0.00000000000E+00 -0.35743995836E+03  0.35743995836E+03  0.00000000000E+00 0. -1.
      99926    2    1    2    0    0  0.35527136788E-14  0.00000000000E+00 -0.20613650463E+03  0.50874341208E+03  0.46511031035E+03 0.  0.
      99925    2    3    3    0    0 -0.27866996351E+02 -0.98703285953E+02 -0.55583239146E+02  0.28776218665E+03  0.26305640355E+03 0.  0.
         25    1    4    4    0    0 -0.71136043604E+01 -0.69583548342E+01 -0.17643820556E+02  0.12671951141E+03  0.12509000000E+03 0.  0.
         25    1    4    4    0    0 -0.20753391991E+02 -0.91744931119E+02 -0.37939418590E+02  0.16104267524E+03  0.12509000000E+03 0.  0.
         25    1    3    3    0    0  0.27866996351E+02  0.98703285953E+02 -0.15055326549E+03  0.22098122543E+03  0.12509000000E+03 0.  0.
<mgrwt>
<rscale>  2 0.46511031E+03</rscale>
<asrwt>0</asrwt>
<pdfrwt beam="1">  1       21 0.22250508E-01 0.46511031E+03</pdfrwt>
<pdfrwt beam="2">  1       21 0.52564699E-01 0.46511031E+03</pdfrwt>
<totfact> 0.59722048E+04</totfact>
</mgrwt>
</event>
<event>
 7    0  0.4770865E-002  0.4293837E+03  0.7546771E-02  0.1034055E+00
         21   -1    0    0  502  501  0.00000000000E+00  0.00000000000E+00  0.36934198451E+03  0.36934198451E+03  0.00000000000E+00 0. -1.
         21   -1    0    0  501  502 -0.00000000000E+00 -0.00000000000E+00 -0.12479652981E+03  0.12479652981E+03  0.00000000000E+00 0. -1.
      99926    2    1    2    0    0 -0.14210854715E-13 -0.13392065235E-14  0.24454545470E+03  0.49413851431E+03  0.42938373504E+03 0.  0.
      99925    2    3    3    0    0 -0.85892278441E+02  0.13768803243E-01  0.14470433719E+03  0.31249809885E+03  0.26332153899E+03 0.  0.
         25    1    3    3    0    0  0.85892278441E+02 -0.13768803243E-01  0.99841117508E+02  0.18164041547E+03  0.12509000000E+03 0.  0.
         25    1    4    4    0    0 -0.19207221777E+02 -0.26562809227E+02  0.43999359225E+02  0.13659411376E+03  0.12509000000E+03 0.  0.
         25    1    4    4    0    0 -0.66685056664E+02  0.26576578030E+02  0.10070497797E+03  0.17590398509E+03  0.12509000000E+03 0.  0.
<mgrwt>
<rscale>  2 0.42938374E+03</rscale>
<asrwt>0</asrwt>
<pdfrwt beam="1">  1       21 0.54314997E-01 0.42938374E+03</pdfrwt>
<pdfrwt beam="2">  1       21 0.18352431E-01 0.42938374E+03</pdfrwt>
<totfact> 0.80924739E+04</totfact>
</mgrwt>
</event>
<event>
 7    0  0.4770865E-002  0.4530265E+03  0.7546771E-02  0.1026823E+00
         21   -1    0    0  502  501  0.00000000000E+00  0.00000000000E+00  0.21266368110E+03  0.21266368110E+03  0.00000000000E+00 0.  1.
         21   -1    0    0  501  502 -0.00000000000E+00 -0.00000000000E+00 -0.24126480553E+03  0.24126480553E+03  0.00000000000E+00 0.  1.
      99926    2    1    2    0    0  0.00000000000E+00  0.00000000000E+00 -0.28601124431E+02  0.45392848663E+03  0.45302654078E+03 0.  0.
      99925    2    3    3    0    0 -0.34955540800E+02  0.10156244226E+03  0.11120828083E+02  0.28433437965E+03  0.26303145652E+03 0.  0.
         25    1    4    4    0    0  0.16854237516E+02  0.65329832009E+02  0.21719479521E+02  0.14377515837E+03  0.12509000000E+03 0.  0.
         25    1    3    3    0    0  0.34955540800E+02 -0.10156244226E+03 -0.39721952514E+02  0.16959410698E+03  0.12509000000E+03 0.  0.
         25    1    4    4    0    0 -0.51809778316E+02  0.36232610255E+02 -0.10598651438E+02  0.14055922128E+03  0.12509000000E+03 0.  0.
<mgrwt>
<rscale>  2 0.45302654E+03</rscale>
<asrwt>0</asrwt>
<pdfrwt beam="1">  1       21 0.31274071E-01 0.45302654E+03</pdfrwt>
<pdfrwt beam="2">  1       21 0.35480119E-01 0.45302654E+03</pdfrwt>
<totfact> 0.69715679E+04</totfact>
</mgrwt>
</event>
<event>
 7    0  0.4770865E-002  0.4447964E+03  0.7546771E-02  0.1029285E+00
         21   -1    0    0  502  501  0.00000000000E+00  0.00000000000E+00  0.24798767902E+03  0.24798767902E+03  0.00000000000E+00 0.  1.
         21   -1    0    0  501  502 -0.00000000000E+00 -0.00000000000E+00 -0.19944929971E+03  0.19944929971E+03  0.00000000000E+00 0.  1.
      99926    2    1    2    0    0  0.00000000000E+00  0.00000000000E+00  0.48538379311E+02  0.44743697873E+03  0.44479644296E+03 0.  0.
      99925    2    3    3    0    0  0.47920501689E+02  0.67143231169E+02 -0.31814204595E+02  0.27741158706E+03  0.26294573023E+03 0.  0.
         25    1    4    4    0    0  0.34741772514E+02  0.17498963614E+02  0.20162737666E+02  0.13254149756E+03  0.12509000000E+03 0.  0.
         25    1    3    3    0    0 -0.47920501689E+02 -0.67143231169E+02  0.80352583906E+02  0.17002539168E+03  0.12509000000E+03 0.  0.
         25    1    4    4    0    0  0.13178729174E+02  0.49644267555E+02 -0.51976942262E+02  0.14487008950E+03  0.12509000000E+03 0.  0.
<mgrwt>
<rscale>  2 0.44479644E+03</rscale>
<asrwt>0</asrwt>
<pdfrwt beam="1">  1       21 0.36468776E-01 0.44479644E+03</pdfrwt>
<pdfrwt beam="2">  1       21 0.29330779E-01 0.44479644E+03</pdfrwt>
<totfact> 0.75027791E+04</totfact>
</mgrwt>
</event>
<event>
 7    0  0.4770865E-002  0.4550566E+03  0.7546771E-02  0.1026225E+00
         21   -1    0    0  502  501  0.00000000000E+00  0.00000000000E+00  0.51726570263E+03  0.51726570263E+03  0.00000000000E+00 0.  1.
         21   -1    0    0  501  502 -0.00000000000E+00 -0.00000000000E+00 -0.10008228161E+03  0.10008228161E+03  0.00000000000E+00 0.  1.
      99926    2    1    2    0    0  0.14210854715E-13 -0.11102230246E-15  0.41718342101E+03  0.61734798424E+03  0.45505661942E+03 0.  0.
      99925    2    3    3    0    0  0.11192126778E+03  0.99613158539E+00  0.28549778297E+03  0.40400324485E+03  0.26302523702E+03 0.  0.
         25    1    3    3    0    0 -0.11192126778E+03 -0.99613158539E+00  0.13168563804E+03  0.21334473939E+03  0.12509000000E+03 0.  0.
         25    1    4    4    0    0  0.84950038240E+02  0.30760859912E+02  0.16098038092E+03  0.22299087569E+03  0.12509000000E+03 0.  0.
         25    1    4    4    0    0  0.26971229543E+02 -0.29764728326E+02  0.12451740204E+03  0.18101236916E+03  0.12509000000E+03 0.  0.
<mgrwt>
<rscale>  2 0.45505662E+03</rscale>
<asrwt>0</asrwt>
<pdfrwt beam="1">  1       21 0.76068485E-01 0.45505662E+03</pdfrwt>
<pdfrwt beam="2">  1       21 0.14717983E-01 0.45505662E+03</pdfrwt>
<totfact> 0.57597206E+04</totfact>
</mgrwt>
</event>
<event>
 7    0  0.4770865E-002  0.4571040E+03  0.7546771E-02  0.1025624E+00
         21   -1    0    0  502  501  0.00000000000E+00  0.00000000000E+00  0.10115809887E+03  0.10115809887E+03  0.00000000000E+00 0.  1.
         21   -1    0    0  501  502 -0.00000000000E+00 -0.00000000000E+00 -0.51637997344E+03  0.51637997344E+03  0.00000000000E+00 0.  1.
      99926    2    1    2    0    0  0.00000000000E+00  0.00000000000E+00 -0.41522187457E+03  0.61753807232E+03  0.45710399872E+03 0.  0.
      99925    2    3    3    0    0 -0.49320940594E+02  0.30663205229E+02 -0.39492680451E+03  0.47813869892E+03  0.26320457280E+03 0.  0.
         25    1    4    4    0    0 -0.55947390024E+02  0.34090687490E+02 -0.17338287670E+03  0.22360996279E+03  0.12509000000E+03 0.  0.
         25    1    3    3    0    0  0.49320940594E+02 -0.30663205229E+02 -0.20295070057E+02  0.13939937340E+03  0.12509000000E+03 0.  0.
         25    1    4    4    0    0  0.66264494301E+01 -0.34274822612E+01 -0.22154392781E+03  0.25452873613E+03  0.12509000000E+03 0.  0.
<mgrwt>
<rscale>  2 0.45710400E+03</rscale>
<asrwt>0</asrwt>
<pdfrwt beam="1">  1       21 0.14876191E-01 0.45710400E+03</pdfrwt>
<pdfrwt beam="2">  1       21 0.75938231E-01 0.45710400E+03</pdfrwt>
<totfact> 0.56664133E+04</totfact>
</mgrwt>
</event>
<event>
 6    0  0.4770865E-002  0.4512162E+03  0.7546771E-02  0.1027360E+00
         21   -1    0    0  502  501  0.00000000000E+00  0.00000000000E+00  0.27396216636E+03  0.27396216636E+03  0.00000000000E+00 0. -1.
         21   -1    0    0  501  502 -0.00000000000E+00 -0.00000000000E+00 -0.18578848541E+03  0.18578848541E+03  0.00000000000E+00 0. -1.
      99926    2    1    2    0    0  0.00000000000E+00  0.71054273576E-14  0.88173680949E+02  0.45975065178E+03  0.45121620516E+03 0.  0.
         25    1    3    3    0    0 -0.32815060871E+01  0.50315465457E+02 -0.12718436440E+00  0.13487008053E+03  0.12509000000E+03 0.  0.
         25    1    3    3    0    0  0.65101398094E+02 -0.35240496452E+02  0.11076888346E+03  0.18274938650E+03  0.12509000000E+03 0.  0.
         25    1    3    3    0    0 -0.61819892007E+02 -0.15074969004E+02 -0.22468018146E+02  0.14213118475E+03  0.12509000000E+03 0.  0.
<mgrwt>
<rscale>  2 0.45121621E+03</rscale>
<asrwt>0</asrwt>
<pdfrwt beam="1">  1       21 0.40288554E-01 0.45121621E+03</pdfrwt>
<pdfrwt beam="2">  1       21 0.27321836E-01 0.45121621E+03</pdfrwt>
<totfact> 0.70292263E+04</totfact>
</mgrwt>
</event>
<event>
 7    0  0.4770865E-002  0.4474144E+03  0.7546771E-02  0.1028496E+00
         21   -1    0    0  502  501  0.00000000000E+00  0.00000000000E+00  0.28324980312E+03  0.28324980312E+03  0.00000000000E+00 0. -1.
         21   -1    0    0  501  502 -0.00000000000E+00 -0.00000000000E+00 -0.17668119522E+03  0.17668119522E+03  0.00000000000E+00 0. -1.
      99926    2    1    2    0    0  0.00000000000E+00  0.00000000000E+00  0.10656860790E+03  0.45993099833E+03  0.44741441085E+03 0.  0.
      99925    2    3    3    0    0 -0.39736945883E+02  0.40227429314E+01 -0.33125398690E+02  0.26820950526E+03  0.26314224166E+03 0.  0.
         25    1    4    4    0    0  0.16650106548E+02 -0.16805611906E+02 -0.18816768992E+02  0.12869045627E+03  0.12509000000E+03 0.  0.
         25    1    4    4    0    0 -0.56387052432E+02  0.20828354838E+02 -0.14308629698E+02  0.13951904899E+03  0.12509000000E+03 0.  0.
         25    1    3    3    0    0  0.39736945883E+02 -0.40227429314E+01  0.13969400659E+03  0.19172149307E+03  0.12509000000E+03 0.  0.
<mgrwt>
<rscale>  2 0.44741441E+03</rscale>
<asrwt>0</asrwt>
<pdfrwt beam="1">  1       21 0.41654383E-01 0.44741441E+03</pdfrwt>
<pdfrwt beam="2">  1       21 0.25982529E-01 0.44741441E+03</pdfrwt>
<totfact> 0.72454568E+04</totfact>
</mgrwt>
</event>
<event>
 7    0  0.4770865E-002  0.4579620E+03  0.7546771E-02  0.1025374E+00
         21   -1    0    0  502  501  0.00000000000E+00  0.00000000000E+00  0.64194543796E+02  0.64194543796E+02  0.00000000000E+00 0. -1.
         21   -1    0    0  501  502 -0.00000000000E+00 -0.00000000000E+00 -0.81677170853E+03  0.81677170853E+03  0.00000000000E+00 0. -1.
      99926    2    1    2    0    0  0.15543122345E-14  0.00000000000E+00 -0.75257716474E+03  0.88096625233E+03  0.45796195132E+03 0.  0.
      99925    2    3    3    0    0  0.16734081004E+01  0.11241280056E+03 -0.41870304497E+03  0.50712287072E+03  0.26310060455E+03 0.  0.
         25    1    4    4    0    0 -0.31696323643E+02  0.35967466275E+02 -0.16906307294E+03  0.21570383932E+03  0.12509000000E+03 0.  0.
         25    1    4    4    0    0  0.33369731743E+02  0.76445334281E+02 -0.24963997203E+03  0.29141903140E+03  0.12509000000E+03 0.  0.
         25    1    3    3    0    0 -0.16734081004E+01 -0.11241280056E+03 -0.33387411977E+03  0.37384338161E+03  0.12509000000E+03 0.  0.
<mgrwt>
<rscale>  2 0.45796195E+03</rscale>
<asrwt>0</asrwt>
<pdfrwt beam="1">  1       21 0.94403744E-02 0.45796195E+03</pdfrwt>
<pdfrwt beam="2">  1       21 0.12011348E+00 0.45796195E+03</pdfrwt>
<totfact> 0.43059314E+04</totfact>
</mgrwt>
</event>
<event>
 7    0  0.4770865E-002  0.4528110E+03  0.7546771E-02  0.1026887E+00
         21   -1    0    0  502  501  0.00000000000E+00  0.00000000000E+00  0.66609440387E+02  0.66609440387E+02  0.00000000000E+00 0. -1.
         21   -1    0    0  501  502 -0.00000000000E+00 -0.00000000000E+00 -0.76955221111E+03  0.76955221111E+03  0.00000000000E+00 0. -1.
      99926    2    1    2    0    0 -0.71054273576E-14  0.71054273576E-14 -0.70294277072E+03  0.83616165149E+03  0.45281096334E+03 0.  0.
      99925    2    3    3    0    0 -0.49837257814E+02  0.44110046727E+02 -0.27854264457E+03  0.38873297152E+03  0.26286473672E+03 0.  0.
         25    1    4    4    0    0 -0.20320062256E+02  0.80665621437E+01 -0.82045952993E+02  0.15118538573E+03  0.12509000000E+03 0.  0.
         25    1    3    3    0    0  0.49837257814E+02 -0.44110046727E+02 -0.42440012615E+03  0.44742867997E+03  0.12509000000E+03 0.  0.
         25    1    4    4    0    0 -0.29517195558E+02  0.36043484583E+02 -0.19649669158E+03  0.23754758579E+03  0.12509000000E+03 0.  0.
<mgrwt>
<rscale>  2 0.45281096E+03</rscale>
<asrwt>0</asrwt>
<pdfrwt beam="1">  1       21 0.97955058E-02 0.45281096E+03</pdfrwt>
<pdfrwt beam="2">  1       21 0.11316944E+00 0.45281096E+03</pdfrwt>
<totfact> 0.46864602E+04</totfact>
</mgrwt>
</event>
<event>
 7    0  0.4770865E-002  0.4493516E+03  0.7546771E-02  0.1027916E+00
         21   -1    0    0  502  501  0.00000000000E+00  0.00000000000E+00  0.67114292205E+03  0.67114292205E+03  0.00000000000E+00 0. -1.
         21   -1    0    0  501  502 -0.00000000000E+00 -0.00000000000E+00 -0.75213807600E+02  0.75213807600E+02  0.00000000000E+00 0. -1.
      99926    2    1    2    0    0  0.00000000000E+00  0.00000000000E+00  0.59592911445E+03  0.74635672965E+03  0.44935159780E+03 0.  0.
      99925    2    3    3    0    0 -0.66567536039E+02 -0.53819572590E+02  0.48569091637E+03  0.55893274062E+03  0.26302539620E+03 0.  0.
         25    1    4    4    0    0 -0.11502833868E+02 -0.40988641395E+02  0.17513826514E+03  0.21939303528E+03  0.12509000000E+03 0.  0.
         25    1    3    3    0    0  0.66567536039E+02  0.53819572590E+02  0.11023819808E+03  0.18742398903E+03  0.12509000000E+03 0.  0.
         25    1    4    4    0    0 -0.55064702171E+02 -0.12830931195E+02  0.31055265123E+03  0.33953970535E+03  0.12509000000E+03 0.  0.
<mgrwt>
<rscale>  2 0.44935160E+03</rscale>
<asrwt>0</asrwt>
<pdfrwt beam="1">  1       21 0.98697485E-01 0.44935160E+03</pdfrwt>
<pdfrwt beam="2">  1       21 0.11060854E-01 0.44935160E+03</pdfrwt>
<totfact> 0.52761011E+04</totfact>
</mgrwt>
</event>
<event>
 7    0  0.4770865E-002  0.4536835E+03  0.7546771E-02  0.1026629E+00
         21   -1    0    0  502  501  0.00000000000E+00  0.00000000000E+00  0.16228440780E+03  0.16228440780E+03  0.00000000000E+00 0. -1.
         21   -1    0    0  501  502 -0.00000000000E+00 -0.00000000000E+00 -0.31708027118E+03  0.31708027118E+03  0.00000000000E+00 0. -1.
      99926    2    1    2    0    0  0.00000000000E+00  0.00000000000E+00 -0.15479586338E+03  0.47936467898E+03  0.45368351980E+03 0.  0.
      99925    2    3    3    0    0  0.98688328909E+02 -0.52387210234E+02 -0.10414678534E+03  0.30416010351E+03  0.26302663290E+03 0.  0.
         25    1    4    4    0    0  0.79613485600E+02 -0.66295702492E+01 -0.75766956128E+02  0.16664452596E+03  0.12509000000E+03 0.  0.
         25    1    4    4    0    0  0.19074843308E+02 -0.45757639985E+02 -0.28379829208E+02  0.13751557755E+03  0.12509000000E+03 0.  0.
         25    1    3    3    0    0 -0.98688328909E+02  0.52387210234E+02 -0.50649078043E+02  0.17520457547E+03  0.12509000000E+03 0.  0.
<mgrwt>
<rscale>  2 0.45368352E+03</rscale>
<asrwt>0</asrwt>
<pdfrwt beam="1">  1       21 0.23865354E-01 0.45368352E+03</pdfrwt>
<pdfrwt beam="2">  1       21 0.46629451E-01 0.45368352E+03</pdfrwt>
<totfact> 0.67448426E+04</totfact>
</mgrwt>
</event>
<event>
 7    0  0.4770865E-002  0.4515009E+03  0.7546771E-02  0.1027275E+00
         21   -1    0    0  502  501  0.00000000000E+00  0.00000000000E+00  0.24697684809E+03  0.24697684809E+03  0.00000000000E+00 0. -1.
         21   -1    0    0  501  502 -0.00000000000E+00 -0.00000000000E+00 -0.20634833287E+03  0.20634833287E+03  0.00000000000E+00 0. -1.
      99926    2    1    2    0    0  0.00000000000E+00  0.00000000000E+00  0.40628515227E+02  0.45332518096E+03  0.45150087867E+03 0.  0.
      99925    2    3    3    0    0  0.81903252394E+02 -0.73119480420E+02  0.21080626218E+02  0.28574168167E+03  0.26296257276E+03 0.  0.
         25    1    4    4    0    0  0.45127465044E+02 -0.26533639527E+02  0.49580612142E+02  0.14438236502E+03  0.12509000000E+03 0.  0.
         25    1    3    3    0    0 -0.81903252394E+02  0.73119480420E+02  0.19547889009E+02  0.16758349929E+03  0.12509000000E+03 0.  0.
         25    1    4    4    0    0  0.36775787350E+02 -0.46585840893E+02 -0.28499985924E+02  0.14135931665E+03  0.12509000000E+03 0.  0.
<mgrwt>
<rscale>  2 0.45150088E+03</rscale>
<asrwt>0</asrwt>
<pdfrwt beam="1">  1       21 0.36320125E-01 0.45150088E+03</pdfrwt>
<pdfrwt beam="2">  1       21 0.30345343E-01 0.45150088E+03</pdfrwt>
<totfact> 0.70619760E+04</totfact>
</mgrwt>
</event>
<event>
 7    0  0.4770865E-002  0.4448413E+03  0.7546771E-02  0.1029272E+00
         21   -1    0    0  502  501  0.00000000000E+00  0.00000000000E+00  0.42642211875E+02  0.42642211875E+02  0.00000000000E+00 0.  1.
         21   -1    0    0  501  502 -0.00000000000E+00 -0.00000000000E+00 -0.11601401064E+04  0.11601401064E+04  0.00000000000E+00 0.  1.
      99926    2    1    2    0    0  0.00000000000E+00  0.00000000000E+00 -0.11174978945E+04  0.12027823183E+04  0.44484127606E+03 0.  0.
      99925    2    3    3    0    0  0.65266589160E+02 -0.68892439424E+02 -0.82044446555E+03  0.86678508073E+03  0.26302349564E+03 0.  0.
         25    1    3    3    0    0 -0.65266589160E+02  0.68892439424E+02 -0.29705342897E+03  0.33599723754E+03  0.12509000000E+03 0.  0.
         25    1    4    4    0    0  0.25337010981E+02 -0.22000975624E+02 -0.27768295280E+03  0.30640061591E+03  0.12509000000E+03 0.  0.
         25    1    4    4    0    0  0.39929578179E+02 -0.46891463799E+02 -0.54276151275E+03  0.56038446483E+03  0.12509000000E+03 0.  0.
<mgrwt>
<rscale>  2 0.44484128E+03</rscale>
<asrwt>0</asrwt>
<pdfrwt beam="1">  1       21 0.62709128E-02 0.44484128E+03</pdfrwt>
<pdfrwt beam="2">  1       21 0.17060886E+00 0.44484128E+03</pdfrwt>
<totfact> 0.34736340E+04</totfact>
</mgrwt>
</event>
<event>
 7    0  0.4770865E-002  0.4564200E+03  0.7546771E-02  0.1025825E+00
         21   -1    0    0  502  501  0.00000000000E+00  0.00000000000E+00  0.26187856110E+02  0.26187856110E+02  0.00000000000E+00 0. -1.
         21   -1    0    0  501  502 -0.00000000000E+00 -0.00000000000E+00 -0.19887003313E+04  0.19887003313E+04  0.00000000000E+00 0. -1.
      99926    2    1    2    0    0  0.00000000000E+00 -0.13322676296E-14 -0.19625124752E+04  0.20148881874E+04  0.45641997381E+03 0.  0.
      99925    2    3    3    0    0 -0.68683601150E+02 -0.34469497493E+01 -0.16373122989E+04  0.16597375415E+04  0.26307379959E+03 0.  0.
         25    1    3    3    0    0  0.68683601150E+02  0.34469497493E+01 -0.32520017635E+03  0.35515064596E+03  0.12509000000E+03 0.  0.
         25    1    4    4    0    0 -0.23433003511E+02  0.31121439812E+02 -0.66769023967E+03  0.68042296693E+03  0.12509000000E+03 0.  0.
         25    1    4    4    0    0 -0.45250597639E+02 -0.34568389561E+02 -0.96962205918E+03  0.97931457454E+03  0.12509000000E+03 0.  0.
<mgrwt>
<rscale>  2 0.45641997E+03</rscale>
<asrwt>0</asrwt>
<pdfrwt beam="1">  1       21 0.38511556E-02 0.45641997E+03</pdfrwt>
<pdfrwt beam="2">  1       21 0.29245591E+00 0.45641997E+03</pdfrwt>
<totfact> 0.13320658E+04</totfact>
</mgrwt>
</event>
<event>
 7    0  0.4770865E-002  0.4547758E+03  0.7546771E-02  0.1026307E+00
         21   -1    0    0  502  501  0.00000000000E+00  0.00000000000E+00  0.31805824626E+02  0.31805824626E+02  0.00000000000E+00 0. -1.
         21   -1    0    0  501  502 -0.00000000000E+00 -0.00000000000E+00 -0.16256534137E+04  0.16256534137E+04  0.00000000000E+00 0. -1.
      99926    2    1    2    0    0 -0.88817841970E-15  0.00000000000E+00 -0.15938475891E+04  0.16574592383E+04  0.45477575740E+03 0.  0.
      99925    2    3    3    0    0 -0.35792526158E+01 -0.39084082997E+02 -0.61685658825E+03  0.67171114657E+03  0.26295139736E+03 0.  0.
         25    1    4    4    0    0  0.31511666074E+02 -0.37641085307E+01 -0.25912310552E+03  0.28948133882E+03  0.12509000000E+03 0.  0.
         25    1    4    4    0    0 -0.35090918690E+02 -0.35319974466E+02 -0.35773348272E+03  0.38222980775E+03  0.12509000000E+03 0.  0.
         25    1    3    3    0    0  0.35792526158E+01  0.39084082997E+02 -0.97699100085E+03  0.98574809177E+03  0.12509000000E+03 0.  0.
<mgrwt>
<rscale>  2 0.45477576E+03</rscale>
<asrwt>0</asrwt>
<pdfrwt beam="1">  1       21 0.46773269E-02 0.45477576E+03</pdfrwt>
<pdfrwt beam="2">  1       21 0.23906669E+00 0.45477576E+03</pdfrwt>
<totfact> 0.20197091E+04</totfact>
</mgrwt>
</event>
<event>
 7    0  0.4770865E-002  0.4521089E+03  0.7546771E-02  0.1027095E+00
         21   -1    0    0  502  501  0.00000000000E+00  0.00000000000E+00  0.77520185173E+03  0.77520185173E+03  0.00000000000E+00 0.  1.
         21   -1    0    0  501  502 -0.00000000000E+00 -0.00000000000E+00 -0.65919100239E+02  0.65919100239E+02  0.00000000000E+00 0.  1.
      99926    2    1    2    0    0  0.00000000000E+00 -0.88817841970E-15  0.70928275149E+03  0.84112095197E+03  0.45210887436E+03 0.  0.
      99925    2    3    3    0    0 -0.16457920382E+02  0.60268863515E+01  0.65029358181E+03  0.70171357504E+03  0.26308366037E+03 0.  0.
         25    1    4    4    0    0  0.94662412616E+01 -0.33526951415E+02  0.31146117704E+03  0.33744516458E+03  0.12509000000E+03 0.  0.
         25    1    4    4    0    0 -0.25924161644E+02  0.39553837766E+02  0.33883240477E+03  0.36426841046E+03  0.12509000000E+03 0.  0.
         25    1    3    3    0    0  0.16457920382E+02 -0.60268863515E+01  0.58989169684E+02  0.13940737693E+03  0.12509000000E+03 0.  0.
<mgrwt>
<rscale>  2 0.45210887E+03</rscale>
<asrwt>0</asrwt>
<pdfrwt beam="1">  1       21 0.11400027E+00 0.45210887E+03</pdfrwt>
<pdfrwt beam="2">  1       21 0.96939858E-02 0.45210887E+03</pdfrwt>
<totfact> 0.46893831E+04</totfact>
</mgrwt>
</event>
<event>
 7    0  0.4770865E-002  0.4447439E+03  0.7546771E-02  0.1029301E+00
         21   -1    0    0  502  501  0.00000000000E+00  0.00000000000E+00  0.57947643109E+03  0.57947643109E+03  0.00000000000E+00 0.  1.
         21   -1    0    0  501  502 -0.00000000000E+00 -0.00000000000E+00 -0.85334409209E+02  0.85334409209E+02  0.00000000000E+00 0.  1.
      99926    2    1    2    0    0 -0.71054273576E-14  0.14210854715E-13  0.49414202189E+03  0.66481084030E+03  0.44474387640E+03 0.  0.
      99925    2    3    3    0    0  0.37011768246E+02 -0.96909155524E+02  0.31699670767E+03  0.42441694300E+03  0.26245299278E+03 0.  0.
         25    1    4    4    0    0  0.95346794397E+01 -0.14215726698E+02  0.17717165561E+03  0.21755528182E+03  0.12509000000E+03 0.  0.
         25    1    4    4    0    0  0.27477088807E+02 -0.82693428826E+02  0.13982505206E+03  0.20686166117E+03  0.12509000000E+03 0.  0.
         25    1    3    3    0    0 -0.37011768246E+02  0.96909155524E+02  0.17714531422E+03  0.24039389731E+03  0.12509000000E+03 0.  0.
<mgrwt>
<rscale>  2 0.44474388E+03</rscale>
<asrwt>0</asrwt>
<pdfrwt beam="1">  1       21 0.85217120E-01 0.44474388E+03</pdfrwt>
<pdfrwt beam="2">  1       21 0.12549178E-01 0.44474388E+03</pdfrwt>
<totfact> 0.59522026E+04</totfact>
</mgrwt>
</event>
<event>
 7    0  0.4770865E-002  0.4747094E+03  0.7546771E-02  0.1020599E+00
         21   -1    0    0  502  501  0.00000000000E+00  0.00000000000E+00  0.14044461587E+04  0.14044461587E+04  0.00000000000E+00 0. -1.
         21   -1    0    0  501  502 -0.00000000000E+00 -0.00000000000E+00 -0.40113507238E+02  0.40113507238E+02  0.00000000000E+00 0. -1.
      99926    2    1    2    0    0  0.00000000000E+00  0.00000000000E+00  0.13643326514E+04  0.14445596659E+04  0.47470943176E+03 0.  0.
      99925    2    3    3    0    0  0.32245223556E+02 -0.39620086881E+02  0.12106556701E+04  0.12399291980E+04  0.26292158266E+03 0.  0.
         25    1    4    4    0    0  0.22137081238E+02  0.12069084026E+02  0.70048433003E+03  0.71201230177E+03  0.12509000000E+03 0.  0.
         25    1    4    4    0    0  0.10108142318E+02 -0.51689170907E+02  0.51017134010E+03  0.52791689620E+03  0.12509000000E+03 0.  0.
         25    1    3    3    0    0 -0.32245223556E+02  0.39620086881E+02  0.15367698129E+03  0.20463046793E+03  0.12509000000E+03 0.  0.
<mgrwt>
<rscale>  2 0.47470943E+03</rscale>
<asrwt>0</asrwt>
<pdfrwt beam="1">  1       21 0.20653617E+00 0.47470943E+03</pdfrwt>
<pdfrwt beam="2">  1       21 0.58990461E-02 0.47470943E+03</pdfrwt>
<totfact> 0.21657175E+04</totfact>
</mgrwt>
</event>
<event>
 6    0  0.4770865E-002  0.4500296E+03  0.7546771E-02  0.1027713E+00
         21   -1    0    0  502  501  0.00000000000E+00  0.00000000000E+00  0.18050130758E+03  0.18050130758E+03  0.00000000000E+00 0. -1.
         21   -1    0    0  501  502 -0.00000000000E+00 -0.00000000000E+00 -0.28050574417E+03  0.28050574417E+03  0.00000000000E+00 0. -1.
      99926    2    1    2    0    0  0.00000000000E+00  0.00000000000E+00 -0.10000443659E+03  0.46100705174E+03  0.45002957061E+03 0.  0.
         25    1    3    3    0    0  0.84731978646E+02  0.48608780837E+02 -0.80777893751E+02  0.17808677098E+03  0.12509000000E+03 0.  0.
         25    1    3    3    0    0 -0.55444758730E+02  0.13815700497E+02 -0.25849355723E+02  0.13993102637E+03  0.12509000000E+03 0.  0.
         25    1    3    3    0    0 -0.29287219916E+02 -0.62424481334E+02  0.66228128852E+01  0.14298925439E+03  0.12509000000E+03 0.  0.
<mgrwt>
<rscale>  2 0.45002957E+03</rscale>
<asrwt>0</asrwt>
<pdfrwt beam="1">  1       21 0.26544310E-01 0.45002957E+03</pdfrwt>
<pdfrwt beam="2">  1       21 0.41250844E-01 0.45002957E+03</pdfrwt>
<totfact> 0.70863769E+04</totfact>
</mgrwt>
</event>
<event>
 7    0  0.4770865E-002  0.4486437E+03  0.7546771E-02  0.1028127E+00
         21   -1    0    0  502  501  0.00000000000E+00  0.00000000000E+00  0.58849293701E+03  0.58849293701E+03  0.00000000000E+00 0. -1.
         21   -1    0    0  501  502 -0.00000000000E+00 -0.00000000000E+00 -0.85507046112E+02  0.85507046112E+02  0.00000000000E+00 0. -1.
      99926    2    1    2    0    0  0.71054273576E-14  0.00000000000E+00  0.50298589089E+03  0.67399998312E+03  0.44864370140E+03 0.  0.
      99925    2    3    3    0    0 -0.53215183572E+02 -0.66044870361E+02  0.22003716589E+03  0.35321770533E+03  0.26296884287E+03 0.  0.
         25    1    4    4    0    0  0.10944912240E+02 -0.46700922771E+02  0.11668673049E+03  0.17766279426E+03  0.12509000000E+03 0.  0.
         25    1    4    4    0    0 -0.64160095812E+02 -0.19343947590E+02  0.10335043541E+03  0.17555491107E+03  0.12509000000E+03 0.  0.
         25    1    3    3    0    0  0.53215183572E+02  0.66044870361E+02  0.28294872500E+03  0.32078227779E+03  0.12509000000E+03 0.  0.
<mgrwt>
<rscale>  2 0.44864370E+03</rscale>
<asrwt>0</asrwt>
<pdfrwt beam="1">  1       21 0.86543077E-01 0.44864370E+03</pdfrwt>
<pdfrwt beam="2">  1       21 0.12574566E-01 0.44864370E+03</pdfrwt>
<totfact> 0.57145527E+04</totfact>
</mgrwt>
</event>
<event>
 7    0  0.4770865E-002  0.4524778E+03  0.7546771E-02  0.1026986E+00
         21   -1    0    0  502  501  0.00000000000E+00  0.00000000000E+00  0.25289075327E+03  0.25289075327E+03  0.00000000000E+00 0.  1.
         21   -1    0    0  501  502 -0.00000000000E+00 -0.00000000000E+00 -0.20239586933E+03  0.20239586933E+03  0.00000000000E+00 0.  1.
      99926    2    1    2    0    0  0.00000000000E+00 -0.71054273576E-14  0.50494883939E+02  0.45528662260E+03  0.45247781759E+03 0.  0.
      99925    2    3    3    0    0 -0.81207199450E+02 -0.61691679242E+02  0.75480930238E+02  0.29197011045E+03  0.26296140789E+03 0.  0.
         25    1    4    4    0    0 -0.41482197558E+02 -0.61965290570E+02  0.67412965002E+02  0.16047581095E+03  0.12509000000E+03 0.  0.
         25    1    3    3    0    0  0.81207199450E+02  0.61691679242E+02 -0.24986046299E+02  0.16331651215E+03  0.12509000000E+03 0.  0.
         25    1    4    4    0    0 -0.39725001892E+02  0.27361132803E+00  0.80679652352E+01  0.13149429950E+03  0.12509000000E+03 0.  0.
<mgrwt>
<rscale>  2 0.45247782E+03</rscale>
<asrwt>0</asrwt>
<pdfrwt beam="1">  1       21 0.37189817E-01 0.45247782E+03</pdfrwt>
<pdfrwt beam="2">  1       21 0.29764099E-01 0.45247782E+03</pdfrwt>
<totfact> 0.69921214E+04</totfact>
</mgrwt>
</event>
<event>
 7    0  0.4770865E-002  0.4557290E+03  0.7546771E-02  0.1026027E+00
         21   -1    0    0  502  501  0.00000000000E+00  0.00000000000E+00  0.51289678803E+03  0.51289678803E+03  0.00000000000E+00 0.  1.
         21   -1    0    0  501  502 -0.00000000000E+00 -0.00000000000E+00 -0.10123331430E+03  0.10123331430E+03  0.00000000000E+00 0.  1.
      99926    2    1    2    0    0  0.14210854715E-13  0.14210854715E-13  0.41166347374E+03  0.61413010233E+03  0.45572904996E+03 0.  0.
      99925    2    3    3    0    0  0.83667146305E+02  0.77131907471E+02  0.25248676413E+03  0.38189260427E+03  0.26295032348E+03 0.  0.
         25    1    4    4    0    0  0.91408259827E+01  0.41730287252E+02  0.15216818053E+03  0.20156297984E+03  0.12509000000E+03 0.  0.
         25    1    3    3    0    0 -0.83667146305E+02 -0.77131907471E+02  0.15917670961E+03  0.23223749806E+03  0.12509000000E+03 0.  0.
         25    1    4    4    0    0  0.74526320323E+02  0.35401620218E+02  0.10031858360E+03  0.18032962444E+03  0.12509000000E+03 0.  0.
<mgrwt>
<rscale>  2 0.45572905E+03</rscale>
<asrwt>0</asrwt>
<pdfrwt beam="1">  1       21 0.75425997E-01 0.45572905E+03</pdfrwt>
<pdfrwt beam="2">  1       21 0.14887252E-01 0.45572905E+03</pdfrwt>
<totfact> 0.57485131E+04</totfact>
</mgrwt>
</event>
<event>
 7    0  0.4770865E-002  0.4394859E+03  0.7546771E-02  0.1030905E+00
         21   -1    0    0  502  501  0.00000000000E+00  0.00000000000E+00  0.48412061404E+03  0.48412061404E+03  0.00000000000E+00 0. -1.
         21   -1    0    0  501  502 -0.00000000000E+00 -0.00000000000E+00 -0.99741619119E+02  0.99741619119E+02  0.00000000000E+00 0. -1.
      99926    2    1    2    0    0 -0.14210854715E-13 -0.17763568394E-14  0.38437899493E+03  0.58386223316E+03  0.43948594468E+03 0.  0.
      99925    2    3    3    0    0 -0.96449875608E+02  0.81478657011E+01  0.22553979866E+03  0.35970522437E+03  0.26296517153E+03 0.  0.
         25    1    4    4    0    0 -0.66902093697E+02  0.40448929096E+02  0.12511461210E+03  0.19342486983E+03  0.12509000000E+03 0.  0.
         25    1    4    4    0    0 -0.29547781911E+02 -0.32301063395E+02  0.10042518656E+03  0.16628035454E+03  0.12509000000E+03 0.  0.
         25    1    3    3    0    0  0.96449875608E+02 -0.81478657011E+01  0.15883919627E+03  0.22415700879E+03  0.12509000000E+03 0.  0.
<mgrwt>
<rscale>  2 0.43948594E+03</rscale>
<asrwt>0</asrwt>
<pdfrwt beam="1">  1       21 0.71194207E-01 0.43948594E+03</pdfrwt>
<pdfrwt beam="2">  1       21 0.14667885E-01 0.43948594E+03</pdfrwt>
<totfact> 0.67598773E+04</totfact>
</mgrwt>
</event>
<event>
 6    0  0.4770865E-002  0.4550111E+03  0.7546771E-02  0.1026238E+00
         21   -1    0    0  502  501  0.00000000000E+00  0.00000000000E+00  0.56531488255E+03  0.56531488255E+03  0.00000000000E+00 0.  1.
         21   -1    0    0  501  502 -0.00000000000E+00 -0.00000000000E+00 -0.91557406629E+02  0.91557406629E+02  0.00000000000E+00 0.  1.
      99926    2    1    2    0    0  0.00000000000E+00  0.00000000000E+00  0.47375747592E+03  0.65687228918E+03  0.45501105294E+03 0.  0.
         25    1    3    3    0    0  0.12211053746E+02  0.83618744500E+02  0.10166115551E+03  0.18199918380E+03  0.12509000000E+03 0.  0.
         25    1    3    3    0    0 -0.18766998121E+02 -0.72204815661E+02  0.29043455355E+03  0.32490840805E+03  0.12509000000E+03 0.  0.
         25    1    3    3    0    0  0.65559443752E+01 -0.11413928838E+02  0.81661766855E+02  0.14996469733E+03  0.12509000000E+03 0.  0.
<mgrwt>
<rscale>  2 0.45501105E+03</rscale>
<asrwt>0</asrwt>
<pdfrwt beam="1">  1       21 0.83134540E-01 0.45501105E+03</pdfrwt>
<pdfrwt beam="2">  1       21 0.13464325E-01 0.45501105E+03</pdfrwt>
<totfact> 0.55302416E+04</totfact>
</mgrwt>
</event>
<event>
 7    0  0.4770865E-002  0.4539913E+03  0.7546771E-02  0.1026538E+00
         21   -1    0    0  502  501  0.00000000000E+00  0.00000000000E+00  0.15369403299E+03  0.15369403299E+03  0.00000000000E+00 0.  1.
         21   -1    0    0  501  502 -0.00000000000E+00 -0.00000000000E+00 -0.33525711484E+03  0.33525711484E+03  0.00000000000E+00 0.  1.
      99926    2    1    2    0    0  0.00000000000E+00  0.00000000000E+00 -0.18156308185E+03  0.48895114783E+03  0.45399126894E+03 0.  0.
      99925    2    3    3    0    0 -0.39328451278E+02  0.10645820178E+02 -0.17018026463E+01  0.26611118636E+03  0.26296807184E+03 0.  0.
         25    1    4    4    0    0 -0.48525163706E+01  0.39510646145E+01  0.36904255216E+02  0.13057024921E+03  0.12509000000E+03 0.  0.
         25    1    4    4    0    0 -0.34475934908E+02  0.66947555638E+01 -0.38606057862E+02  0.13554093715E+03  0.12509000000E+03 0.  0.
         25    1    3    3    0    0  0.39328451278E+02 -0.10645820178E+02 -0.17986127921E+03  0.22283996146E+03  0.12509000000E+03 0.  0.
<mgrwt>
<rscale>  2 0.45399127E+03</rscale>
<asrwt>0</asrwt>
<pdfrwt beam="1">  1       21 0.22602064E-01 0.45399127E+03</pdfrwt>
<pdfrwt beam="2">  1       21 0.49302516E-01 0.45399127E+03</pdfrwt>
<totfact> 0.66585690E+04</totfact>
</mgrwt>
</event>
<event>
 7    0  0.4770865E-002  0.4580043E+03  0.7546771E-02  0.1025362E+00
         21   -1    0    0  502  501  0.00000000000E+00  0.00000000000E+00  0.25942476620E+02  0.25942476620E+02  0.00000000000E+00 0.  1.
         21   -1    0    0  501  502 -0.00000000000E+00 -0.00000000000E+00 -0.20214720150E+04  0.20214720150E+04  0.00000000000E+00 0.  1.
      99926    2    1    2    0    0 -0.71054273576E-14 -0.17763568394E-14 -0.19955295384E+04  0.20474144916E+04  0.45800432525E+03 0.  0.
      99925    2    3    3    0    0  0.54227645718E+02  0.12526040268E+02 -0.79790273136E+03  0.84198717475E+03  0.26305150541E+03 0.  0.
         25    1    4    4    0    0  0.32718191528E+02  0.36568639301E+02 -0.48982789982E+03  0.50792383777E+03  0.12509000000E+03 0.  0.
         25    1    3    3    0    0 -0.54227645718E+02 -0.12526040268E+02 -0.11976268070E+04  0.12054273168E+04  0.12509000000E+03 0.  0.
         25    1    4    4    0    0  0.21509454190E+02 -0.24042599033E+02 -0.30807483154E+03  0.33406333698E+03  0.12509000000E+03 0.  0.
<mgrwt>
<rscale>  2 0.45800433E+03</rscale>
<asrwt>0</asrwt>
<pdfrwt beam="1">  1       21 0.38150689E-02 0.45800433E+03</pdfrwt>
<pdfrwt beam="2">  1       21 0.29727539E+00 0.45800433E+03</pdfrwt>
<totfact> 0.12653309E+04</totfact>
</mgrwt>
</event>
<event>
 7    0  0.4770865E-002  0.4493836E+03  0.7546771E-02  0.1027906E+00
         21   -1    0    0  502  501  0.00000000000E+00  0.00000000000E+00  0.63133373198E+03  0.63133373198E+03  0.00000000000E+00 0.  1.
         21   -1    0    0  501  502 -0.00000000000E+00 -0.00000000000E+00 -0.79967851648E+02  0.79967851648E+02  0.00000000000E+00 0.  1.
      99926    2    1    2    0    0 -0.71054273576E-14 -0.14210854715E-13  0.55136588033E+03  0.71130158363E+03  0.44938358768E+03 0.  0.
      99925    2    3    3    0    0  0.33704081837E+02  0.91294106281E+02  0.27563708409E+03  0.39326942150E+03  0.26308640555E+03 0.  0.
         25    1    4    4    0    0  0.20757452354E+02  0.63071229695E+01  0.14765907756E+03  0.19473408257E+03  0.12509000000E+03 0.  0.
         25    1    4    4    0    0  0.12946629483E+02  0.84986983311E+02  0.12797800653E+03  0.19853533893E+03  0.12509000000E+03 0.  0.
         25    1    3    3    0    0 -0.33704081837E+02 -0.91294106281E+02  0.27572879624E+03  0.31803216213E+03  0.12509000000E+03 0.  0.
<mgrwt>
<rscale>  2 0.44938359E+03</rscale>
<asrwt>0</asrwt>
<pdfrwt beam="1">  1       21 0.92843193E-01 0.44938359E+03</pdfrwt>
<pdfrwt beam="2">  1       21 0.11759978E-01 0.44938359E+03</pdfrwt>
<totfact> 0.54669542E+04</totfact>
</mgrwt>
</event>
<event>
 7    0  0.4770865E-002  0.4356967E+03  0.7546771E-02  0.1032075E+00
         21   -1    0    0  502  501  0.00000000000E+00  0.00000000000E+00  0.33238777570E+03  0.33238777570E+03  0.00000000000E+00 0.  1.
         21   -1    0    0  501  502 -0.00000000000E+00 -0.00000000000E+00 -0.14277875998E+03  0.14277875998E+03  0.00000000000E+00 0.  1.
      99926    2    1    2    0    0  0.00000000000E+00 -0.13322676296E-14  0.18960901571E+03  0.47516653568E+03  0.43569674980E+03 0.  0.
      99925    2    3    3    0    0 -0.46937250372E+02 -0.17723735688E+01  0.21041199147E+03  0.33993888066E+03  0.26282882195E+03 0.  0.
         25    1    3    3    0    0  0.46937250372E+02  0.17723735688E+01 -0.20802975762E+02  0.13522765502E+03  0.12509000000E+03 0.  0.
         25    1    4    4    0    0 -0.51716525585E+02  0.26416513912E+02  0.12181989788E+03  0.18401094219E+03  0.12509000000E+03 0.  0.
         25    1    4    4    0    0  0.47792752127E+01 -0.28188887480E+02  0.88592093590E+02  0.15592793847E+03  0.12509000000E+03 0.  0.
<mgrwt>
<rscale>  2 0.43569675E+03</rscale>
<asrwt>0</asrwt>
<pdfrwt beam="1">  1       21 0.48880555E-01 0.43569675E+03</pdfrwt>
<pdfrwt beam="2">  1       21 0.20996876E-01 0.43569675E+03</pdfrwt>
<totfact> 0.78395153E+04</totfact>
</mgrwt>
</event>
<event>
 7    0  0.4770865E-002  0.4353850E+03  0.7546771E-02  0.1032172E+00
         21   -1    0    0  502  501  0.00000000000E+00  0.00000000000E+00  0.38656997255E+02  0.38656997255E+02  0.00000000000E+00 0.  1.
         21   -1    0    0  501  502 -0.00000000000E+00 -0.00000000000E+00 -0.12259107613E+04  0.12259107613E+04  0.00000000000E+00 0.  1.
      99926    2    1    2    0    0 -0.35527136788E-14 -0.14210854715E-13 -0.11872537640E+04  0.12645677585E+04  0.43538502011E+03 0.  0.
      99925    2    3    3    0    0 -0.28720250664E+02 -0.78482676268E+02 -0.88456872669E+03  0.92655870067E+03  0.26280184603E+03 0.  0.
         25    1    4    4    0    0 -0.35514530016E+02 -0.11362847619E+02 -0.35448760745E+03  0.37775569894E+03  0.12509000000E+03 0.  0.
         25    1    3    3    0    0  0.28720250664E+02  0.78482676268E+02 -0.30268503733E+03  0.33800905786E+03  0.12509000000E+03 0.  0.
         25    1    4    4    0    0  0.67942793521E+01 -0.67119828649E+02 -0.53008111923E+03  0.54880300172E+03  0.12509000000E+03 0.  0.
<mgrwt>
<rscale>  2 0.43538502E+03</rscale>
<asrwt>0</asrwt>
<pdfrwt beam="1">  1       21 0.56848529E-02 0.43538502E+03</pdfrwt>
<pdfrwt beam="2">  1       21 0.18028098E+00 0.43538502E+03</pdfrwt>
<totfact> 0.35239852E+04</totfact>
</mgrwt>
</event>
<event>
 6    0  0.5374003E-002  0.4310289E+03  0.7546771E-02  0.1033535E+00
         21   -1    0    0  502  501  0.00000000000E+00  0.00000000000E+00  0.59167352886E+02  0.59167352886E+02  0.00000000000E+00 0. -1.
         21   -1    0    0  501  502 -0.00000000000E+00 -0.00000000000E+00 -0.78500197529E+03  0.78500197529E+03  0.00000000000E+00 0. -1.
      99926    2    1    2    0    0  0.00000000000E+00  0.00000000000E+00 -0.72583462241E+03  0.84416932818E+03  0.43102894978E+03 0.  0.
         25    1    3    3    0    0  0.22431446898E+02 -0.76815594386E+02 -0.30461644248E+03  0.33888418446E+03  0.12509000000E+03 0.  0.
         25    1    3    3    0    0  0.28779400748E+02  0.19902931355E+02 -0.23197072190E+03  0.26586143854E+03  0.12509000000E+03 0.  0.
         25    1    3    3    0    0 -0.51210847646E+02  0.56912663031E+02 -0.18924745803E+03  0.23942370518E+03  0.12509000000E+03 0.  0.
<mgrwt>
<rscale>  2 0.43102895E+03</rscale>
<asrwt>0</asrwt>
<pdfrwt beam="1">  1       21 0.87010824E-02 0.43102895E+03</pdfrwt>
<pdfrwt beam="2">  1       21 0.11544145E+00 0.43102895E+03</pdfrwt>
<totfact> 0.55407439E+04</totfact>
</mgrwt>
</event>
<event>
 7    0  0.4770865E-002  0.4546756E+03  0.7546771E-02  0.1026337E+00
         21   -1    0    0  502  501  0.00000000000E+00  0.00000000000E+00  0.32080303185E+03  0.32080303185E+03  0.00000000000E+00 0. -1.
         21   -1    0    0  501  502 -0.00000000000E+00 -0.00000000000E+00 -0.16110346295E+03  0.16110346295E+03  0.00000000000E+00 0. -1.
      99926    2    1    2    0    0 -0.14210854715E-13  0.71054273576E-14  0.15969956890E+03  0.48190649479E+03  0.45467561779E+03 0.  0.
      99925    2    3    3    0    0 -0.80692551167E+02  0.30627025068E+02  0.17742176940E+03  0.32890032835E+03  0.26314946182E+03 0.  0.
         25    1    4    4    0    0 -0.80422950602E+02  0.23278011508E+02  0.11142345807E+03  0.18727629832E+03  0.12509000000E+03 0.  0.
         25    1    3    3    0    0  0.80692551167E+02 -0.30627025068E+02 -0.17722200498E+02  0.15300616644E+03  0.12509000000E+03 0.  0.
         25    1    4    4    0    0 -0.26960056524E+00  0.73490135598E+01  0.65998311323E+02  0.14162403003E+03  0.12509000000E+03 0.  0.
<mgrwt>
<rscale>  2 0.45467562E+03</rscale>
<asrwt>0</asrwt>
<pdfrwt beam="1">  1       21 0.47176917E-01 0.45467562E+03</pdfrwt>
<pdfrwt beam="2">  1       21 0.23691686E-01 0.45467562E+03</pdfrwt>
<totfact> 0.66733249E+04</totfact>
</mgrwt>
</event>
<event>
 7    0  0.4770865E-002  0.4669032E+03  0.7546771E-02  0.1022798E+00
         21   -1    0    0  502  501  0.00000000000E+00  0.00000000000E+00  0.36851166323E+02  0.36851166323E+02  0.00000000000E+00 0. -1.
         21   -1    0    0  501  502 -0.00000000000E+00 -0.00000000000E+00 -0.14789125247E+04  0.14789125247E+04  0.00000000000E+00 0. -1.
      99926    2    1    2    0    0 -0.14210854715E-13  0.35527136788E-14 -0.14420613584E+04  0.15157636910E+04  0.46690320806E+03 0.  0.
      99925    2    3    3    0    0 -0.11953500483E+03  0.29022072845E+02 -0.94787703372E+03  0.99136255360E+03  0.26305501998E+03 0.  0.
         25    1    4    4    0    0 -0.85053253403E+02  0.47356999854E+02 -0.48104479322E+03  0.50648627083E+03  0.12509000000E+03 0.  0.
         25    1    3    3    0    0  0.11953500483E+03 -0.29022072845E+02 -0.49418432465E+03  0.52440113742E+03  0.12509000000E+03 0.  0.
         25    1    4    4    0    0 -0.34481751428E+02 -0.18334927008E+02 -0.46683224049E+03  0.48487628277E+03  0.12509000000E+03 0.  0.
<mgrwt>
<rscale>  2 0.46690321E+03</rscale>
<asrwt>0</asrwt>
<pdfrwt beam="1">  1       21 0.54192890E-02 0.46690321E+03</pdfrwt>
<pdfrwt beam="2">  1       21 0.21748714E+00 0.46690321E+03</pdfrwt>
<totfact> 0.21352123E+04</totfact>
</mgrwt>
</event>
<event>
 7    0  0.4770865E-002  0.4531929E+03  0.7546771E-02  0.1026774E+00
         21   -1    0    0  502  501  0.00000000000E+00  0.00000000000E+00  0.24429189367E+03  0.24429189367E+03  0.00000000000E+00 0. -1.
         21   -1    0    0  501  502 -0.00000000000E+00 -0.00000000000E+00 -0.21018278236E+03  0.21018278236E+03  0.00000000000E+00 0. -1.
      99926    2    1    2    0    0  0.35527136788E-14  0.00000000000E+00  0.34109111319E+02  0.45447467603E+03  0.45319289456E+03 0.  0.
      99925    2    3    3    0    0 -0.26591049487E+02  0.45495284599E+02 -0.77335232170E+02  0.27884935146E+03  0.26267721226E+03 0.  0.
         25    1    4    4    0    0 -0.95022867118E+01  0.11150308251E+02 -0.77745995804E+02  0.14800868485E+03  0.12509000000E+03 0.  0.
         25    1    3    3    0    0  0.26591049487E+02 -0.45495284599E+02  0.11144434349E+03  0.17562532457E+03  0.12509000000E+03 0.  0.
         25    1    4    4    0    0 -0.17088762775E+02  0.34344976348E+02  0.41076363400E+00  0.13084066662E+03  0.12509000000E+03 0.  0.
<mgrwt>
<rscale>  2 0.45319289E+03</rscale>
<asrwt>0</asrwt>
<pdfrwt beam="1">  1       21 0.35925279E-01 0.45319289E+03</pdfrwt>
<pdfrwt beam="2">  1       21 0.30909233E-01 0.45319289E+03</pdfrwt>
<totfact> 0.69582195E+04</totfact>
</mgrwt>
</event>
<event>
 7    0  0.4770865E-002  0.4323963E+03  0.7546771E-02  0.1033106E+00
         21   -1    0    0  502  501  0.00000000000E+00  0.00000000000E+00  0.53299619642E+02  0.53299619642E+02  0.00000000000E+00 0. -1.
         21   -1    0    0  501  502 -0.00000000000E+00 -0.00000000000E+00 -0.87695993659E+03  0.87695993659E+03  0.00000000000E+00 0. -1.
      99926    2    1    2    0    0  0.00000000000E+00  0.00000000000E+00 -0.82366031695E+03  0.93025955624E+03  0.43239625836E+03 0.  0.
      99925    2    3    3    0    0  0.42074637049E+02  0.58899084213E+02 -0.41331287599E+03  0.49520564279E+03  0.26298615550E+03 0.  0.
         25    1    3    3    0    0 -0.42074637049E+02 -0.58899084213E+02 -0.41034744096E+03  0.43505391345E+03  0.12509000000E+03 0.  0.
         25    1    4    4    0    0  0.10234418041E+02 -0.30313953289E+01 -0.23594731867E+03  0.26726873733E+03  0.12509000000E+03 0.  0.
         25    1    4    4    0    0  0.31840219008E+02  0.61930479542E+02 -0.17736555733E+03  0.22793690546E+03  0.12509000000E+03 0.  0.
<mgrwt>
<rscale>  2 0.43239626E+03</rscale>
<asrwt>0</asrwt>
<pdfrwt beam="1">  1       21 0.78381795E-02 0.43239626E+03</pdfrwt>
<pdfrwt beam="2">  1       21 0.12896469E+00 0.43239626E+03</pdfrwt>
<totfact> 0.50266174E+04</totfact>
</mgrwt>
</event>
<event>
 7    0  0.4770865E-002  0.4476282E+03  0.7546771E-02  0.1028432E+00
         21   -1    0    0  502  501  0.00000000000E+00  0.00000000000E+00  0.31165161386E+03  0.31165161386E+03  0.00000000000E+00 0.  1.
         21   -1    0    0  501  502 -0.00000000000E+00 -0.00000000000E+00 -0.16073316888E+03  0.16073316888E+03  0.00000000000E+00 0.  1.
      99926    2    1    2    0    0 -0.71054273576E-14 -0.35527136788E-14  0.15091844499E+03  0.47238478274E+03  0.44762820055E+03 0.  0.
      99925    2    3    3    0    0  0.62101778025E+02 -0.17097795640E+02  0.18476289297E+03  0.32767154834E+03  0.26283521744E+03 0.  0.
         25    1    3    3    0    0 -0.62101778025E+02  0.17097795640E+02 -0.33844447987E+02  0.14471323440E+03  0.12509000000E+03 0.  0.
         25    1    4    4    0    0  0.11332562688E+02  0.26824918636E+02  0.81283814693E+02  0.15199529555E+03  0.12509000000E+03 0.  0.
         25    1    4    4    0    0  0.50769215337E+02 -0.43922714277E+02  0.10347907828E+03  0.17567625280E+03  0.12509000000E+03 0.  0.
<mgrwt>
<rscale>  2 0.44762820E+03</rscale>
<asrwt>0</asrwt>
<pdfrwt beam="1">  1       21 0.45831120E-01 0.44762820E+03</pdfrwt>
<pdfrwt beam="2">  1       21 0.23637231E-01 0.44762820E+03</pdfrwt>
<totfact> 0.71342195E+04</totfact>
</mgrwt>
</event>
<event>
 7    0  0.4770865E-002  0.4578026E+03  0.7546771E-02  0.1025420E+00
         21   -1    0    0  502  501  0.00000000000E+00  0.00000000000E+00  0.18390211376E+03  0.18390211376E+03  0.00000000000E+00 0.  1.
         21   -1    0    0  501  502 -0.00000000000E+00 -0.00000000000E+00 -0.28491133515E+03  0.28491133515E+03  0.00000000000E+00 0.  1.
      99926    2    1    2    0    0 -0.14210854715E-13  0.14210854715E-13 -0.10100922139E+03  0.46881344891E+03  0.45780256342E+03 0.  0.
      99925    2    3    3    0    0  0.88909227676E+02 -0.74195929308E+02 -0.62029204808E+02  0.29395111310E+03  0.26296339661E+03 0.  0.
         25    1    3    3    0    0 -0.88909227676E+02  0.74195929308E+02 -0.38980016579E+02  0.17486233581E+03  0.12509000000E+03 0.  0.
         25    1    4    4    0    0  0.79986446412E+01 -0.55785864419E+02 -0.27757148510E+02  0.13997859972E+03  0.12509000000E+03 0.  0.
         25    1    4    4    0    0  0.80910583035E+02 -0.18410064889E+02 -0.34272056298E+02  0.15397251339E+03  0.12509000000E+03 0.  0.
<mgrwt>
<rscale>  2 0.45780256E+03</rscale>
<asrwt>0</asrwt>
<pdfrwt beam="1">  1       21 0.27044429E-01 0.45780256E+03</pdfrwt>
<pdfrwt beam="2">  1       21 0.41898725E-01 0.45780256E+03</pdfrwt>
<totfact> 0.66044018E+04</totfact>
</mgrwt>
</event>
<event>
 7    0  0.4770865E-002  0.4554350E+03  0.7546771E-02  0.1026114E+00
         21   -1    0    0  502  501  0.00000000000E+00  0.00000000000E+00  0.31629385024E+03  0.31629385024E+03  0.00000000000E+00 0. -1.
         21   -1    0    0  501  502 -0.00000000000E+00 -0.00000000000E+00 -0.16394648679E+03  0.16394648679E+03  0.00000000000E+00 0. -1.
      99926    2    1    2    0    0  0.71054273576E-14  0.00000000000E+00  0.15234736345E+03  0.48024033703E+03  0.45543502518E+03 0.  0.
      99925    2    3    3    0    0  0.34497187852E+02 -0.36292012706E+02 -0.11735788562E+02  0.26792464041E+03  0.26294242345E+03 0.  0.
         25    1    3    3    0    0 -0.34497187852E+02  0.36292012706E+02  0.16408315201E+03  0.21231569661E+03  0.12509000000E+03 0.  0.
         25    1    4    4    0    0 -0.18157177764E+01  0.20726898283E+01  0.24254270497E+02  0.12744948259E+03  0.12509000000E+03 0.  0.
         25    1    4    4    0    0  0.36312905628E+02 -0.38364702535E+02 -0.35990059060E+02  0.14047515783E+03  0.12509000000E+03 0.  0.
<mgrwt>
<rscale>  2 0.45543503E+03</rscale>
<asrwt>0</asrwt>
<pdfrwt beam="1">  1       21 0.46513801E-01 0.45543503E+03</pdfrwt>
<pdfrwt beam="2">  1       21 0.24109778E-01 0.45543503E+03</pdfrwt>
<totfact> 0.66452849E+04</totfact>
</mgrwt>
</event>
<event>
 7    0  0.4770865E-002  0.4264647E+03  0.7546771E-02  0.1034983E+00
         21   -1    0    0  502  501  0.00000000000E+00  0.00000000000E+00  0.10084914493E+03  0.10084914493E+03  0.00000000000E+00 0. -1.
         21   -1    0    0  501  502 -0.00000000000E+00 -0.00000000000E+00 -0.45085192530E+03  0.45085192530E+03  0.00000000000E+00 0. -1.
      99926    2    1    2    0    0  0.00000000000E+00  0.14210854715E-13 -0.35000278037E+03  0.55170107023E+03  0.42646468158E+03 0.  0.
      99925    2    3    3    0    0  0.36195055866E+02 -0.72109509630E+02 -0.19832359818E+03  0.33918296311E+03  0.26306457272E+03 0.  0.
         25    1    3    3    0    0 -0.36195055866E+02  0.72109509630E+02 -0.15167918218E+03  0.21251810712E+03  0.12509000000E+03 0.  0.
         25    1    4    4    0    0 -0.78038821782E+00 -0.78784288192E+01 -0.12225213882E+03  0.17508789848E+03  0.12509000000E+03 0.  0.
         25    1    4    4    0    0  0.36975444084E+02 -0.64231080811E+02 -0.76071459362E+02  0.16409506463E+03  0.12509000000E+03 0.  0.
<mgrwt>
<rscale>  2 0.42646468E+03</rscale>
<asrwt>0</asrwt>
<pdfrwt beam="1">  1       21 0.14830757E-01 0.42646468E+03</pdfrwt>
<pdfrwt beam="2">  1       21 0.66301754E-01 0.42646468E+03</pdfrwt>
<totfact> 0.77908154E+04</totfact>
</mgrwt>
</event>
<event>
 7    0  0.4770865E-002  0.4559655E+03  0.7546771E-02  0.1025958E+00
         21   -1    0    0  502  501  0.00000000000E+00  0.00000000000E+00  0.90340791512E+02  0.90340791512E+02  0.00000000000E+00 0. -1.
         21   -1    0    0  501  502 -0.00000000000E+00 -0.00000000000E+00 -0.57533410166E+03  0.57533410166E+03  0.00000000000E+00 0. -1.
      99926    2    1    2    0    0  0.00000000000E+00 -0.71054273576E-14 -0.48499331015E+03  0.66567489317E+03  0.45596551680E+03 0.  0.
      99925    2    3    3    0    0 -0.70409846091E+02  0.32247510420E+02 -0.18265093073E+03  0.32943707429E+03  0.26300185373E+03 0.  0.
         25    1    3    3    0    0  0.70409846091E+02 -0.32247510420E+02 -0.30234237942E+03  0.33623781889E+03  0.12509000000E+03 0.  0.
         25    1    4    4    0    0 -0.41191196217E+02  0.21071851916E+02 -0.44836758725E+02  0.14070742916E+03  0.12509000000E+03 0.  0.
         25    1    4    4    0    0 -0.29218649874E+02  0.11175658504E+02 -0.13781417200E+03  0.18872964512E+03  0.12509000000E+03 0.  0.
<mgrwt>
<rscale>  2 0.45596552E+03</rscale>
<asrwt>0</asrwt>
<pdfrwt beam="1">  1       21 0.13285410E-01 0.45596552E+03</pdfrwt>
<pdfrwt beam="2">  1       21 0.84607958E-01 0.45596552E+03</pdfrwt>
<totfact> 0.54391123E+04</totfact>
</mgrwt>
</event>
<event>
 7    0  0.4770865E-002  0.4506468E+03  0.7546771E-02  0.1027529E+00
         21   -1    0    0  502  501  0.00000000000E+00  0.00000000000E+00  0.12395809324E+03  0.12395809324E+03  0.00000000000E+00 0.  1.
         21   -1    0    0  501  502 -0.00000000000E+00 -0.00000000000E+00 -0.40957903616E+03  0.40957903616E+03  0.00000000000E+00 0.  1.
      99926    2    1    2    0    0  0.00000000000E+00  0.00000000000E+00 -0.28562094293E+03  0.53353712940E+03  0.45064680783E+03 0.  0.
      99925    2    3    3    0    0 -0.99151137434E+02  0.94104244769E+01 -0.12737501804E+03  0.30857316565E+03  0.26281837682E+03 0.  0.
         25    1    4    4    0    0 -0.22096016102E+02  0.63081392047E+01 -0.93266721133E+02  0.15771561723E+03  0.12509000000E+03 0.  0.
         25    1    4    4    0    0 -0.77055121331E+02  0.31022852722E+01 -0.34108296910E+02  0.15085754842E+03  0.12509000000E+03 0.  0.
         25    1    3    3    0    0  0.99151137434E+02 -0.94104244769E+01 -0.15824592488E+03  0.22496396375E+03  0.12509000000E+03 0.  0.
<mgrwt>
<rscale>  2 0.45064681E+03</rscale>
<asrwt>0</asrwt>
<pdfrwt beam="1">  1       21 0.18229131E-01 0.45064681E+03</pdfrwt>
<pdfrwt beam="2">  1       21 0.60232211E-01 0.45064681E+03</pdfrwt>
<totfact> 0.65184831E+04</totfact>
</mgrwt>
</event>
<event>
 7    0  0.4770865E-002  0.4543515E+03  0.7546771E-02  0.1026432E+00
         21   -1    0    0  502  501  0.00000000000E+00  0.00000000000E+00  0.53187062547E+03  0.53187062547E+03  0.00000000000E+00 0.  1.
         21   -1    0    0  501  502 -0.00000000000E+00 -0.00000000000E+00 -0.97032659546E+02  0.97032659546E+02  0.00000000000E+00 0.  1.
      99926    2    1    2    0    0  0.14210854715E-13 -0.71054273576E-14  0.43483796593E+03  0.62890328502E+03  0.45435149972E+03 0.  0.
      99925    2    3    3    0    0  0.82483574729E+02 -0.37162062292E+02  0.36653701176E+03  0.46009248141E+03  0.26296606528E+03 0.  0.
         25    1    4    4    0    0  0.30993309690E+02  0.19167083785E+02  0.19454229193E+03  0.23414135431E+03  0.12509000000E+03 0.  0.
         25    1    4    4    0    0  0.51490265038E+02 -0.56329146077E+02  0.17199471983E+03  0.22595112711E+03  0.12509000000E+03 0.  0.
         25    1    3    3    0    0 -0.82483574729E+02  0.37162062292E+02  0.68300954162E+02  0.16881080360E+03  0.12509000000E+03 0.  0.
<mgrwt>
<rscale>  2 0.45435150E+03</rscale>
<asrwt>0</asrwt>
<pdfrwt beam="1">  1       21 0.78216267E-01 0.45435150E+03</pdfrwt>
<pdfrwt beam="2">  1       21 0.14269509E-01 0.45435150E+03</pdfrwt>
<totfact> 0.57225952E+04</totfact>
</mgrwt>
</event>
<event>
 7    0  0.4770865E-002  0.4548620E+03  0.7546771E-02  0.1026282E+00
         21   -1    0    0  502  501  0.00000000000E+00  0.00000000000E+00  0.60068405676E+02  0.60068405676E+02  0.00000000000E+00 0.  1.
         21   -1    0    0  501  502 -0.00000000000E+00 -0.00000000000E+00 -0.86109921961E+03  0.86109921961E+03  0.00000000000E+00 0.  1.
      99926    2    1    2    0    0  0.00000000000E+00  0.00000000000E+00 -0.80103081393E+03  0.92116762528E+03  0.45486198896E+03 0.  0.
      99925    2    3    3    0    0  0.93597044871E+02 -0.23220025939E+02 -0.38469070047E+03  0.47587426738E+03  0.26300153406E+03 0.  0.
         25    1    4    4    0    0  0.64000171293E+02  0.16404957328E+01 -0.25745753044E+03  0.29330973600E+03  0.12509000000E+03 0.  0.
         25    1    4    4    0    0  0.29596873577E+02 -0.24860521671E+02 -0.12723317003E+03  0.18256453138E+03  0.12509000000E+03 0.  0.
         25    1    3    3    0    0 -0.93597044871E+02  0.23220025939E+02 -0.41634011346E+03  0.44529335790E+03  0.12509000000E+03 0.  0.
<mgrwt>
<rscale>  2 0.45486199E+03</rscale>
<asrwt>0</asrwt>
<pdfrwt beam="1">  1       21 0.88335889E-02 0.45486199E+03</pdfrwt>
<pdfrwt beam="2">  1       21 0.12663224E+00 0.45486199E+03</pdfrwt>
<totfact> 0.42376709E+04</totfact>
</mgrwt>
</event>
<event>
 7    0  0.4770865E-002  0.4576518E+03  0.7546771E-02  0.1025464E+00
         21   -1    0    0  502  501  0.00000000000E+00  0.00000000000E+00  0.34591147526E+03  0.34591147526E+03  0.00000000000E+00 0.  1.
         21   -1    0    0  501  502 -0.00000000000E+00 -0.00000000000E+00 -0.15137194210E+03  0.15137194210E+03  0.00000000000E+00 0.  1.
      99926    2    1    2    0    0  0.00000000000E+00 -0.71054273576E-14  0.19453953316E+03  0.49728341736E+03  0.45765179692E+03 0.  0.
      99925    2    3    3    0    0 -0.62033357172E+02 -0.63176373534E+02  0.20273529117E+03  0.34381006422E+03  0.26318125009E+03 0.  0.
         25    1    4    4    0    0 -0.18663697259E+01 -0.20346249643E+02  0.12920868055E+03  0.18099680782E+03  0.12509000000E+03 0.  0.
         25    1    4    4    0    0 -0.60166987446E+02 -0.42830123891E+02  0.73526610625E+02  0.16281325640E+03  0.12509000000E+03 0.  0.
         25    1    3    3    0    0  0.62033357172E+02  0.63176373534E+02 -0.81957580152E+01  0.15347335314E+03  0.12509000000E+03 0.  0.
<mgrwt>
<rscale>  2 0.45765180E+03</rscale>
<asrwt>0</asrwt>
<pdfrwt beam="1">  1       21 0.50869335E-01 0.45765180E+03</pdfrwt>
<pdfrwt beam="2">  1       21 0.22260580E-01 0.45765180E+03</pdfrwt>
<totfact> 0.64101843E+04</totfact>
</mgrwt>
</event>
<event>
 7    0  0.4770865E-002  0.4452383E+03  0.7546771E-02  0.1029152E+00
         21   -1    0    0  502  501  0.00000000000E+00  0.00000000000E+00  0.29838153432E+03  0.29838153432E+03  0.00000000000E+00 0. -1.
         21   -1    0    0  501  502 -0.00000000000E+00 -0.00000000000E+00 -0.16609364868E+03  0.16609364868E+03  0.00000000000E+00 0. -1.
      99926    2    1    2    0    0  0.00000000000E+00  0.00000000000E+00  0.13228788564E+03  0.46447518300E+03  0.44523826311E+03 0.  0.
      99925    2    3    3    0    0 -0.44377942577E+02  0.82690651751E+02  0.12994234582E+03  0.30807775550E+03  0.26309645479E+03 0.  0.
         25    1    3    3    0    0  0.44377942577E+02 -0.82690651751E+02  0.23455398220E+01  0.15639742751E+03  0.12509000000E+03 0.  0.
         25    1    4    4    0    0 -0.43931579514E+02  0.35277362809E+02  0.28331098150E+02  0.14008795533E+03  0.12509000000E+03 0.  0.
         25    1    4    4    0    0 -0.44636306292E+00  0.47413288942E+02  0.10161124767E+03  0.16798980017E+03  0.12509000000E+03 0.  0.
<mgrwt>
<rscale>  2 0.44523826E+03</rscale>
<asrwt>0</asrwt>
<pdfrwt beam="1">  1       21 0.43879638E-01 0.44523826E+03</pdfrwt>
<pdfrwt beam="2">  1       21 0.24425536E-01 0.44523826E+03</pdfrwt>
<totfact> 0.73368408E+04</totfact>
</mgrwt>
</event>
<event>
 7    0  0.4770865E-002  0.4547184E+03  0.7546771E-02  0.1026324E+00
         21   -1    0    0  502  501  0.00000000000E+00  0.00000000000E+00  0.51493991017E+03  0.51493991017E+03  0.00000000000E+00 0.  1.
         21   -1    0    0  501  502 -0.00000000000E+00 -0.00000000000E+00 -0.10038493909E+03  0.10038493909E+03  0.00000000000E+00 0.  1.
      99926    2    1    2    0    0  0.00000000000E+00  0.00000000000E+00  0.41455497108E+03  0.61532484926E+03  0.45471842505E+03 0.  0.
      99925    2    3    3    0    0  0.34909991581E+02  0.20179834305E+02  0.11803218988E+03  0.29098058603E+03  0.26289193668E+03 0.  0.
         25    1    4    4    0    0 -0.21784781578E+02  0.19379660614E+02  0.62429512831E+02  0.14281141455E+03  0.12509000000E+03 0.  0.
         25    1    3    3    0    0 -0.34909991581E+02 -0.20179834305E+02  0.29652278119E+03  0.32434426323E+03  0.12509000000E+03 0.  0.
         25    1    4    4    0    0  0.56694773160E+02  0.80017369108E+00  0.55602677051E+02  0.14816917148E+03  0.12509000000E+03 0.  0.
<mgrwt>
<rscale>  2 0.45471843E+03</rscale>
<asrwt>0</asrwt>
<pdfrwt beam="1">  1       21 0.75726456E-01 0.45471843E+03</pdfrwt>
<pdfrwt beam="2">  1       21 0.14762491E-01 0.45471843E+03</pdfrwt>
<totfact> 0.57873354E+04</totfact>
</mgrwt>
</event>
<event>
 7    0  0.4770865E-002  0.4369369E+03  0.7546771E-02  0.1031691E+00
         21   -1    0    0  502  501  0.00000000000E+00  0.00000000000E+00  0.35022140170E+03  0.35022140170E+03  0.00000000000E+00 0. -1.
         21   -1    0    0  501  502 -0.00000000000E+00 -0.00000000000E+00 -0.13628081796E+03  0.13628081796E+03  0.00000000000E+00 0. -1.
      99926    2    1    2    0    0  0.00000000000E+00  0.00000000000E+00  0.21394058374E+03  0.48650221966E+03  0.43693687916E+03 0.  0.
      99925    2    3    3    0    0  0.21064447631E+02  0.24022463032E+02  0.36932439263E+02  0.26741278360E+03  0.26291596011E+03 0.  0.
         25    1    3    3    0    0 -0.21064447631E+02 -0.24022463032E+02  0.17700814447E+03  0.21908943606E+03  0.12509000000E+03 0.  0.
         25    1    4    4    0    0  0.12523870100E+02 -0.46003397925E+01  0.55452919124E+02  0.13747925221E+03  0.12509000000E+03 0.  0.
         25    1    4    4    0    0  0.85405775312E+01  0.28622802825E+02 -0.18520479860E+02  0.12993353139E+03  0.12509000000E+03 0.  0.
<mgrwt>
<rscale>  2 0.43693688E+03</rscale>
<asrwt>0</asrwt>
<pdfrwt beam="1">  1       21 0.51503147E-01 0.43693688E+03</pdfrwt>
<pdfrwt beam="2">  1       21 0.20041297E-01 0.43693688E+03</pdfrwt>
<totfact> 0.76644105E+04</totfact>
</mgrwt>
</event>
<event>
 7    0  0.4770865E-002  0.4590870E+03  0.7546771E-02  0.1025046E+00
         21   -1    0    0  502  501  0.00000000000E+00  0.00000000000E+00  0.96114535465E+02  0.96114535465E+02  0.00000000000E+00 0. -1.
         21   -1    0    0  501  502 -0.00000000000E+00 -0.00000000000E+00 -0.54820249343E+03  0.54820249343E+03  0.00000000000E+00 0. -1.
      99926    2    1    2    0    0 -0.14210854715E-13  0.00000000000E+00 -0.45208795796E+03  0.64431702889E+03  0.45908704184E+03 0.  0.
      99925    2    3    3    0    0 -0.11498909875E+03  0.25567289110E+02 -0.29790709828E+03  0.41345901042E+03  0.26138771009E+03 0.  0.
         25    1    3    3    0    0  0.11498909875E+03 -0.25567289110E+02 -0.15418085968E+03  0.23085801848E+03  0.12509000000E+03 0.  0.
         25    1    4    4    0    0 -0.54201257734E+02  0.14198876327E+02 -0.93332119699E+02  0.16582453708E+03  0.12509000000E+03 0.  0.
         25    1    4    4    0    0 -0.60787841013E+02  0.11368412783E+02 -0.20457497858E+03  0.24763447334E+03  0.12509000000E+03 0.  0.
<mgrwt>
<rscale>  2 0.45908704E+03</rscale>
<asrwt>0</asrwt>
<pdfrwt beam="1">  1       21 0.14134491E-01 0.45908704E+03</pdfrwt>
<pdfrwt beam="2">  1       21 0.80618014E-01 0.45908704E+03</pdfrwt>
<totfact> 0.54258959E+04</totfact>
</mgrwt>
</event>
<event>
 7    0  0.4770865E-002  0.4520429E+03  0.7546771E-02  0.1027115E+00
         21   -1    0    0  502  501  0.00000000000E+00  0.00000000000E+00  0.95853834783E+02  0.95853834783E+02  0.00000000000E+00 0.  1.
         21   -1    0    0  501  502 -0.00000000000E+00 -0.00000000000E+00 -0.53295414552E+03  0.53295414552E+03  0.00000000000E+00 0.  1.
      99926    2    1    2    0    0 -0.35527136788E-14  0.00000000000E+00 -0.43710031074E+03  0.62880798031E+03  0.45204291217E+03 0.  0.
      99925    2    3    3    0    0  0.20320128696E+02  0.75012532824E+02 -0.16679070923E+03  0.32098566714E+03  0.26300735753E+03 0.  0.
         25    1    4    4    0    0  0.47077700662E+02  0.20755096471E+02 -0.79501451348E+02  0.15689191437E+03  0.12509000000E+03 0.  0.
         25    1    3    3    0    0 -0.20320128696E+02 -0.75012532824E+02 -0.27030960151E+03  0.30782231316E+03  0.12509000000E+03 0.  0.
         25    1    4    4    0    0 -0.26757571966E+02  0.54257436353E+02 -0.87289257879E+02  0.16409375277E+03  0.12509000000E+03 0.  0.
<mgrwt>
<rscale>  2 0.45204291E+03</rscale>
<asrwt>0</asrwt>
<pdfrwt beam="1">  1       21 0.14096152E-01 0.45204291E+03</pdfrwt>
<pdfrwt beam="2">  1       21 0.78375610E-01 0.45204291E+03</pdfrwt>
<totfact> 0.58287985E+04</totfact>
</mgrwt>
</event>
<event>
 7    0  0.4770865E-002  0.4416866E+03  0.7546771E-02  0.1030231E+00
         21   -1    0    0  502  501  0.00000000000E+00  0.00000000000E+00  0.11173341193E+03  0.11173341193E+03  0.00000000000E+00 0. -1.
         21   -1    0    0  501  502 -0.00000000000E+00 -0.00000000000E+00 -0.43650109854E+03  0.43650109854E+03  0.00000000000E+00 0. -1.
      99926    2    1    2    0    0  0.00000000000E+00  0.00000000000E+00 -0.32476768661E+03  0.54823451047E+03  0.44168657236E+03 0.  0.
      99925    2    3    3    0    0 -0.99823920921E+02 -0.28856550445E+01 -0.19346186344E+03  0.34120342707E+03  0.26271494790E+03 0.  0.
         25    1    3    3    0    0  0.99823920921E+02  0.28856550445E+01 -0.13130582317E+03  0.20703108339E+03  0.12509000000E+03 0.  0.
         25    1    4    4    0    0 -0.15405012865E+02 -0.35406529213E+01 -0.59533928254E+02  0.13943330792E+03  0.12509000000E+03 0.  0.
         25    1    4    4    0    0 -0.84418908056E+02  0.65499787688E+00 -0.13392793518E+03  0.20177011915E+03  0.12509000000E+03 0.  0.
<mgrwt>
<rscale>  2 0.44168657E+03</rscale>
<asrwt>0</asrwt>
<pdfrwt beam="1">  1       21 0.16431384E-01 0.44168657E+03</pdfrwt>
<pdfrwt beam="2">  1       21 0.64191337E-01 0.44168657E+03</pdfrwt>
<totfact> 0.68965964E+04</totfact>
</mgrwt>
</event>
<event>
 7    0  0.4770865E-002  0.4298246E+03  0.7546771E-02  0.1033915E+00
         21   -1    0    0  502  501  0.00000000000E+00  0.00000000000E+00  0.25392305676E+03  0.25392305676E+03  0.00000000000E+00 0.  1.
         21   -1    0    0  501  502 -0.00000000000E+00 -0.00000000000E+00 -0.18189481662E+03  0.18189481662E+03  0.00000000000E+00 0.  1.
      99926    2    1    2    0    0  0.14210854715E-13  0.71054273576E-14  0.72028240136E+02  0.43581787338E+03  0.42982455883E+03 0.  0.
      99925    2    3    3    0    0 -0.70999869741E+02 -0.48721318494E+02  0.30862257931E+02  0.27847463529E+03  0.26302261340E+03 0.  0.
         25    1    3    3    0    0  0.70999869741E+02  0.48721318494E+02  0.41165982205E+02  0.15734323808E+03  0.12509000000E+03 0.  0.
         25    1    4    4    0    0 -0.32649377309E+02 -0.94889760887E+01  0.53102593652E+02  0.14008360382E+03  0.12509000000E+03 0.  0.
         25    1    4    4    0    0 -0.38350492432E+02 -0.39232342406E+02 -0.22240335721E+02  0.13839103148E+03  0.12509000000E+03 0.  0.
<mgrwt>
<rscale>  2 0.42982456E+03</rscale>
<asrwt>0</asrwt>
<pdfrwt beam="1">  1       21 0.37341626E-01 0.42982456E+03</pdfrwt>
<pdfrwt beam="2">  1       21 0.26749238E-01 0.42982456E+03</pdfrwt>
<totfact> 0.85986878E+04</totfact>
</mgrwt>
</event>
<event>
 7    0  0.4770865E-002  0.4573252E+03  0.7546771E-02  0.1025560E+00
         21   -1    0    0  502  501  0.00000000000E+00  0.00000000000E+00  0.95374616467E+02  0.95374616467E+02  0.00000000000E+00 0.  1.
         21   -1    0    0  501  502 -0.00000000000E+00 -0.00000000000E+00 -0.54822331530E+03  0.54822331530E+03  0.00000000000E+00 0.  1.
      99926    2    1    2    0    0 -0.14210854715E-13  0.00000000000E+00 -0.45284869883E+03  0.64359793176E+03  0.45732521660E+03 0.  0.
      99925    2    3    3    0    0  0.10124386605E+03 -0.42295542999E+02 -0.23414170213E+03  0.36878983167E+03  0.26295317054E+03 0.  0.
         25    1    4    4    0    0  0.24016756826E+02  0.12195878852E+02 -0.98583722746E+02  0.16152957178E+03  0.12509000000E+03 0.  0.
         25    1    4    4    0    0  0.77227109227E+02 -0.54491421851E+02 -0.13555797938E+03  0.20726025989E+03  0.12509000000E+03 0.  0.
         25    1    3    3    0    0 -0.10124386605E+03  0.42295542999E+02 -0.21870699670E+03  0.27480810010E+03  0.12509000000E+03 0.  0.
<mgrwt>
<rscale>  2 0.45732522E+03</rscale>
<asrwt>0</asrwt>
<pdfrwt beam="1">  1       21 0.14025679E-01 0.45732522E+03</pdfrwt>
<pdfrwt beam="2">  1       21 0.80621075E-01 0.45732522E+03</pdfrwt>
<totfact> 0.55054721E+04</totfact>
</mgrwt>
</event>
<event>
 7    0  0.4770865E-002  0.4530170E+03  0.7546771E-02  0.1026826E+00
         21   -1    0    0  502  501  0.00000000000E+00  0.00000000000E+00  0.31406871348E+03  0.31406871348E+03  0.00000000000E+00 0. -1.
         21   -1    0    0  501  502 -0.00000000000E+00 -0.00000000000E+00 -0.16335949960E+03  0.16335949960E+03  0.00000000000E+00 0. -1.
      99926    2    1    2    0    0  0.00000000000E+00  0.71054273576E-14  0.15070921388E+03  0.47742821308E+03  0.45301703224E+03 0.  0.
      99925    2    3    3    0    0 -0.16299044981E+02 -0.61279264277E+02 -0.13814640420E+01  0.27054687146E+03  0.26300740316E+03 0.  0.
         25    1    4    4    0    0 -0.56236478500E+01  0.53641898402E+01 -0.20948078563E+02  0.12706978415E+03  0.12509000000E+03 0.  0.
         25    1    4    4    0    0 -0.10675397131E+02 -0.66643454118E+02  0.19566614521E+02  0.14347708732E+03  0.12509000000E+03 0.  0.
         25    1    3    3    0    0  0.16299044981E+02  0.61279264277E+02  0.15209067793E+03  0.20688134162E+03  0.12509000000E+03 0.  0.
<mgrwt>
<rscale>  2 0.45301703E+03</rscale>
<asrwt>0</asrwt>
<pdfrwt beam="1">  1       21 0.46186576E-01 0.45301703E+03</pdfrwt>
<pdfrwt beam="2">  1       21 0.24023456E-01 0.45301703E+03</pdfrwt>
<totfact> 0.67950977E+04</totfact>
</mgrwt>
</event>
<event>
 7    0  0.4770865E-002  0.4634199E+03  0.7546771E-02  0.1023794E+00
         21   -1    0    0  502  501  0.00000000000E+00  0.00000000000E+00  0.16656517949E+03  0.16656517949E+03  0.00000000000E+00 0.  1.
         21   -1    0    0  501  502 -0.00000000000E+00 -0.00000000000E+00 -0.32233325645E+03  0.32233325645E+03  0.00000000000E+00 0.  1.
      99926    2    1    2    0    0 -0.35527136788E-14  0.00000000000E+00 -0.15576807696E+03  0.48889843594E+03  0.46341988182E+03 0.  0.
      99925    2    3    3    0    0  0.84779970904E+01  0.10632114474E+03 -0.15737499671E+03  0.32450210830E+03  0.26298035373E+03 0.  0.
         25    1    4    4    0    0  0.41199359999E+02  0.64663922843E+02 -0.96733060149E+02  0.17573731308E+03  0.12509000000E+03 0.  0.
         25    1    3    3    0    0 -0.84779970904E+01 -0.10632114474E+03  0.16069197577E+01  0.16439632765E+03  0.12509000000E+03 0.  0.
         25    1    4    4    0    0 -0.32721362909E+02  0.41657221893E+02 -0.60641936565E+02  0.14876479522E+03  0.12509000000E+03 0.  0.
<mgrwt>
<rscale>  2 0.46341988E+03</rscale>
<asrwt>0</asrwt>
<pdfrwt beam="1">  1       21 0.24494879E-01 0.46341988E+03</pdfrwt>
<pdfrwt beam="2">  1       21 0.47401949E-01 0.46341988E+03</pdfrwt>
<totfact> 0.61821317E+04</totfact>
</mgrwt>
</event>
<event>
 7    0  0.4770865E-002  0.4588268E+03  0.7546771E-02  0.1025122E+00
         21   -1    0    0  502  501  0.00000000000E+00  0.00000000000E+00  0.82694497864E+03  0.82694497864E+03  0.00000000000E+00 0.  1.
         21   -1    0    0  501  502 -0.00000000000E+00 -0.00000000000E+00 -0.63644510335E+02  0.63644510335E+02  0.00000000000E+00 0.  1.
      99926    2    1    2    0    0  0.00000000000E+00  0.00000000000E+00  0.76330046830E+03  0.89058948897E+03  0.45882680061E+03 0.  0.
      99925    2    3    3    0    0 -0.24150536327E+02  0.21693484105E+02  0.26394938025E+03  0.37478635511E+03  0.26408650285E+03 0.  0.
         25    1    3    3    0    0  0.24150536327E+02 -0.21693484105E+02  0.49935108806E+03  0.51580313386E+03  0.12509000000E+03 0.  0.
         25    1    4    4    0    0  0.27986742582E+02  0.24577204157E+02  0.12825311504E+03  0.18298542659E+03  0.12509000000E+03 0.  0.
         25    1    4    4    0    0 -0.52137278909E+02 -0.28837200515E+01  0.13569626520E+03  0.19180092853E+03  0.12509000000E+03 0.  0.
<mgrwt>
<rscale>  2 0.45882680E+03</rscale>
<asrwt>0</asrwt>
<pdfrwt beam="1">  1       21 0.12160955E+00 0.45882680E+03</pdfrwt>
<pdfrwt beam="2">  1       21 0.93594873E-02 0.45882680E+03</pdfrwt>
<totfact> 0.42359384E+04</totfact>
</mgrwt>
</event>
<event>
 7    0  0.4770865E-002  0.3969882E+03  0.7546771E-02  0.1044828E+00
         21   -1    0    0  502  501  0.00000000000E+00  0.00000000000E+00  0.47541303672E+03  0.47541303672E+03  0.00000000000E+00 0.  1.
         21   -1    0    0  501  502 -0.00000000000E+00 -0.00000000000E+00 -0.82875109634E+02  0.82875109634E+02  0.00000000000E+00 0.  1.
      99926    2    1    2    0    0  0.00000000000E+00  0.44408920985E-15  0.39253792708E+03  0.55828814635E+03  0.39698819902E+03 0.  0.
      99925    2    3    3    0    0 -0.18574571216E+02  0.35402195952E+01  0.31130047668E+03  0.40793995282E+03  0.26296286900E+03 0.  0.
         25    1    3    3    0    0  0.18574571216E+02 -0.35402195952E+01  0.81237450409E+02  0.15034819354E+03  0.12509000000E+03 0.  0.
         25    1    4    4    0    0 -0.39478354702E+02  0.28171737347E+02  0.14910866940E+03  0.20058188020E+03  0.12509000000E+03 0.  0.
         25    1    4    4    0    0  0.20903783487E+02 -0.24631517752E+02  0.16219180727E+03  0.20735807261E+03  0.12509000000E+03 0.  0.
<mgrwt>
<rscale>  2 0.39698820E+03</rscale>
<asrwt>0</asrwt>
<pdfrwt beam="1">  1       21 0.69913681E-01 0.39698820E+03</pdfrwt>
<pdfrwt beam="2">  1       21 0.12187516E-01 0.39698820E+03</pdfrwt>
<totfact> 0.99829318E+04</totfact>
</mgrwt>
</event>
<event>
 7    0  0.4770865E-002  0.4548953E+03  0.7546771E-02  0.1026272E+00
         21   -1    0    0  502  501  0.00000000000E+00  0.00000000000E+00  0.10178754768E+04  0.10178754768E+04  0.00000000000E+00 0.  1.
         21   -1    0    0  501  502 -0.00000000000E+00 -0.00000000000E+00 -0.50823940149E+02  0.50823940149E+02  0.00000000000E+00 0.  1.
      99926    2    1    2    0    0  0.00000000000E+00  0.00000000000E+00  0.96705153660E+03  0.10686994169E+04  0.45489533877E+03 0.  0.
      99925    2    3    3    0    0 -0.35557287036E+02 -0.24923708917E+02  0.36306299096E+03  0.45036683382E+03  0.26292591671E+03 0.  0.
         25    1    4    4    0    0  0.17495699680E+02 -0.15852847393E+01  0.14420951749E+03  0.19170943031E+03  0.12509000000E+03 0.  0.
         25    1    4    4    0    0 -0.53052986715E+02 -0.23338424177E+02  0.21885347346E+03  0.25865740351E+03  0.12509000000E+03 0.  0.
         25    1    3    3    0    0  0.35557287036E+02  0.24923708917E+02  0.60398854564E+03  0.61833258308E+03  0.12509000000E+03 0.  0.
<mgrwt>
<rscale>  2 0.45489534E+03</rscale>
<asrwt>0</asrwt>
<pdfrwt beam="1">  1       21 0.14968756E+00 0.45489534E+03</pdfrwt>
<pdfrwt beam="2">  1       21 0.74741095E-02 0.45489534E+03</pdfrwt>
<totfact> 0.36628561E+04</totfact>
</mgrwt>
</event>
<event>
 7    0  0.4770865E-002  0.4637885E+03  0.7546771E-02  0.1023688E+00
         21   -1    0    0  502  501  0.00000000000E+00  0.00000000000E+00  0.54147331367E+03  0.54147331367E+03  0.00000000000E+00 0.  1.
         21   -1    0    0  501  502 -0.00000000000E+00 -0.00000000000E+00 -0.99312277486E+02  0.99312277486E+02  0.00000000000E+00 0.  1.
      99926    2    1    2    0    0  0.00000000000E+00  0.00000000000E+00  0.44216103618E+03  0.64078559115E+03  0.46378852068E+03 0.  0.
      99925    2    3    3    0    0 -0.11192258373E+03 -0.46390211320E+02  0.28403134684E+03  0.40555969290E+03  0.26291850841E+03 0.  0.
         25    1    4    4    0    0 -0.15390009537E+02 -0.10929736830E+02  0.14180506230E+03  0.19003287961E+03  0.12509000000E+03 0.  0.
         25    1    4    4    0    0 -0.96532574198E+02 -0.35460474490E+02  0.14222628454E+03  0.21552681329E+03  0.12509000000E+03 0.  0.
         25    1    3    3    0    0  0.11192258373E+03  0.46390211320E+02  0.15812968934E+03  0.23522589825E+03  0.12509000000E+03 0.  0.
<mgrwt>
<rscale>  2 0.46378852E+03</rscale>
<asrwt>0</asrwt>
<pdfrwt beam="1">  1       21 0.79628427E-01 0.46378852E+03</pdfrwt>
<pdfrwt beam="2">  1       21 0.14604747E-01 0.46378852E+03</pdfrwt>
<totfact> 0.52498431E+04</totfact>
</mgrwt>
</event>
<event>
 7    0  0.4770865E-002  0.4562694E+03  0.7546771E-02  0.1025869E+00
         21   -1    0    0  502  501  0.00000000000E+00  0.00000000000E+00  0.15164375542E+03  0.15164375542E+03  0.00000000000E+00 0. -1.
         21   -1    0    0  501  502 -0.00000000000E+00 -0.00000000000E+00 -0.34320853308E+03  0.34320853308E+03  0.00000000000E+00 0. -1.
      99926    2    1    2    0    0 -0.71054273576E-14 -0.14210854715E-13 -0.19156477765E+03  0.49485228850E+03  0.45626935400E+03 0.  0.
      99925    2    3    3    0    0  0.50778258967E+02  0.99375051446E+02 -0.94169724405E+02  0.30097826515E+03  0.26318462467E+03 0.  0.
         25    1    3    3    0    0 -0.50778258967E+02 -0.99375051446E+02 -0.97395053248E+02  0.19387402335E+03  0.12509000000E+03 0.  0.
         25    1    4    4    0    0  0.28401613235E+02  0.68807262580E+01 -0.48437540852E+02  0.13728692397E+03  0.12509000000E+03 0.  0.
         25    1    4    4    0    0  0.22376645732E+02  0.92494325188E+02 -0.45732183553E+02  0.16369134118E+03  0.12509000000E+03 0.  0.
<mgrwt>
<rscale>  2 0.45626935E+03</rscale>
<asrwt>0</asrwt>
<pdfrwt beam="1">  1       21 0.22300552E-01 0.45626935E+03</pdfrwt>
<pdfrwt beam="2">  1       21 0.50471843E-01 0.45626935E+03</pdfrwt>
<totfact> 0.64976599E+04</totfact>
</mgrwt>
</event>
<event>
 7    0  0.4770865E-002  0.4407656E+03  0.7546771E-02  0.1030512E+00
         21   -1    0    0  502  501  0.00000000000E+00  0.00000000000E+00  0.10929282583E+03  0.10929282583E+03  0.00000000000E+00 0.  1.
         21   -1    0    0  501  502 -0.00000000000E+00 -0.00000000000E+00 -0.44438942355E+03  0.44438942355E+03  0.00000000000E+00 0.  1.
      99926    2    1    2    0    0  0.00000000000E+00  0.00000000000E+00 -0.33509659772E+03  0.55368224938E+03  0.44076558789E+03 0.  0.
      99925    2    3    3    0    0  0.37640580821E+02  0.75633752245E+02 -0.27924377039E+03  0.39273404583E+03  0.26291761001E+03 0.  0.
         25    1    4    4    0    0  0.14783600485E+02  0.76555955330E+02 -0.17079607600E+03  0.22560624286E+03  0.12509000000E+03 0.  0.
         25    1    4    4    0    0  0.22856980335E+02 -0.92220308570E+00 -0.10844769439E+03  0.16712780298E+03  0.12509000000E+03 0.  0.
         25    1    3    3    0    0 -0.37640580821E+02 -0.75633752245E+02 -0.55852827332E+02  0.16094820354E+03  0.12509000000E+03 0.  0.
<mgrwt>
<rscale>  2 0.44076559E+03</rscale>
<asrwt>0</asrwt>
<pdfrwt beam="1">  1       21 0.16072475E-01 0.44076559E+03</pdfrwt>
<pdfrwt beam="2">  1       21 0.65351385E-01 0.44076559E+03</pdfrwt>
<totfact> 0.69080390E+04</totfact>
</mgrwt>
</event>
<event>
 7    0  0.4770865E-002  0.4439145E+03  0.7546771E-02  0.1029553E+00
         21   -1    0    0  502  501  0.00000000000E+00  0.00000000000E+00  0.49944826584E+02  0.49944826584E+02  0.00000000000E+00 0.  1.
         21   -1    0    0  501  502 -0.00000000000E+00 -0.00000000000E+00 -0.98638865760E+03  0.98638865760E+03  0.00000000000E+00 0.  1.
      99926    2    1    2    0    0  0.00000000000E+00  0.00000000000E+00 -0.93644383101E+03  0.10363334842E+04  0.44391445324E+03 0.  0.
      99925    2    3    3    0    0  0.35417549566E+02 -0.89943282241E+02 -0.67496807258E+03  0.73078270741E+03  0.26290163486E+03 0.  0.
         25    1    4    4    0    0 -0.17529040553E+02 -0.26488724791E+02 -0.27981467358E+03  0.30814392652E+03  0.12509000000E+03 0.  0.
         25    1    3    3    0    0 -0.35417549566E+02  0.89943282241E+02 -0.26147575843E+03  0.30555077677E+03  0.12509000000E+03 0.  0.
         25    1    4    4    0    0  0.52946590118E+02 -0.63454557450E+02 -0.39515339901E+03  0.42263878089E+03  0.12509000000E+03 0.  0.
<mgrwt>
<rscale>  2 0.44391445E+03</rscale>
<asrwt>0</asrwt>
<pdfrwt beam="1">  1       21 0.73448273E-02 0.44391445E+03</pdfrwt>
<pdfrwt beam="2">  1       21 0.14505716E+00 0.44391445E+03</pdfrwt>
<totfact> 0.41237561E+04</totfact>
</mgrwt>
</event>
<event>
 7    0  0.4770865E-002  0.4666697E+03  0.7546771E-02  0.1022864E+00
         21   -1    0    0  502  501  0.00000000000E+00  0.00000000000E+00  0.62900739983E+03  0.62900739983E+03  0.00000000000E+00 0.  1.
         21   -1    0    0  501  502 -0.00000000000E+00 -0.00000000000E+00 -0.86557257289E+02  0.86557257289E+02  0.00000000000E+00 0.  1.
      99926    2    1    2    0    0  0.00000000000E+00  0.00000000000E+00  0.54245014254E+03  0.71556465712E+03  0.46666971337E+03 0.  0.
      99925    2    3    3    0    0 -0.85428182230E+02  0.83030760681E+02  0.28594918791E+03  0.40631988454E+03  0.26293883124E+03 0.  0.
         25    1    4    4    0    0 -0.13831953133E+02  0.13990406021E+02  0.10164450918E+03  0.16237662620E+03  0.12509000000E+03 0.  0.
         25    1    4    4    0    0 -0.71596229098E+02  0.69040354660E+02  0.18430467873E+03  0.24394325835E+03  0.12509000000E+03 0.  0.
         25    1    3    3    0    0  0.85428182230E+02 -0.83030760681E+02  0.25650095463E+03  0.30924477258E+03  0.12509000000E+03 0.  0.
<mgrwt>
<rscale>  2 0.46666971E+03</rscale>
<asrwt>0</asrwt>
<pdfrwt beam="1">  1       21 0.92501086E-01 0.46666971E+03</pdfrwt>
<pdfrwt beam="2">  1       21 0.12729009E-01 0.46666971E+03</pdfrwt>
<totfact> 0.47548292E+04</totfact>
</mgrwt>
</event>
<event>
 7    0  0.4770865E-002  0.4630222E+03  0.7546771E-02  0.1023908E+00
         21   -1    0    0  502  501  0.00000000000E+00  0.00000000000E+00  0.51733728768E+02  0.51733728768E+02  0.00000000000E+00 0.  1.
         21   -1    0    0  501  502 -0.00000000000E+00 -0.00000000000E+00 -0.10360242685E+04  0.10360242685E+04  0.00000000000E+00 0.  1.
      99926    2    1    2    0    0  0.00000000000E+00  0.00000000000E+00 -0.98429053968E+03  0.10877579972E+04  0.46302223921E+03 0.  0.
      99925    2    3    3    0    0 -0.73316840743E+02  0.68933088778E+02 -0.77085465513E+03  0.82068213762E+03  0.26301167619E+03 0.  0.
         25    1    3    3    0    0  0.73316840743E+02 -0.68933088778E+02 -0.21343588456E+03  0.26707585960E+03  0.12509000000E+03 0.  0.
         25    1    4    4    0    0 -0.64746476352E+02  0.23704999802E+02 -0.31771236375E+03  0.34834277285E+03  0.12509000000E+03 0.  0.
         25    1    4    4    0    0 -0.85703643909E+01  0.45228088976E+02 -0.45314229138E+03  0.47233936477E+03  0.12509000000E+03 0.  0.
<mgrwt>
<rscale>  2 0.46302224E+03</rscale>
<asrwt>0</asrwt>
<pdfrwt beam="1">  1       21 0.76079017E-02 0.46302224E+03</pdfrwt>
<pdfrwt beam="2">  1       21 0.15235650E+00 0.46302224E+03</pdfrwt>
<totfact> 0.33758640E+04</totfact>
</mgrwt>
</event>
<event>
 7    0  0.4770865E-002  0.4121775E+03  0.7546771E-02  0.1039643E+00
         21   -1    0    0  502  501  0.00000000000E+00  0.00000000000E+00  0.44163650542E+03  0.44163650542E+03  0.00000000000E+00 0. -1.
         21   -1    0    0  501  502 -0.00000000000E+00 -0.00000000000E+00 -0.96170903888E+02  0.96170903888E+02  0.00000000000E+00 0. -1.
      99926    2    1    2    0    0 -0.14210854715E-13 -0.17763568394E-14  0.34546560153E+03  0.53780740930E+03  0.41217754386E+03 0.  0.
      99925    2    3    3    0    0  0.64266177766E+02  0.47838475615E+01  0.23134559837E+03  0.35663370806E+03  0.26365467763E+03 0.  0.
         25    1    4    4    0    0  0.70470071644E+02  0.18885558382E+02  0.11213250439E+03  0.18314994391E+03  0.12509000000E+03 0.  0.
         25    1    4    4    0    0 -0.62038938780E+01 -0.14101710821E+02  0.11921309398E+03  0.17348376415E+03  0.12509000000E+03 0.  0.
         25    1    3    3    0    0 -0.64266177766E+02 -0.47838475615E+01  0.11412000316E+03  0.18117370125E+03  0.12509000000E+03 0.  0.
<mgrwt>
<rscale>  2 0.41217754E+03</rscale>
<asrwt>0</asrwt>
<pdfrwt beam="1">  1       21 0.64946544E-01 0.41217754E+03</pdfrwt>
<pdfrwt beam="2">  1       21 0.14142780E-01 0.41217754E+03</pdfrwt>
<totfact> 0.89314327E+04</totfact>
</mgrwt>
</event>
<event>
 7    0  0.4770865E-002  0.4592456E+03  0.7546771E-02  0.1025000E+00
         21   -1    0    0  502  501  0.00000000000E+00  0.00000000000E+00  0.49161982503E+03  0.49161982503E+03  0.00000000000E+00 0. -1.
         21   -1    0    0  501  502 -0.00000000000E+00 -0.00000000000E+00 -0.10725080029E+03  0.10725080029E+03  0.00000000000E+00 0. -1.
      99926    2    1    2    0    0  0.00000000000E+00  0.00000000000E+00  0.38436902473E+03  0.59887062532E+03  0.45924555381E+03 0.  0.
      99925    2    3    3    0    0 -0.10697861608E+03  0.49095269687E+02  0.24922669501E+03  0.38031690839E+03  0.26205387899E+03 0.  0.
         25    1    3    3    0    0  0.10697861608E+03 -0.49095269687E+02  0.13514232972E+03  0.21855371693E+03  0.12509000000E+03 0.  0.
         25    1    4    4    0    0 -0.79708540248E+02  0.36063888919E+01  0.10243674240E+03  0.18029767531E+03  0.12509000000E+03 0.  0.
         25    1    4    4    0    0 -0.27270075828E+02  0.45488880795E+02  0.14678995261E+03  0.20001923307E+03  0.12509000000E+03 0.  0.
<mgrwt>
<rscale>  2 0.45924555E+03</rscale>
<asrwt>0</asrwt>
<pdfrwt beam="1">  1       21 0.72297032E-01 0.45924555E+03</pdfrwt>
<pdfrwt beam="2">  1       21 0.15772177E-01 0.45924555E+03</pdfrwt>
<totfact> 0.56817651E+04</totfact>
</mgrwt>
</event>
<event>
 7    0  0.4770865E-002  0.4580170E+03  0.7546771E-02  0.1025358E+00
         21   -1    0    0  502  501  0.00000000000E+00  0.00000000000E+00  0.18237417891E+03  0.18237417891E+03  0.00000000000E+00 0. -1.
         21   -1    0    0  501  502 -0.00000000000E+00 -0.00000000000E+00 -0.28756751895E+03  0.28756751895E+03  0.00000000000E+00 0. -1.
      99926    2    1    2    0    0 -0.71054273576E-14  0.00000000000E+00 -0.10519334004E+03  0.46994169786E+03  0.45801698724E+03 0.  0.
      99925    2    3    3    0    0 -0.37959991020E+02  0.82855007122E+02 -0.13996134275E+03  0.31131561162E+03  0.26272099164E+03 0.  0.
         25    1    3    3    0    0  0.37959991020E+02 -0.82855007122E+02  0.34768002713E+02  0.15862608624E+03  0.12509000000E+03 0.  0.
         25    1    4    4    0    0  0.14306160867E+02  0.16738568850E+02 -0.57641492911E+02  0.13948080775E+03  0.12509000000E+03 0.  0.
         25    1    4    4    0    0 -0.52266151887E+02  0.66116438271E+02 -0.82319849841E+02  0.17183480387E+03  0.12509000000E+03 0.  0.
<mgrwt>
<rscale>  2 0.45801699E+03</rscale>
<asrwt>0</asrwt>
<pdfrwt beam="1">  1       21 0.26819732E-01 0.45801699E+03</pdfrwt>
<pdfrwt beam="2">  1       21 0.42289341E-01 0.45801699E+03</pdfrwt>
<totfact> 0.65850180E+04</totfact>
</mgrwt>
</event>
<event>
 7    0  0.4770865E-002  0.4323420E+03  0.7546771E-02  0.1033123E+00
         21   -1    0    0  502  501  0.00000000000E+00  0.00000000000E+00  0.19483371911E+04  0.19483371911E+04  0.00000000000E+00 0. -1.
         21   -1    0    0  501  502 -0.00000000000E+00 -0.00000000000E+00 -0.23984507988E+02  0.23984507988E+02  0.00000000000E+00 0. -1.
      99926    2    1    2    0    0  0.00000000000E+00  0.35527136788E-14  0.19243526831E+04  0.19723216991E+04  0.43234203554E+03 0.  0.
      99925    2    3    3    0    0 -0.80149877252E+02 -0.24817865876E+02  0.10838488038E+04  0.11184281410E+04  0.26289417607E+03 0.  0.
         25    1    3    3    0    0  0.80149877252E+02  0.24817865876E+02  0.84050387930E+03  0.85389355807E+03  0.12509000000E+03 0.  0.
         25    1    4    4    0    0 -0.52248516945E+02 -0.30499322540E+02  0.70154137925E+03  0.71516986171E+03  0.12509000000E+03 0.  0.
         25    1    4    4    0    0 -0.27901360307E+02  0.56814566641E+01  0.38230742455E+03  0.40325827929E+03  0.12509000000E+03 0.  0.
<mgrwt>
<rscale>  2 0.43234204E+03</rscale>
<asrwt>0</asrwt>
<pdfrwt beam="1">  1       21 0.28652007E+00 0.43234204E+03</pdfrwt>
<pdfrwt beam="2">  1       21 0.35271348E-02 0.43234204E+03</pdfrwt>
<totfact> 0.16959471E+04</totfact>
</mgrwt>
</event>
<event>
 7    0  0.4770865E-002  0.4517464E+03  0.7546771E-02  0.1027203E+00
         21   -1    0    0  502  501  0.00000000000E+00  0.00000000000E+00  0.11972302538E+03  0.11972302538E+03  0.00000000000E+00 0.  1.
         21   -1    0    0  501  502 -0.00000000000E+00 -0.00000000000E+00 -0.42613948604E+03  0.42613948604E+03  0.00000000000E+00 0.  1.
      99926    2    1    2    0    0  0.00000000000E+00  0.00000000000E+00 -0.30641646066E+03  0.54586251141E+03  0.45174642666E+03 0.  0.
      99925    2    3    3    0    0 -0.24059364560E+02 -0.98735304049E+02 -0.24460114769E+03  0.37324688551E+03  0.26297528934E+03 0.  0.
         25    1    3    3    0    0  0.24059364560E+02  0.98735304049E+02 -0.61815312975E+02  0.17261562591E+03  0.12509000000E+03 0.  0.
         25    1    4    4    0    0 -0.24566031508E+02 -0.29185495296E+02 -0.72928901986E+02  0.14973782383E+03  0.12509000000E+03 0.  0.
         25    1    4    4    0    0  0.50666694797E+00 -0.69549808752E+02 -0.17167224570E+03  0.22350906168E+03  0.12509000000E+03 0.  0.
<mgrwt>
<rscale>  2 0.45174643E+03</rscale>
<asrwt>0</asrwt>
<pdfrwt beam="1">  1       21 0.17606327E-01 0.45174643E+03</pdfrwt>
<pdfrwt beam="2">  1       21 0.62667571E-01 0.45174643E+03</pdfrwt>
<totfact> 0.63766603E+04</totfact>
</mgrwt>
</event>
<event>
 7    0  0.4770865E-002  0.4462638E+03  0.7546771E-02  0.1028842E+00
         21   -1    0    0  502  501  0.00000000000E+00  0.00000000000E+00  0.15010292125E+03  0.15010292125E+03  0.00000000000E+00 0.  1.
         21   -1    0    0  501  502 -0.00000000000E+00 -0.00000000000E+00 -0.33169134580E+03  0.33169134580E+03  0.00000000000E+00 0.  1.
      99926    2    1    2    0    0  0.00000000000E+00  0.00000000000E+00 -0.18158842455E+03  0.48179426705E+03  0.44626377831E+03 0.  0.
      99925    2    3    3    0    0  0.62451278409E+02 -0.83937267216E+02 -0.12042748271E+03  0.30762826604E+03  0.26303373257E+03 0.  0.
         25    1    4    4    0    0  0.33936177093E+02 -0.32372145821E+02 -0.10210830088E+03  0.16814646339E+03  0.12509000000E+03 0.  0.
         25    1    3    3    0    0 -0.62451278409E+02  0.83937267216E+02 -0.61160941835E+02  0.17416600101E+03  0.12509000000E+03 0.  0.
         25    1    4    4    0    0  0.28515101315E+02 -0.51565121395E+02 -0.18319181831E+02  0.13948180265E+03  0.12509000000E+03 0.  0.
<mgrwt>
<rscale>  2 0.44626378E+03</rscale>
<asrwt>0</asrwt>
<pdfrwt beam="1">  1       21 0.22073959E-01 0.44626378E+03</pdfrwt>
<pdfrwt beam="2">  1       21 0.48778138E-01 0.44626378E+03</pdfrwt>
<totfact> 0.71394083E+04</totfact>
</mgrwt>
</event>
<event>
 7    0  0.4770865E-002  0.4687893E+03  0.7546771E-02  0.1022262E+00
         21   -1    0    0  502  501  0.00000000000E+00  0.00000000000E+00  0.56733175955E+03  0.56733175955E+03  0.00000000000E+00 0. -1.
         21   -1    0    0  501  502 -0.00000000000E+00 -0.00000000000E+00 -0.96840780062E+02  0.96840780062E+02  0.00000000000E+00 0. -1.
      99926    2    1    2    0    0  0.00000000000E+00  0.71054273576E-14  0.47049097949E+03  0.66417253961E+03  0.46878929232E+03 0.  0.
      99925    2    3    3    0    0  0.91146284763E+02 -0.46937090882E+02  0.39549589929E+03  0.48589605243E+03  0.26299663817E+03 0.  0.
         25    1    4    4    0    0  0.63135986186E+02  0.65622736255E+01  0.16281761745E+03  0.21490998311E+03  0.12509000000E+03 0.  0.
         25    1    4    4    0    0  0.28010298577E+02 -0.53499364507E+02  0.23267828183E+03  0.27098606932E+03  0.12509000000E+03 0.  0.
         25    1    3    3    0    0 -0.91146284763E+02  0.46937090882E+02  0.74995080198E+02  0.17827648718E+03  0.12509000000E+03 0.  0.
<mgrwt>
<rscale>  2 0.46878929E+03</rscale>
<asrwt>0</asrwt>
<pdfrwt beam="1">  1       21 0.83431140E-01 0.46878929E+03</pdfrwt>
<pdfrwt beam="2">  1       21 0.14241291E-01 0.46878929E+03</pdfrwt>
<totfact> 0.49307301E+04</totfact>
</mgrwt>
</event>
<event>
 7    0  0.4770865E-002  0.4546068E+03  0.7546771E-02  0.1026357E+00
         21   -1    0    0  502  501  0.00000000000E+00  0.00000000000E+00  0.12344455183E+03  0.12344455183E+03  0.00000000000E+00 0.  1.
         21   -1    0    0  501  502 -0.00000000000E+00 -0.00000000000E+00 -0.41854292805E+03  0.41854292805E+03  0.00000000000E+00 0.  1.
      99926    2    1    2    0    0  0.71054273576E-14  0.00000000000E+00 -0.29509837622E+03  0.54198747989E+03  0.45460683751E+03 0.  0.
      99925    2    3    3    0    0 -0.56551697108E+02 -0.11828840169E+02 -0.30130766242E+03  0.40405967543E+03  0.26294466714E+03 0.  0.
         25    1    4    4    0    0 -0.35106029600E+02 -0.97847385461E+01 -0.92821580936E+02  0.15997352409E+03  0.12509000000E+03 0.  0.
         25    1    3    3    0    0  0.56551697108E+02  0.11828840169E+02  0.62092862000E+01  0.13792780445E+03  0.12509000000E+03 0.  0.
         25    1    4    4    0    0 -0.21445667508E+02 -0.20441016229E+01 -0.20848608148E+03  0.24408615134E+03  0.12509000000E+03 0.  0.
<mgrwt>
<rscale>  2 0.45460684E+03</rscale>
<asrwt>0</asrwt>
<pdfrwt beam="1">  1       21 0.18153611E-01 0.45460684E+03</pdfrwt>
<pdfrwt beam="2">  1       21 0.61550430E-01 0.45460684E+03</pdfrwt>
<totfact> 0.62593632E+04</totfact>
</mgrwt>
</event>
<event>
 7    0  0.4770865E-002  0.4573933E+03  0.7546771E-02  0.1025540E+00
         21   -1    0    0  502  501  0.00000000000E+00  0.00000000000E+00  0.81795449051E+03  0.81795449051E+03  0.00000000000E+00 0. -1.
         21   -1    0    0  501  502 -0.00000000000E+00 -0.00000000000E+00 -0.63942632981E+02  0.63942632981E+02  0.00000000000E+00 0. -1.
      99926    2    1    2    0    0  0.00000000000E+00  0.00000000000E+00  0.75401185753E+03  0.88189712349E+03  0.45739332650E+03 0.  0.
      99925    2    3    3    0    0 -0.38296698447E+02  0.10283703650E+03  0.54227125201E+03  0.61259490420E+03  0.26300629785E+03 0.  0.
         25    1    4    4    0    0 -0.51609975759E+02  0.60139423704E+02  0.33684201905E+03  0.36795433654E+03  0.12509000000E+03 0.  0.
         25    1    4    4    0    0  0.13313277312E+02  0.42697612798E+02  0.20542923296E+03  0.24464056766E+03  0.12509000000E+03 0.  0.
         25    1    3    3    0    0  0.38296698447E+02 -0.10283703650E+03  0.21174060553E+03  0.26930221929E+03  0.12509000000E+03 0.  0.
<mgrwt>
<rscale>  2 0.45739333E+03</rscale>
<asrwt>0</asrwt>
<pdfrwt beam="1">  1       21 0.12028742E+00 0.45739333E+03</pdfrwt>
<pdfrwt beam="2">  1       21 0.94033289E-02 0.45739333E+03</pdfrwt>
<totfact> 0.43210047E+04</totfact>
</mgrwt>
</event>
<event>
 7    0  0.4770865E-002  0.4626972E+03  0.7546771E-02  0.1024002E+00
         21   -1    0    0  502  501  0.00000000000E+00  0.00000000000E+00  0.56919709579E+03  0.56919709579E+03  0.00000000000E+00 0.  1.
         21   -1    0    0  501  502 -0.00000000000E+00 -0.00000000000E+00 -0.94031016505E+02  0.94031016505E+02  0.00000000000E+00 0.  1.
      99926    2    1    2    0    0  0.00000000000E+00  0.00000000000E+00  0.47516607929E+03  0.66322811230E+03  0.46269722934E+03 0.  0.
      99925    2    3    3    0    0 -0.71473281148E+02  0.96576756039E+02  0.29346764277E+03  0.41203629384E+03  0.26308772371E+03 0.  0.
         25    1    3    3    0    0  0.71473281148E+02 -0.96576756039E+02  0.18169843652E+03  0.25119181845E+03  0.12509000000E+03 0.  0.
         25    1    4    4    0    0 -0.70863262612E+02  0.63052707626E+02  0.18866599389E+03  0.24543759141E+03  0.12509000000E+03 0.  0.
         25    1    4    4    0    0 -0.61001853568E+00  0.33524048413E+02  0.10480164888E+03  0.16659870243E+03  0.12509000000E+03 0.  0.
<mgrwt>
<rscale>  2 0.46269723E+03</rscale>
<asrwt>0</asrwt>
<pdfrwt beam="1">  1       21 0.83705454E-01 0.46269723E+03</pdfrwt>
<pdfrwt beam="2">  1       21 0.13828091E-01 0.46269723E+03</pdfrwt>
<totfact> 0.51732877E+04</totfact>
</mgrwt>
</event>
<event>
 7    0  0.4770865E-002  0.4274043E+03  0.7546771E-02  0.1034683E+00
         21   -1    0    0  502  501  0.00000000000E+00  0.00000000000E+00  0.20797854569E+03  0.20797854569E+03  0.00000000000E+00 0. -1.
         21   -1    0    0  501  502 -0.00000000000E+00 -0.00000000000E+00 -0.21958323566E+03  0.21958323566E+03  0.00000000000E+00 0. -1.
      99926    2    1    2    0    0  0.00000000000E+00 -0.71054273576E-14 -0.11604689967E+02  0.42756178136E+03  0.42740426770E+03 0.  0.
      99925    2    3    3    0    0  0.10039261164E+02 -0.46927566410E+02 -0.77369071663E+02  0.27831217414E+03  0.26299944823E+03 0.  0.
         25    1    3    3    0    0 -0.10039261164E+02  0.46927566410E+02  0.65764381696E+02  0.14924960721E+03  0.12509000000E+03 0.  0.
         25    1    4    4    0    0  0.20703607363E+02 -0.60401662949E+02 -0.31173155380E+02  0.14386199624E+03  0.12509000000E+03 0.  0.
         25    1    4    4    0    0 -0.10664346199E+02  0.13474096539E+02 -0.46195916283E+02  0.13445017790E+03  0.12509000000E+03 0.  0.
<mgrwt>
<rscale>  2 0.42740427E+03</rscale>
<asrwt>0</asrwt>
<pdfrwt beam="1">  1       21 0.30585080E-01 0.42740427E+03</pdfrwt>
<pdfrwt beam="2">  1       21 0.32291652E-01 0.42740427E+03</pdfrwt>
<totfact> 0.88554887E+04</totfact>
</mgrwt>
</event>
<event>
 7    0  0.4770865E-002  0.4559267E+03  0.7546771E-02  0.1025969E+00
         21   -1    0    0  502  501  0.00000000000E+00  0.00000000000E+00  0.17360207603E+03  0.17360207603E+03  0.00000000000E+00 0.  1.
         21   -1    0    0  501  502 -0.00000000000E+00 -0.00000000000E+00 -0.29934717190E+03  0.29934717190E+03  0.00000000000E+00 0.  1.
      99926    2    1    2    0    0 -0.71054273576E-14 -0.14210854715E-13 -0.12574509587E+03  0.47294924793E+03  0.45592670681E+03 0.  0.
      99925    2    3    3    0    0 -0.44494313279E+02 -0.10270822808E+03 -0.10151116261E+03  0.30335114755E+03  0.26303740905E+03 0.  0.
         25    1    3    3    0    0  0.44494313279E+02  0.10270822808E+03 -0.24233933260E+02  0.16959810038E+03  0.12509000000E+03 0.  0.
         25    1    4    4    0    0 -0.68518120172E+01 -0.14129563246E+02 -0.27535432587E+02  0.12904379115E+03  0.12509000000E+03 0.  0.
         25    1    4    4    0    0 -0.37642501262E+02 -0.88578664834E+02 -0.73975730023E+02  0.17430735641E+03  0.12509000000E+03 0.  0.
<mgrwt>
<rscale>  2 0.45592671E+03</rscale>
<asrwt>0</asrwt>
<pdfrwt beam="1">  1       21 0.25529717E-01 0.45592671E+03</pdfrwt>
<pdfrwt beam="2">  1       21 0.44021643E-01 0.45592671E+03</pdfrwt>
<totfact> 0.66725103E+04</totfact>
</mgrwt>
</event>
<event>
 7    0  0.4770865E-002  0.4612674E+03  0.7546771E-02  0.1024414E+00
         21   -1    0    0  502  501  0.00000000000E+00  0.00000000000E+00  0.15045793419E+03  0.15045793419E+03  0.00000000000E+00 0. -1.
         21   -1    0    0  501  502 -0.00000000000E+00 -0.00000000000E+00 -0.35353333648E+03  0.35353333648E+03  0.00000000000E+00 0. -1.
      99926    2    1    2    0    0  0.88817841970E-15  0.00000000000E+00 -0.20307540228E+03  0.50399127067E+03  0.46126736488E+03 0.  0.
      99925    2    3    3    0    0 -0.47562824491E+01  0.18249525315E+02  0.12031139006E+01  0.26371458085E+03  0.26303662345E+03 0.  0.
         25    1    4    4    0    0 -0.40499678747E+02  0.16125678374E+02  0.12799957035E+02  0.13308496715E+03  0.12509000000E+03 0.  0.
         25    1    4    4    0    0  0.35743396298E+02  0.21238469411E+01 -0.11596843134E+02  0.13062961370E+03  0.12509000000E+03 0.  0.
         25    1    3    3    0    0  0.47562824491E+01 -0.18249525315E+02 -0.20427851618E+03  0.24027668982E+03  0.12509000000E+03 0.  0.
<mgrwt>
<rscale>  2 0.46126736E+03</rscale>
<asrwt>0</asrwt>
<pdfrwt beam="1">  1       21 0.22126167E-01 0.46126736E+03</pdfrwt>
<pdfrwt beam="2">  1       21 0.51990196E-01 0.46126736E+03</pdfrwt>
<totfact> 0.61856055E+04</totfact>
</mgrwt>
</event>
<event>
 7    0  0.4770865E-002  0.4407547E+03  0.7546771E-02  0.1030516E+00
         21   -1    0    0  502  501  0.00000000000E+00  0.00000000000E+00  0.12327477920E+03  0.12327477920E+03  0.00000000000E+00 0. -1.
         21   -1    0    0  501  502 -0.00000000000E+00 -0.00000000000E+00 -0.39396682502E+03  0.39396682502E+03  0.00000000000E+00 0. -1.
      99926    2    1    2    0    0 -0.35527136788E-14  0.00000000000E+00 -0.27069204582E+03  0.51724160422E+03  0.44075468626E+03 0.  0.
      99925    2    3    3    0    0  0.24236071876E+02 -0.66817886254E+01 -0.28528296785E+03  0.38881872236E+03  0.26298591907E+03 0.  0.
         25    1    3    3    0    0 -0.24236071876E+02  0.66817886254E+01  0.14590922031E+02  0.12842288186E+03  0.12509000000E+03 0.  0.
         25    1    4    4    0    0  0.32552145612E+02  0.13887667608E+02 -0.99298267834E+02  0.16358534039E+03  0.12509000000E+03 0.  0.
         25    1    4    4    0    0 -0.83160737365E+01 -0.20569456233E+02 -0.18598470002E+03  0.22523338197E+03  0.12509000000E+03 0.  0.
<mgrwt>
<rscale>  2 0.44075469E+03</rscale>
<asrwt>0</asrwt>
<pdfrwt beam="1">  1       21 0.18128644E-01 0.44075469E+03</pdfrwt>
<pdfrwt beam="2">  1       21 0.57936296E-01 0.44075469E+03</pdfrwt>
<totfact> 0.71852921E+04</totfact>
</mgrwt>
</event>
<event>
 7    0  0.4770865E-002  0.4502606E+03  0.7546771E-02  0.1027644E+00
         21   -1    0    0  502  501  0.00000000000E+00  0.00000000000E+00  0.10493840999E+03  0.10493840999E+03  0.00000000000E+00 0. -1.
         21   -1    0    0  501  502 -0.00000000000E+00 -0.00000000000E+00 -0.48298481999E+03  0.48298481999E+03  0.00000000000E+00 0. -1.
      99926    2    1    2    0    0  0.00000000000E+00  0.00000000000E+00 -0.37804641001E+03  0.58792322998E+03  0.45026063144E+03 0.  0.
      99925    2    3    3    0    0  0.76951075236E+02 -0.40941507312E+02 -0.32375643264E+03  0.42608199684E+03  0.26292577917E+03 0.  0.
         25    1    3    3    0    0 -0.76951075236E+02  0.40941507312E+02 -0.54289977361E+02  0.16184123314E+03  0.12509000000E+03 0.  0.
         25    1    4    4    0    0  0.60194366698E+02  0.64453487386E+01 -0.19665696002E+03  0.24080359700E+03  0.12509000000E+03 0.  0.
         25    1    4    4    0    0  0.16756708537E+02 -0.47386856050E+02 -0.12709947262E+03  0.18527839984E+03  0.12509000000E+03 0.  0.
<mgrwt>
<rscale>  2 0.45026063E+03</rscale>
<asrwt>0</asrwt>
<pdfrwt beam="1">  1       21 0.15432119E-01 0.45026063E+03</pdfrwt>
<pdfrwt beam="2">  1       21 0.71027179E-01 0.45026063E+03</pdfrwt>
<totfact> 0.61707062E+04</totfact>
</mgrwt>
</event>
<event>
 7    0  0.4770865E-002  0.4740299E+03  0.7546771E-02  0.1020789E+00
         21   -1    0    0  502  501  0.00000000000E+00  0.00000000000E+00  0.29191743439E+03  0.29191743439E+03  0.00000000000E+00 0.  1.
         21   -1    0    0  501  502 -0.00000000000E+00 -0.00000000000E+00 -0.19243830413E+03  0.19243830413E+03  0.00000000000E+00 0.  1.
      99926    2    1    2    0    0 -0.35527136788E-14  0.00000000000E+00  0.99479130264E+02  0.48435573852E+03  0.47402994006E+03 0.  0.
      99925    2    3    3    0    0 -0.16220702842E+02 -0.94914438695E+02 -0.27992759759E+02  0.28145563324E+03  0.26298634377E+03 0.  0.
         25    1    4    4    0    0 -0.14013789445E+00 -0.83695117336E+02  0.50705875089E+01  0.15059253389E+03  0.12509000000E+03 0.  0.
         25    1    3    3    0    0  0.16220702842E+02  0.94914438695E+02  0.12747189002E+03  0.20290010527E+03  0.12509000000E+03 0.  0.
         25    1    4    4    0    0 -0.16080564948E+02 -0.11219321358E+02 -0.33063347268E+02  0.13086309936E+03  0.12509000000E+03 0.  0.
<mgrwt>
<rscale>  2 0.47402994E+03</rscale>
<asrwt>0</asrwt>
<pdfrwt beam="1">  1       21 0.42929035E-01 0.47402994E+03</pdfrwt>
<pdfrwt beam="2">  1       21 0.28299750E-01 0.47402994E+03</pdfrwt>
<totfact> 0.57236488E+04</totfact>
</mgrwt>
</event>
<event>
 7    0  0.4770865E-002  0.4587111E+03  0.7546771E-02  0.1025156E+00
         21   -1    0    0  502  501  0.00000000000E+00  0.00000000000E+00  0.32818715401E+03  0.32818715401E+03  0.00000000000E+00 0. -1.
         21   -1    0    0  501  502 -0.00000000000E+00 -0.00000000000E+00 -0.16028651404E+03  0.16028651404E+03  0.00000000000E+00 0. -1.
      99926    2    1    2    0    0  0.71054273576E-14  0.00000000000E+00  0.16790063998E+03  0.48847366805E+03  0.45871112857E+03 0.  0.
      99925    2    3    3    0    0  0.51897990729E+02 -0.70327584740E+02  0.18737076161E+03  0.33463620722E+03  0.26312395988E+03 0.  0.
         25    1    4    4    0    0  0.39209285952E+02 -0.73438568061E+02  0.11760738632E+03  0.19081298908E+03  0.12509000000E+03 0.  0.
         25    1    4    4    0    0  0.12688704777E+02  0.31109833211E+01  0.69763375293E+02  0.14382321815E+03  0.12509000000E+03 0.  0.
         25    1    3    3    0    0 -0.51897990729E+02  0.70327584740E+02 -0.19470121632E+02  0.15383746083E+03  0.12509000000E+03 0.  0.
<mgrwt>
<rscale>  2 0.45871113E+03</rscale>
<asrwt>0</asrwt>
<pdfrwt beam="1">  1       21 0.48262817E-01 0.45871113E+03</pdfrwt>
<pdfrwt beam="2">  1       21 0.23571546E-01 0.45871113E+03</pdfrwt>
<totfact> 0.64176630E+04</totfact>
</mgrwt>
</event>
<event>
 7    0  0.4770865E-002  0.4560090E+03  0.7546771E-02  0.1025945E+00
         21   -1    0    0  502  501  0.00000000000E+00  0.00000000000E+00  0.82409648975E+02  0.82409648975E+02  0.00000000000E+00 0. -1.
         21   -1    0    0  501  502 -0.00000000000E+00 -0.00000000000E+00 -0.63082474352E+03  0.63082474352E+03  0.00000000000E+00 0. -1.
      99926    2    1    2    0    0  0.71054273576E-14 -0.14210854715E-13 -0.54841509455E+03  0.71323439250E+03  0.45600897219E+03 0.  0.
      99925    2    3    3    0    0 -0.46634281893E+02  0.72935889255E+02 -0.46116792774E+03  0.53786627566E+03  0.26292560302E+03 0.  0.
         25    1    4    4    0    0 -0.39689081579E+02  0.69918714750E+02 -0.21189189159E+03  0.25886199352E+03  0.12509000000E+03 0.  0.
         25    1    4    4    0    0 -0.69452003146E+01  0.30171745055E+01 -0.24927603615E+03  0.27900428213E+03  0.12509000000E+03 0.  0.
         25    1    3    3    0    0  0.46634281893E+02 -0.72935889255E+02 -0.87247166805E+02  0.17536811684E+03  0.12509000000E+03 0.  0.
<mgrwt>
<rscale>  2 0.45600897E+03</rscale>
<asrwt>0</asrwt>
<pdfrwt beam="1">  1       21 0.12119066E-01 0.45600897E+03</pdfrwt>
<pdfrwt beam="2">  1       21 0.92768344E-01 0.45600897E+03</pdfrwt>
<totfact> 0.51778102E+04</totfact>
</mgrwt>
</event>
<event>
 7    0  0.4770865E-002  0.4594300E+03  0.7546771E-02  0.1024947E+00
         21   -1    0    0  502  501  0.00000000000E+00  0.00000000000E+00  0.59486681390E+02  0.59486681390E+02  0.00000000000E+00 0. -1.
         21   -1    0    0  501  502 -0.00000000000E+00 -0.00000000000E+00 -0.88707223323E+03  0.88707223323E+03  0.00000000000E+00 0. -1.
      99926    2    1    2    0    0 -0.14210854715E-13  0.00000000000E+00 -0.82758555184E+03  0.94655891462E+03  0.45943000907E+03 0.  0.
      99925    2    3    3    0    0 -0.52259368482E+02 -0.16822924883E+02 -0.73224669940E+03  0.77997242873E+03  0.26297853222E+03 0.  0.
         25    1    4    4    0    0 -0.66288757865E+02 -0.14425931119E+02 -0.36594488483E+03  0.39263911387E+03  0.12509000000E+03 0.  0.
         25    1    3    3    0    0  0.52259368482E+02  0.16822924883E+02 -0.95338852443E+02  0.16658648589E+03  0.12509000000E+03 0.  0.
         25    1    4    4    0    0  0.14029389383E+02 -0.23969937639E+01 -0.36630181457E+03  0.38733331486E+03  0.12509000000E+03 0.  0.
<mgrwt>
<rscale>  2 0.45943001E+03</rscale>
<asrwt>0</asrwt>
<pdfrwt beam="1">  1       21 0.87480413E-02 0.45943001E+03</pdfrwt>
<pdfrwt beam="2">  1       21 0.13045180E+00 0.45943001E+03</pdfrwt>
<totfact> 0.39880817E+04</totfact>
</mgrwt>
</event>
<event>
 7    0  0.4770865E-002  0.4696087E+03  0.7546771E-02  0.1022031E+00
         21   -1    0    0  502  501  0.00000000000E+00  0.00000000000E+00  0.20991388504E+03  0.20991388504E+03  0.00000000000E+00 0.  1.
         21   -1    0    0  501  502 -0.00000000000E+00 -0.00000000000E+00 -0.26264614796E+03  0.26264614796E+03  0.00000000000E+00 0.  1.
      99926    2    1    2    0    0  0.00000000000E+00  0.00000000000E+00 -0.52732262915E+02  0.47256003300E+03  0.46960865967E+03 0.  0.
      99925    2    3    3    0    0 -0.42498490791E+02  0.95341204899E+02 -0.10515789646E+03  0.30141091023E+03  0.26247721149E+03 0.  0.
         25    1    4    4    0    0 -0.28103733043E+02  0.36766198746E+02 -0.91762354758E+02  0.16189320873E+03  0.12509000000E+03 0.  0.
         25    1    3    3    0    0  0.42498490791E+02 -0.95341204899E+02  0.52425633544E+02  0.17114912277E+03  0.12509000000E+03 0.  0.
         25    1    4    4    0    0 -0.14394757748E+02  0.58575006153E+02 -0.13395541701E+02  0.13951770151E+03  0.12509000000E+03 0.  0.
<mgrwt>
<rscale>  2 0.46960866E+03</rscale>
<asrwt>0</asrwt>
<pdfrwt beam="1">  1       21 0.30869689E-01 0.46960866E+03</pdfrwt>
<pdfrwt beam="2">  1       21 0.38624433E-01 0.46960866E+03</pdfrwt>
<totfact> 0.59976580E+04</totfact>
</mgrwt>
</event>
<event>
 7    0  0.4770865E-002  0.4525519E+03  0.7546771E-02  0.1026964E+00
         21   -1    0    0  502  501  0.00000000000E+00  0.00000000000E+00  0.19644250619E+03  0.19644250619E+03  0.00000000000E+00 0.  1.
         21   -1    0    0  501  502 -0.00000000000E+00 -0.00000000000E+00 -0.26064020876E+03  0.26064020876E+03  0.00000000000E+00 0.  1.
      99926    2    1    2    0    0  0.00000000000E+00  0.00000000000E+00 -0.64197702569E+02  0.45708271495E+03  0.45255194541E+03 0.  0.
      99925    2    3    3    0    0 -0.10516613862E+03 -0.35016986272E+02 -0.39170506381E+02  0.28808574844E+03  0.26300753572E+03 0.  0.
         25    1    4    4    0    0 -0.16667693748E+02 -0.19641183990E+01 -0.36213139101E+02  0.13130334847E+03  0.12509000000E+03 0.  0.
         25    1    4    4    0    0 -0.88498444874E+02 -0.33052867873E+02 -0.29573672803E+01  0.15678239997E+03  0.12509000000E+03 0.  0.
         25    1    3    3    0    0  0.10516613862E+03  0.35016986272E+02 -0.25027196188E+02  0.16899696651E+03  0.12509000000E+03 0.  0.
<mgrwt>
<rscale>  2 0.45255195E+03</rscale>
<asrwt>0</asrwt>
<pdfrwt beam="1">  1       21 0.28888604E-01 0.45255195E+03</pdfrwt>
<pdfrwt beam="2">  1       21 0.38329442E-01 0.45255195E+03</pdfrwt>
<totfact> 0.69745400E+04</totfact>
</mgrwt>
</event>
<event>
 7    0  0.4770865E-002  0.4589649E+03  0.7546771E-02  0.1025082E+00
         21   -1    0    0  502  501  0.00000000000E+00  0.00000000000E+00  0.52603240824E+02  0.52603240824E+02  0.00000000000E+00 0.  1.
         21   -1    0    0  501  502 -0.00000000000E+00 -0.00000000000E+00 -0.10011208361E+04  0.10011208361E+04  0.00000000000E+00 0.  1.
      99926    2    1    2    0    0  0.17763568394E-14 -0.14210854715E-13 -0.94851759530E+03  0.10537240769E+04  0.45896492431E+03 0.  0.
      99925    2    3    3    0    0 -0.15332310549E+02  0.11584935814E+03 -0.58534032819E+03  0.65222514921E+03  0.26290338897E+03 0.  0.
         25    1    4    4    0    0 -0.20209820613E+01  0.21399757245E+02 -0.31238672388E+03  0.33718690267E+03  0.12509000000E+03 0.  0.
         25    1    3    3    0    0  0.15332310549E+02 -0.11584935814E+03 -0.36317726710E+03  0.40149892773E+03  0.12509000000E+03 0.  0.
         25    1    4    4    0    0 -0.13311328488E+02  0.94449600894E+02 -0.27295360431E+03  0.31503824654E+03  0.12509000000E+03 0.  0.
<mgrwt>
<rscale>  2 0.45896492E+03</rscale>
<asrwt>0</asrwt>
<pdfrwt beam="1">  1       21 0.77357719E-02 0.45896492E+03</pdfrwt>
<pdfrwt beam="2">  1       21 0.14722363E+00 0.45896492E+03</pdfrwt>
<totfact> 0.36013583E+04</totfact>
</mgrwt>
</event>
<event>
 7    0  0.4770865E-002  0.4532806E+03  0.7546771E-02  0.1026748E+00
         21   -1    0    0  502  501  0.00000000000E+00  0.00000000000E+00  0.17433801322E+03  0.17433801322E+03  0.00000000000E+00 0.  1.
         21   -1    0    0  501  502 -0.00000000000E+00 -0.00000000000E+00 -0.29463349958E+03  0.29463349958E+03  0.00000000000E+00 0.  1.
      99926    2    1    2    0    0  0.14210854715E-13  0.17763568394E-14 -0.12029548636E+03  0.46897151280E+03  0.45328057071E+03 0.  0.
      99925    2    3    3    0    0 -0.75066264534E+02 -0.14291783574E+02 -0.15989143993E+03  0.31713427499E+03  0.26300128642E+03 0.  0.
         25    1    4    4    0    0 -0.19772882467E+02  0.98530991076E+00 -0.35244648572E+02  0.13145961764E+03  0.12509000000E+03 0.  0.
         25    1    3    3    0    0  0.75066264534E+02  0.14291783574E+02  0.39595953570E+02  0.15183723782E+03  0.12509000000E+03 0.  0.
         25    1    4    4    0    0 -0.55293382068E+02 -0.15277093485E+02 -0.12464679136E+03  0.18567465735E+03  0.12509000000E+03 0.  0.
<mgrwt>
<rscale>  2 0.45328057E+03</rscale>
<asrwt>0</asrwt>
<pdfrwt beam="1">  1       21 0.25637944E-01 0.45328057E+03</pdfrwt>
<pdfrwt beam="2">  1       21 0.43328455E-01 0.45328057E+03</pdfrwt>
<totfact> 0.68441091E+04</totfact>
</mgrwt>
</event>
<event>
 7    0  0.4770865E-002  0.4544789E+03  0.7546771E-02  0.1026395E+00
         21   -1    0    0  502  501  0.00000000000E+00  0.00000000000E+00  0.95172263255E+02  0.95172263255E+02  0.00000000000E+00 0.  1.
         21   -1    0    0  501  502 -0.00000000000E+00 -0.00000000000E+00 -0.54257166666E+03  0.54257166666E+03  0.00000000000E+00 0.  1.
      99926    2    1    2    0    0  0.14210854715E-13 -0.14210854715E-13 -0.44739940340E+03  0.63774392991E+03  0.45447892578E+03 0.  0.
      99925    2    3    3    0    0 -0.80480055857E+02  0.71033672515E+02 -0.32854029707E+03  0.43452528589E+03  0.26334516372E+03 0.  0.
         25    1    3    3    0    0  0.80480055857E+02 -0.71033672515E+02 -0.11885910633E+03  0.20321864402E+03  0.12509000000E+03 0.  0.
         25    1    4    4    0    0 -0.71904722409E+02  0.47953443853E+02 -0.13841217690E+03  0.20560948591E+03  0.12509000000E+03 0.  0.
         25    1    4    4    0    0 -0.85753334479E+01  0.23080228662E+02 -0.19012812017E+03  0.22891579998E+03  0.12509000000E+03 0.  0.
<mgrwt>
<rscale>  2 0.45447893E+03</rscale>
<asrwt>0</asrwt>
<pdfrwt beam="1">  1       21 0.13995921E-01 0.45447893E+03</pdfrwt>
<pdfrwt beam="2">  1       21 0.79789950E-01 0.45447893E+03</pdfrwt>
<totfact> 0.56645730E+04</totfact>
</mgrwt>
</event>
<event>
 7    0  0.4770865E-002  0.4537263E+03  0.7546771E-02  0.1026617E+00
         21   -1    0    0  502  501  0.00000000000E+00  0.00000000000E+00  0.25189520712E+03  0.25189520712E+03  0.00000000000E+00 0.  1.
         21   -1    0    0  501  502 -0.00000000000E+00 -0.00000000000E+00 -0.20431860594E+03  0.20431860594E+03  0.00000000000E+00 0.  1.
      99926    2    1    2    0    0  0.00000000000E+00  0.00000000000E+00  0.47576601178E+02  0.45621381306E+03  0.45372625033E+03 0.  0.
      99925    2    3    3    0    0 -0.80990185951E+02 -0.29229098116E+02 -0.41956700583E+02  0.27992577994E+03  0.26302913746E+03 0.  0.
         25    1    4    4    0    0 -0.68900612623E+01 -0.12565589599E+02 -0.44559431155E+02  0.13356054055E+03  0.12509000000E+03 0.  0.
         25    1    3    3    0    0  0.80990185951E+02  0.29229098116E+02  0.89533301762E+02  0.17628803312E+03  0.12509000000E+03 0.  0.
         25    1    4    4    0    0 -0.74100124689E+02 -0.16663508517E+02  0.26027305712E+01  0.14636523939E+03  0.12509000000E+03 0.  0.
<mgrwt>
<rscale>  2 0.45372625E+03</rscale>
<asrwt>0</asrwt>
<pdfrwt beam="1">  1       21 0.37043413E-01 0.45372625E+03</pdfrwt>
<pdfrwt beam="2">  1       21 0.30046854E-01 0.45372625E+03</pdfrwt>
<totfact> 0.69157083E+04</totfact>
</mgrwt>
</event>
<event>
 7    0  0.4770865E-002  0.4026195E+03  0.7546771E-02  0.1042876E+00
         21   -1    0    0  502  501  0.00000000000E+00  0.00000000000E+00  0.67120844354E+03  0.67120844354E+03  0.00000000000E+00 0. -1.
         21   -1    0    0  501  502 -0.00000000000E+00 -0.00000000000E+00 -0.60377095951E+02  0.60377095951E+02  0.00000000000E+00 0. -1.
      99926    2    1    2    0    0  0.88817841970E-15  0.00000000000E+00  0.61083134759E+03  0.73158553949E+03  0.40261950573E+03 0.  0.
      99925    2    3    3    0    0  0.54420374993E+01  0.14042758095E+02  0.49346318257E+03  0.55939492103E+03  0.26303982643E+03 0.  0.
         25    1    3    3    0    0 -0.54420374993E+01 -0.14042758095E+02  0.11736816502E+03  0.17219061846E+03  0.12509000000E+03 0.  0.
         25    1    4    4    0    0 -0.22252785865E+02  0.17632550177E+01  0.17812415148E+03  0.21880131852E+03  0.12509000000E+03 0.  0.
         25    1    4    4    0    0  0.27694823365E+02  0.12279503077E+02  0.31533903110E+03  0.34059360251E+03  0.12509000000E+03 0.  0.
<mgrwt>
<rscale>  2 0.40261951E+03</rscale>
<asrwt>0</asrwt>
<pdfrwt beam="1">  1       21 0.98707120E-01 0.40261951E+03</pdfrwt>
<pdfrwt beam="2">  1       21 0.88789851E-02 0.40261951E+03</pdfrwt>
<totfact> 0.79111503E+04</totfact>
</mgrwt>
</event>
<event>
 7    0  0.4770865E-002  0.4237518E+03  0.7546771E-02  0.1035852E+00
         21   -1    0    0  502  501  0.00000000000E+00  0.00000000000E+00  0.27730142645E+03  0.27730142645E+03  0.00000000000E+00 0.  1.
         21   -1    0    0  501  502 -0.00000000000E+00 -0.00000000000E+00 -0.16188661424E+03  0.16188661424E+03  0.00000000000E+00 0.  1.
      99926    2    1    2    0    0  0.00000000000E+00  0.00000000000E+00  0.11541481221E+03  0.43918804069E+03  0.42375176249E+03 0.  0.
      99925    2    3    3    0    0 -0.32092950678E+02 -0.71795048674E+02  0.58696810299E+02  0.28091951465E+03  0.26322228567E+03 0.  0.
         25    1    4    4    0    0 -0.18765490420E+02 -0.77477206961E+02  0.23634156249E+02  0.15020300487E+03  0.12509000000E+03 0.  0.
         25    1    4    4    0    0 -0.13327460258E+02  0.56821582871E+01  0.35062654050E+02  0.13071650978E+03  0.12509000000E+03 0.  0.
         25    1    3    3    0    0  0.32092950678E+02  0.71795048674E+02  0.56718001910E+02  0.15826852605E+03  0.12509000000E+03 0.  0.
<mgrwt>
<rscale>  2 0.42375176E+03</rscale>
<asrwt>0</asrwt>
<pdfrwt beam="1">  1       21 0.40779622E-01 0.42375176E+03</pdfrwt>
<pdfrwt beam="2">  1       21 0.23806855E-01 0.42375176E+03</pdfrwt>
<totfact> 0.90155768E+04</totfact>
</mgrwt>
</event>
<event>
 7    0  0.4770865E-002  0.4710463E+03  0.7546771E-02  0.1021625E+00
         21   -1    0    0  502  501  0.00000000000E+00  0.00000000000E+00  0.14748247049E+04  0.14748247049E+04  0.00000000000E+00 0.  1.
         21   -1    0    0  501  502 -0.00000000000E+00 -0.00000000000E+00 -0.37612026994E+02  0.37612026994E+02  0.00000000000E+00 0.  1.
      99926    2    1    2    0    0 -0.88817841970E-15  0.00000000000E+00  0.14372126779E+04  0.15124367319E+04  0.47104626784E+03 0.  0.
      99925    2    3    3    0    0  0.52850593309E+01 -0.11313688882E+03  0.70222596404E+03  0.75832741282E+03  0.26289022992E+03 0.  0.
         25    1    4    4    0    0  0.27931820447E+02 -0.88715004141E+02  0.41373416067E+03  0.44212441955E+03  0.12509000000E+03 0.  0.
         25    1    3    3    0    0 -0.52850593309E+01  0.11313688882E+03  0.73498671387E+03  0.75410931908E+03  0.12509000000E+03 0.  0.
         25    1    4    4    0    0 -0.22646761116E+02 -0.24421884678E+02  0.28849180337E+03  0.31620299327E+03  0.12509000000E+03 0.  0.
<mgrwt>
<rscale>  2 0.47104627E+03</rscale>
<asrwt>0</asrwt>
<pdfrwt beam="1">  1       21 0.21688595E+00 0.47104627E+03</pdfrwt>
<pdfrwt beam="2">  1       21 0.55311814E-02 0.47104627E+03</pdfrwt>
<totfact> 0.20764954E+04</totfact>
</mgrwt>
</event>
<event>
 7    0  0.4770865E-002  0.4155497E+03  0.7546771E-02  0.1038525E+00
         21   -1    0    0  502  501  0.00000000000E+00  0.00000000000E+00  0.13005093107E+04  0.13005093107E+04  0.00000000000E+00 0. -1.
         21   -1    0    0  501  502 -0.00000000000E+00 -0.00000000000E+00 -0.33194986258E+02  0.33194986258E+02  0.00000000000E+00 0. -1.
      99926    2    1    2    0    0  0.00000000000E+00  0.00000000000E+00  0.12673143244E+04  0.13337042970E+04  0.41554970195E+03 0.  0.
      99925    2    3    3    0    0  0.35530611224E+01 -0.32067912664E+02  0.63071387406E+03  0.68412857636E+03  0.26304171303E+03 0.  0.
         25    1    3    3    0    0 -0.35530611224E+01  0.32067912664E+02  0.63660045039E+03  0.64957572061E+03  0.12509000000E+03 0.  0.
         25    1    4    4    0    0 -0.19179355885E+02 -0.18382507511E+02  0.22573214840E+03  0.25943838420E+03  0.12509000000E+03 0.  0.
         25    1    4    4    0    0  0.22732417007E+02 -0.13685405153E+02  0.40498172566E+03  0.42469019216E+03  0.12509000000E+03 0.  0.
<mgrwt>
<rscale>  2 0.41554970E+03</rscale>
<asrwt>0</asrwt>
<pdfrwt beam="1">  1       21 0.19125134E+00 0.41554970E+03</pdfrwt>
<pdfrwt beam="2">  1       21 0.48816165E-02 0.41554970E+03</pdfrwt>
<totfact> 0.38741162E+04</totfact>
</mgrwt>
</event>
<event>
 7    0  0.4770865E-002  0.4508808E+03  0.7546771E-02  0.1027460E+00
         21   -1    0    0  502  501  0.00000000000E+00  0.00000000000E+00  0.23810929940E+03  0.23810929940E+03  0.00000000000E+00 0.  1.
         21   -1    0    0  501  502 -0.00000000000E+00 -0.00000000000E+00 -0.21344554904E+03  0.21344554904E+03  0.00000000000E+00 0.  1.
      99926    2    1    2    0    0  0.35527136788E-14  0.00000000000E+00  0.24663750359E+02  0.45155484844E+03  0.45088078310E+03 0.  0.
      99925    2    3    3    0    0  0.25917434750E+02 -0.10512627204E+03  0.30107071623E+02  0.28602423391E+03  0.26302125413E+03 0.  0.
         25    1    4    4    0    0  0.12538550147E+02 -0.79674538213E+02 -0.15879109257E+02  0.14968266930E+03  0.12509000000E+03 0.  0.
         25    1    4    4    0    0  0.13378884604E+02 -0.25451733832E+02  0.45986180880E+02  0.13634156461E+03  0.12509000000E+03 0.  0.
         25    1    3    3    0    0 -0.25917434750E+02  0.10512627204E+03 -0.54433212637E+01  0.16553061452E+03  0.12509000000E+03 0.  0.
<mgrwt>
<rscale>  2 0.45088078E+03</rscale>
<asrwt>0</asrwt>
<pdfrwt beam="1">  1       21 0.35016074E-01 0.45088078E+03</pdfrwt>
<pdfrwt beam="2">  1       21 0.31389051E-01 0.45088078E+03</pdfrwt>
<totfact> 0.71107429E+04</totfact>
</mgrwt>
</event>
<event>
 7    0  0.4770865E-002  0.4507959E+03  0.7546771E-02  0.1027485E+00
         21   -1    0    0  502  501  0.00000000000E+00  0.00000000000E+00  0.29881886068E+03  0.29881886068E+03  0.00000000000E+00 0.  1.
         21   -1    0    0  501  502 -0.00000000000E+00 -0.00000000000E+00 -0.17001683049E+03  0.17001683049E+03  0.00000000000E+00 0.  1.
      99926    2    1    2    0    0  0.00000000000E+00  0.53290705182E-14  0.12880203019E+03  0.46883569117E+03  0.45079589875E+03 0.  0.
      99925    2    3    3    0    0 -0.84244352162E+02  0.15354505533E+02  0.11331232756E+02  0.27705517062E+03  0.26324570086E+03 0.  0.
         25    1    4    4    0    0 -0.70899331336E+02  0.36705124013E+02 -0.45872942037E+01  0.14846727815E+03  0.12509000000E+03 0.  0.
         25    1    4    4    0    0 -0.13345020826E+02 -0.21350618480E+02  0.15918526960E+02  0.12858789247E+03  0.12509000000E+03 0.  0.
         25    1    3    3    0    0  0.84244352162E+02 -0.15354505533E+02  0.11747079744E+03  0.19178052055E+03  0.12509000000E+03 0.  0.
<mgrwt>
<rscale>  2 0.45079590E+03</rscale>
<asrwt>0</asrwt>
<pdfrwt beam="1">  1       21 0.43943950E-01 0.45079590E+03</pdfrwt>
<pdfrwt beam="2">  1       21 0.25002475E-01 0.45079590E+03</pdfrwt>
<totfact> 0.69822380E+04</totfact>
</mgrwt>
</event>
<event>
 7    0  0.4770865E-002  0.4564819E+03  0.7546771E-02  0.1025807E+00
         21   -1    0    0  502  501  0.00000000000E+00  0.00000000000E+00  0.16929926699E+03  0.16929926699E+03  0.00000000000E+00 0. -1.
         21   -1    0    0  501  502 -0.00000000000E+00 -0.00000000000E+00 -0.30770317520E+03  0.30770317520E+03  0.00000000000E+00 0. -1.
      99926    2    1    2    0    0  0.00000000000E+00  0.17763568394E-14 -0.13840390820E+03  0.47700244219E+03  0.45648185950E+03 0.  0.
      99925    2    3    3    0    0  0.45237702409E+02  0.13029317436E+02  0.22174278766E+02  0.26807883160E+03  0.26297974919E+03 0.  0.
         25    1    4    4    0    0 -0.10992492161E+02 -0.16183112332E+02  0.39135206949E+01  0.12667103755E+03  0.12509000000E+03 0.  0.
         25    1    3    3    0    0 -0.45237702409E+02 -0.13029317436E+02 -0.16057818697E+03  0.20892361059E+03  0.12509000000E+03 0.  0.
         25    1    4    4    0    0  0.56230194570E+02  0.29212429768E+02  0.18260758071E+02  0.14140779406E+03  0.12509000000E+03 0.  0.
<mgrwt>
<rscale>  2 0.45648186E+03</rscale>
<asrwt>0</asrwt>
<pdfrwt beam="1">  1       21 0.24896951E-01 0.45648186E+03</pdfrwt>
<pdfrwt beam="2">  1       21 0.45250467E-01 0.45648186E+03</pdfrwt>
<totfact> 0.66137717E+04</totfact>
</mgrwt>
</event>
<event>
 7    0  0.4770865E-002  0.4513778E+03  0.7546771E-02  0.1027312E+00
         21   -1    0    0  502  501  0.00000000000E+00  0.00000000000E+00  0.30268105869E+03  0.30268105869E+03  0.00000000000E+00 0. -1.
         21   -1    0    0  501  502 -0.00000000000E+00 -0.00000000000E+00 -0.16828099910E+03  0.16828099910E+03  0.00000000000E+00 0. -1.
      99926    2    1    2    0    0  0.14210854715E-13  0.14210854715E-13  0.13440005959E+03  0.47096205779E+03  0.45137776181E+03 0.  0.
      99925    2    3    3    0    0  0.65803925435E+02  0.86117730109E+02  0.66904760018E+02  0.29221770513E+03  0.26299908790E+03 0.  0.
         25    1    3    3    0    0 -0.65803925435E+02 -0.86117730109E+02  0.67495299576E+02  0.17874435266E+03  0.12509000000E+03 0.  0.
         25    1    4    4    0    0  0.58541222666E+02  0.29334591787E+02  0.62963443533E+02  0.15459461940E+03  0.12509000000E+03 0.  0.
         25    1    4    4    0    0  0.72627027691E+01  0.56783138322E+02  0.39413164848E+01  0.13762308573E+03  0.12509000000E+03 0.  0.
<mgrwt>
<rscale>  2 0.45137776E+03</rscale>
<asrwt>0</asrwt>
<pdfrwt beam="1">  1       21 0.44511920E-01 0.45137776E+03</pdfrwt>
<pdfrwt beam="2">  1       21 0.24747206E-01 0.45137776E+03</pdfrwt>
<totfact> 0.69335704E+04</totfact>
</mgrwt>
</event>
<event>
 7    0  0.4770865E-002  0.4561666E+03  0.7546771E-02  0.1025899E+00
         21   -1    0    0  502  501  0.00000000000E+00  0.00000000000E+00  0.74433625125E+02  0.74433625125E+02  0.00000000000E+00 0.  1.
         21   -1    0    0  501  502 -0.00000000000E+00 -0.00000000000E+00 -0.69890430341E+03  0.69890430341E+03  0.00000000000E+00 0.  1.
      99926    2    1    2    0    0  0.00000000000E+00  0.00000000000E+00 -0.62447067828E+03  0.77333792853E+03  0.45616655256E+03 0.  0.
      99925    2    3    3    0    0 -0.97578853381E+02  0.38448128839E+02 -0.31544095547E+03  0.42384290865E+03  0.26294471584E+03 0.  0.
         25    1    3    3    0    0  0.97578853381E+02 -0.38448128839E+02 -0.30902972282E+03  0.34949501988E+03  0.12509000000E+03 0.  0.
         25    1    4    4    0    0 -0.27869589227E+02  0.50558841486E+02 -0.17697024730E+03  0.22427413357E+03  0.12509000000E+03 0.  0.
         25    1    4    4    0    0 -0.69709264154E+02 -0.12110712648E+02 -0.13847070817E+03  0.19956877509E+03  0.12509000000E+03 0.  0.
<mgrwt>
<rscale>  2 0.45616655E+03</rscale>
<asrwt>0</asrwt>
<pdfrwt beam="1">  1       21 0.10946121E-01 0.45616655E+03</pdfrwt>
<pdfrwt beam="2">  1       21 0.10278004E+00 0.45616655E+03</pdfrwt>
<totfact> 0.48634571E+04</totfact>
</mgrwt>
</event>
<event>
 7    0  0.4770865E-002  0.4550192E+03  0.7546771E-02  0.1026236E+00
         21   -1    0    0  502  501  0.00000000000E+00  0.00000000000E+00  0.38691746166E+02  0.38691746166E+02  0.00000000000E+00 0.  1.
         21   -1    0    0  501  502 -0.00000000000E+00 -0.00000000000E+00 -0.13377690499E+04  0.13377690499E+04  0.00000000000E+00 0.  1.
      99926    2    1    2    0    0  0.35527136788E-14  0.00000000000E+00 -0.12990773037E+04  0.13764607961E+04  0.45501921062E+03 0.  0.
      99925    2    3    3    0    0  0.96244204389E+01  0.80116273358E+02 -0.10575893325E+04  0.10927792931E+04  0.26298315665E+03 0.  0.
         25    1    3    3    0    0 -0.96244204389E+01 -0.80116273358E+02 -0.24148797126E+03  0.28368150290E+03  0.12509000000E+03 0.  0.
         25    1    4    4    0    0 -0.24652078102E+02  0.21146175979E+02 -0.41850272668E+03  0.43800334023E+03  0.12509000000E+03 0.  0.
         25    1    4    4    0    0  0.34276498541E+02  0.58970097379E+02 -0.63908660577E+03  0.65477595291E+03  0.12509000000E+03 0.  0.
<mgrwt>
<rscale>  2 0.45501921E+03</rscale>
<asrwt>0</asrwt>
<pdfrwt beam="1">  1       21 0.56899631E-02 0.45501921E+03</pdfrwt>
<pdfrwt beam="2">  1       21 0.19673073E+00 0.45501921E+03</pdfrwt>
<totfact> 0.26962072E+04</totfact>
</mgrwt>
</event>
<event>
 7    0  0.4770865E-002  0.4646181E+03  0.7546771E-02  0.1023450E+00
         21   -1    0    0  502  501  0.00000000000E+00  0.00000000000E+00  0.37718731934E+02  0.37718731934E+02  0.00000000000E+00 0. -1.
         21   -1    0    0  501  502 -0.00000000000E+00 -0.00000000000E+00 -0.14307874908E+04  0.14307874908E+04  0.00000000000E+00 0. -1.
      99926    2    1    2    0    0  0.00000000000E+00 -0.35527136788E-14 -0.13930687589E+04  0.14685062227E+04  0.46461807895E+03 0.  0.
      99925    2    3    3    0    0 -0.11575355474E+03  0.31561480505E+02 -0.93716541571E+03  0.98076614966E+03  0.26311254516E+03 0.  0.
         25    1    3    3    0    0  0.11575355474E+03 -0.31561480505E+02 -0.45590334317E+03  0.48774007309E+03  0.12509000000E+03 0.  0.
         25    1    4    4    0    0 -0.18991501765E+02  0.24451634431E+02 -0.47856332944E+03  0.49560965280E+03  0.12509000000E+03 0.  0.
         25    1    4    4    0    0 -0.96762052979E+02  0.71098460743E+01 -0.45860208627E+03  0.48515649685E+03  0.12509000000E+03 0.  0.
<mgrwt>
<rscale>  2 0.46461808E+03</rscale>
<asrwt>0</asrwt>
<pdfrwt beam="1">  1       21 0.55468721E-02 0.46461808E+03</pdfrwt>
<pdfrwt beam="2">  1       21 0.21040993E+00 0.46461808E+03</pdfrwt>
<totfact> 0.22809268E+04</totfact>
</mgrwt>
</event>
<event>
 7    0  0.4770865E-002  0.4527798E+03  0.7546771E-02  0.1026896E+00
         21   -1    0    0  502  501  0.00000000000E+00  0.00000000000E+00  0.17942782575E+03  0.17942782575E+03  0.00000000000E+00 0.  1.
         21   -1    0    0  501  502 -0.00000000000E+00 -0.00000000000E+00 -0.28564342779E+03  0.28564342779E+03  0.00000000000E+00 0.  1.
      99926    2    1    2    0    0  0.00000000000E+00  0.00000000000E+00 -0.10621560204E+03  0.46507125355E+03  0.45277976628E+03 0.  0.
      99925    2    3    3    0    0 -0.69871575819E+02  0.83095939533E+02 -0.42364297175E+02  0.28755655132E+03  0.26288222506E+03 0.  0.
         25    1    3    3    0    0  0.69871575819E+02 -0.83095939533E+02 -0.63851304869E+02  0.17751470223E+03  0.12509000000E+03 0.  0.
         25    1    4    4    0    0  0.26660196716E+01  0.32839628927E+02 -0.36294675799E+02  0.13435162999E+03  0.12509000000E+03 0.  0.
         25    1    4    4    0    0 -0.72537595491E+02  0.50256310606E+02 -0.60696213758E+01  0.15320492133E+03  0.12509000000E+03 0.  0.
<mgrwt>
<rscale>  2 0.45277977E+03</rscale>
<asrwt>0</asrwt>
<pdfrwt beam="1">  1       21 0.26386445E-01 0.45277977E+03</pdfrwt>
<pdfrwt beam="2">  1       21 0.42006386E-01 0.45277977E+03</pdfrwt>
<totfact> 0.69011689E+04</totfact>
</mgrwt>
</event>
<event>
 7    0  0.4770865E-002  0.4468448E+03  0.7546771E-02  0.1028667E+00
         21   -1    0    0  502  501  0.00000000000E+00  0.00000000000E+00  0.12033267428E+03  0.12033267428E+03  0.00000000000E+00 0.  1.
         21   -1    0    0  501  502 -0.00000000000E+00 -0.00000000000E+00 -0.41482979182E+03  0.41482979182E+03  0.00000000000E+00 0.  1.
      99926    2    1    2    0    0  0.00000000000E+00  0.00000000000E+00 -0.29449711754E+03  0.53516246610E+03  0.44684484206E+03 0.  0.
      99925    2    3    3    0    0 -0.80986468983E+02  0.66542007768E+02 -0.19968215883E+03  0.34641917098E+03  0.26295746902E+03 0.  0.
         25    1    3    3    0    0  0.80986468983E+02 -0.66542007768E+02 -0.94814958713E+02  0.18874329512E+03  0.12509000000E+03 0.  0.
         25    1    4    4    0    0 -0.23313898315E+02  0.39151321691E+02 -0.14184286094E+03  0.19453346536E+03  0.12509000000E+03 0.  0.
         25    1    4    4    0    0 -0.57672570668E+02  0.27390686077E+02 -0.57839297886E+02  0.15188570562E+03  0.12509000000E+03 0.  0.
<mgrwt>
<rscale>  2 0.44684484E+03</rscale>
<asrwt>0</asrwt>
<pdfrwt beam="1">  1       21 0.17695982E-01 0.44684484E+03</pdfrwt>
<pdfrwt beam="2">  1       21 0.61004380E-01 0.44684484E+03</pdfrwt>
<totfact> 0.67084070E+04</totfact>
</mgrwt>
</event>
<event>
 7    0  0.4770865E-002  0.4503050E+03  0.7546771E-02  0.1027631E+00
         21   -1    0    0  502  501  0.00000000000E+00  0.00000000000E+00  0.12131179901E+03  0.12131179901E+03  0.00000000000E+00 0. -1.
         21   -1    0    0  501  502 -0.00000000000E+00 -0.00000000000E+00 -0.41787889968E+03  0.41787889968E+03  0.00000000000E+00 0. -1.
      99926    2    1    2    0    0  0.00000000000E+00  0.00000000000E+00 -0.29656710067E+03  0.53919069869E+03  0.45030496816E+03 0.  0.
      99925    2    3    3    0    0  0.46835097610E+02 -0.46187629299E+02 -0.83765185434E+02  0.28373231324E+03  0.26298402198E+03 0.  0.
         25    1    3    3    0    0 -0.46835097610E+02  0.46187629299E+02 -0.21280191524E+03  0.25545838545E+03  0.12509000000E+03 0.  0.
         25    1    4    4    0    0  0.16710338496E+02 -0.28355986289E+02 -0.32940848789E+00  0.12934803431E+03  0.12509000000E+03 0.  0.
         25    1    4    4    0    0  0.30124759114E+02 -0.17831643010E+02 -0.83435776946E+02  0.15438427892E+03  0.12509000000E+03 0.  0.
<mgrwt>
<rscale>  2 0.45030497E+03</rscale>
<asrwt>0</asrwt>
<pdfrwt beam="1">  1       21 0.17839971E-01 0.45030497E+03</pdfrwt>
<pdfrwt beam="2">  1       21 0.61452778E-01 0.45030497E+03</pdfrwt>
<totfact> 0.64967008E+04</totfact>
</mgrwt>
</event>
<event>
 7    0  0.4770865E-002  0.4445485E+03  0.7546771E-02  0.1029360E+00
         21   -1    0    0  502  501  0.00000000000E+00  0.00000000000E+00  0.78980900997E+03  0.78980900997E+03  0.00000000000E+00 0. -1.
         21   -1    0    0  501  502 -0.00000000000E+00 -0.00000000000E+00 -0.62554154810E+02  0.62554154810E+02  0.00000000000E+00 0. -1.
      99926    2    1    2    0    0  0.88817841970E-15 -0.14210854715E-13  0.72725485516E+03  0.85236316478E+03  0.44454846791E+03 0.  0.
      99925    2    3    3    0    0 -0.51330737943E+01 -0.86002291248E+02  0.35205458994E+03  0.44758484314E+03  0.26261571729E+03 0.  0.
         25    1    4    4    0    0  0.12755310251E+02 -0.46684693229E+01  0.17061513628E+03  0.21199416353E+03  0.12509000000E+03 0.  0.
         25    1    3    3    0    0  0.51330737943E+01  0.86002291248E+02  0.37520026522E+03  0.40477832164E+03  0.12509000000E+03 0.  0.
         25    1    4    4    0    0 -0.17888384045E+02 -0.81333821925E+02  0.18143945366E+03  0.23559067961E+03  0.12509000000E+03 0.  0.
<mgrwt>
<rscale>  2 0.44454847E+03</rscale>
<asrwt>0</asrwt>
<pdfrwt beam="1">  1       21 0.11614838E+00 0.44454847E+03</pdfrwt>
<pdfrwt beam="2">  1       21 0.91991409E-02 0.44454847E+03</pdfrwt>
<totfact> 0.49248966E+04</totfact>
</mgrwt>
</event>
<event>
 7    0  0.4770865E-002  0.4528895E+03  0.7546771E-02  0.1026864E+00
         21   -1    0    0  502  501  0.00000000000E+00  0.00000000000E+00  0.79773225219E+02  0.79773225219E+02  0.00000000000E+00 0. -1.
         21   -1    0    0  501  502 -0.00000000000E+00 -0.00000000000E+00 -0.64278743089E+03  0.64278743089E+03  0.00000000000E+00 0. -1.
      99926    2    1    2    0    0  0.00000000000E+00  0.00000000000E+00 -0.56301420567E+03  0.72256065611E+03  0.45288950746E+03 0.  0.
      99925    2    3    3    0    0 -0.65443381369E+02  0.32931603689E+02 -0.22143300371E+03  0.35149118509E+03  0.26295655797E+03 0.  0.
         25    1    4    4    0    0 -0.28372767902E+02  0.55241729680E+02 -0.12833334082E+03  0.18966712188E+03  0.12509000000E+03 0.  0.
         25    1    3    3    0    0  0.65443381369E+02 -0.32931603689E+02 -0.34158120196E+03  0.37106947102E+03  0.12509000000E+03 0.  0.
         25    1    4    4    0    0 -0.37070613467E+02 -0.22310125991E+02 -0.93099662890E+02  0.16182406321E+03  0.12509000000E+03 0.  0.
<mgrwt>
<rscale>  2 0.45288951E+03</rscale>
<asrwt>0</asrwt>
<pdfrwt beam="1">  1       21 0.11731357E-01 0.45288951E+03</pdfrwt>
<pdfrwt beam="2">  1       21 0.94527563E-01 0.45288951E+03</pdfrwt>
<totfact> 0.52562226E+04</totfact>
</mgrwt>
</event>
<event>
 7    0  0.4770865E-002  0.4428103E+03  0.7546771E-02  0.1029888E+00
         21   -1    0    0  502  501  0.00000000000E+00  0.00000000000E+00  0.15656962247E+03  0.15656962247E+03  0.00000000000E+00 0.  1.
         21   -1    0    0  501  502 -0.00000000000E+00 -0.00000000000E+00 -0.31308907706E+03  0.31308907706E+03  0.00000000000E+00 0.  1.
      99926    2    1    2    0    0  0.00000000000E+00 -0.35527136788E-14 -0.15651945459E+03  0.46965869953E+03  0.44281029164E+03 0.  0.
      99925    2    3    3    0    0  0.47954365494E+02 -0.16719479819E+02 -0.19261563932E+03  0.32991033701E+03  0.26298456947E+03 0.  0.
         25    1    4    4    0    0  0.94460591089E+01 -0.46097198256E+02 -0.92756803561E+02  0.16268224373E+03  0.12509000000E+03 0.  0.
         25    1    4    4    0    0  0.38508306385E+02  0.29377718437E+02 -0.99858835756E+02  0.16722809327E+03  0.12509000000E+03 0.  0.
         25    1    3    3    0    0 -0.47954365494E+02  0.16719479819E+02  0.36096184731E+02  0.13974836252E+03  0.12509000000E+03 0.  0.
<mgrwt>
<rscale>  2 0.44281029E+03</rscale>
<asrwt>0</asrwt>
<pdfrwt beam="1">  1       21 0.23024945E-01 0.44281029E+03</pdfrwt>
<pdfrwt beam="2">  1       21 0.46042511E-01 0.44281029E+03</pdfrwt>
<totfact> 0.74402424E+04</totfact>
</mgrwt>
</event>
<event>
 7    0  0.4770865E-002  0.4609570E+03  0.7546771E-02  0.1024504E+00
         21   -1    0    0  502  501  0.00000000000E+00  0.00000000000E+00  0.51155262517E+02  0.51155262517E+02  0.00000000000E+00 0.  1.
         21   -1    0    0  501  502 -0.00000000000E+00 -0.00000000000E+00 -0.10384141393E+04  0.10384141393E+04  0.00000000000E+00 0.  1.
      99926    2    1    2    0    0  0.00000000000E+00 -0.14210854715E-13 -0.98725887674E+03  0.10895694018E+04  0.46095703875E+03 0.  0.
      99925    2    3    3    0    0  0.61615880198E+02  0.99105680203E+02 -0.56649614914E+03  0.63535884093E+03  0.26295345067E+03 0.  0.
         25    1    3    3    0    0 -0.61615880198E+02 -0.99105680203E+02 -0.42076272760E+03  0.45421056084E+03  0.12509000000E+03 0.  0.
         25    1    4    4    0    0  0.65256713766E+02  0.62177478636E+02 -0.26054132533E+03  0.30274373296E+03  0.12509000000E+03 0.  0.
         25    1    4    4    0    0 -0.36408335681E+01  0.36928201568E+02 -0.30595482381E+03  0.33261510797E+03  0.12509000000E+03 0.  0.
<mgrwt>
<rscale>  2 0.46095704E+03</rscale>
<asrwt>0</asrwt>
<pdfrwt beam="1">  1       21 0.75228337E-02 0.46095704E+03</pdfrwt>
<pdfrwt beam="2">  1       21 0.15270794E+00 0.46095704E+03</pdfrwt>
<totfact> 0.34238841E+04</totfact>
</mgrwt>
</event>
<event>
 7    0  0.4770865E-002  0.4552751E+03  0.7546771E-02  0.1026161E+00
         21   -1    0    0  502  501  0.00000000000E+00  0.00000000000E+00  0.15408443121E+03  0.15408443121E+03  0.00000000000E+00 0.  1.
         21   -1    0    0  501  502 -0.00000000000E+00 -0.00000000000E+00 -0.33630165094E+03  0.33630165094E+03  0.00000000000E+00 0.  1.
      99926    2    1    2    0    0  0.00000000000E+00  0.71054273576E-14 -0.18221721972E+03  0.49038608215E+03  0.45527507553E+03 0.  0.
      99925    2    3    3    0    0  0.62623706879E+02 -0.60012264350E+02 -0.35967221461E+02  0.27929422862E+03  0.26303692627E+03 0.  0.
         25    1    4    4    0    0  0.75916740597E+00 -0.56461414367E+02 -0.22065234585E+02  0.13900665569E+03  0.12509000000E+03 0.  0.
         25    1    4    4    0    0  0.61864539474E+02 -0.35508499834E+01 -0.13901986876E+02  0.14028757293E+03  0.12509000000E+03 0.  0.
         25    1    3    3    0    0 -0.62623706879E+02  0.60012264350E+02 -0.14624999826E+03  0.21109185353E+03  0.12509000000E+03 0.  0.
<mgrwt>
<rscale>  2 0.45527508E+03</rscale>
<asrwt>0</asrwt>
<pdfrwt beam="1">  1       21 0.22659475E-01 0.45527508E+03</pdfrwt>
<pdfrwt beam="2">  1       21 0.49456125E-01 0.45527508E+03</pdfrwt>
<totfact> 0.65807662E+04</totfact>
</mgrwt>
</event>
<event>
 7    0  0.4770865E-002  0.4566305E+03  0.7546771E-02  0.1025763E+00
         21   -1    0    0  502  501  0.00000000000E+00  0.00000000000E+00  0.37316396282E+03  0.37316396282E+03  0.00000000000E+00 0.  1.
         21   -1    0    0  501  502 -0.00000000000E+00 -0.00000000000E+00 -0.13969152732E+03  0.13969152732E+03  0.00000000000E+00 0.  1.
      99926    2    1    2    0    0  0.00000000000E+00  0.14210854715E-13  0.23347243550E+03  0.51285549014E+03  0.45663045850E+03 0.  0.
      99925    2    3    3    0    0  0.64977700959E+02 -0.94509593994E+02  0.14686457646E+03  0.32232309309E+03  0.26299963410E+03 0.  0.
         25    1    3    3    0    0 -0.64977700959E+02  0.94509593994E+02  0.86607859042E+02  0.19053239705E+03  0.12509000000E+03 0.  0.
         25    1    4    4    0    0  0.61910544907E+02 -0.22058017737E+02  0.86208386604E+02  0.16552602737E+03  0.12509000000E+03 0.  0.
         25    1    4    4    0    0  0.30671560525E+01 -0.72451576257E+02  0.60656189855E+02  0.15679706571E+03  0.12509000000E+03 0.  0.
<mgrwt>
<rscale>  2 0.45663046E+03</rscale>
<asrwt>0</asrwt>
<pdfrwt beam="1">  1       21 0.54877053E-01 0.45663046E+03</pdfrwt>
<pdfrwt beam="2">  1       21 0.20542872E-01 0.45663046E+03</pdfrwt>
<totfact> 0.63550363E+04</totfact>
</mgrwt>
</event>
<event>
 7    0  0.4770865E-002  0.4532375E+03  0.7546771E-02  0.1026761E+00
         21   -1    0    0  502  501  0.00000000000E+00  0.00000000000E+00  0.88539294715E+02  0.88539294715E+02  0.00000000000E+00 0. -1.
         21   -1    0    0  501  502 -0.00000000000E+00 -0.00000000000E+00 -0.58003693646E+03  0.58003693646E+03  0.00000000000E+00 0. -1.
      99926    2    1    2    0    0  0.00000000000E+00  0.00000000000E+00 -0.49149764175E+03  0.66857623118E+03  0.45323751505E+03 0.  0.
      99925    2    3    3    0    0  0.72754907304E+02 -0.77924353922E+02 -0.26154495368E+03  0.38592586709E+03  0.26299720649E+03 0.  0.
         25    1    3    3    0    0 -0.72754907304E+02  0.77924353922E+02 -0.22995268807E+03  0.28265036409E+03  0.12509000000E+03 0.  0.
         25    1    4    4    0    0  0.14136839711E+02 -0.44276827399E+02 -0.17276852401E+03  0.21830428001E+03  0.12509000000E+03 0.  0.
         25    1    4    4    0    0  0.58618067593E+02 -0.33647526523E+02 -0.88776429669E+02  0.16762158708E+03  0.12509000000E+03 0.  0.
<mgrwt>
<rscale>  2 0.45323752E+03</rscale>
<asrwt>0</asrwt>
<pdfrwt beam="1">  1       21 0.13020485E-01 0.45323752E+03</pdfrwt>
<pdfrwt beam="2">  1       21 0.85299546E-01 0.45323752E+03</pdfrwt>
<totfact> 0.55408334E+04</totfact>
</mgrwt>
</event>
<event>
 7    0  0.4770865E-002  0.4549385E+03  0.7546771E-02  0.1026259E+00
         21   -1    0    0  502  501  0.00000000000E+00  0.00000000000E+00  0.44307210984E+02  0.44307210984E+02  0.00000000000E+00 0.  1.
         21   -1    0    0  501  502 -0.00000000000E+00 -0.00000000000E+00 -0.11678065749E+04  0.11678065749E+04  0.00000000000E+00 0.  1.
      99926    2    1    2    0    0  0.71054273576E-14  0.00000000000E+00 -0.11234993639E+04  0.12121137859E+04  0.45493846750E+03 0.  0.
      99925    2    3    3    0    0 -0.55111022070E+02  0.64244927725E+02 -0.90696469506E+03  0.94810733443E+03  0.26297894216E+03 0.  0.
         25    1    3    3    0    0  0.55111022070E+02 -0.64244927725E+02 -0.21653466884E+03  0.26400645144E+03  0.12509000000E+03 0.  0.
         25    1    4    4    0    0 -0.53020377406E+02  0.11016076556E+02 -0.53438851324E+03  0.55149896242E+03  0.12509000000E+03 0.  0.
         25    1    4    4    0    0 -0.20906446641E+01  0.53228851170E+02 -0.37257618183E+03  0.39660837202E+03  0.12509000000E+03 0.  0.
<mgrwt>
<rscale>  2 0.45493847E+03</rscale>
<asrwt>0</asrwt>
<pdfrwt beam="1">  1       21 0.65157671E-02 0.45493847E+03</pdfrwt>
<pdfrwt beam="2">  1       21 0.17173624E+00 0.45493847E+03</pdfrwt>
<totfact> 0.31789589E+04</totfact>
</mgrwt>
</event>
<event>
 7    0  0.4770865E-002  0.4578214E+03  0.7546771E-02  0.1025415E+00
         21   -1    0    0  502  501  0.00000000000E+00  0.00000000000E+00  0.39754504323E+02  0.39754504323E+02  0.00000000000E+00 0. -1.
         21   -1    0    0  501  502 -0.00000000000E+00 -0.00000000000E+00 -0.13180922587E+04  0.13180922587E+04  0.00000000000E+00 0. -1.
      99926    2    1    2    0    0  0.00000000000E+00  0.00000000000E+00 -0.12783377544E+04  0.13578467631E+04  0.45782138176E+03 0.  0.
      99925    2    3    3    0    0 -0.52071880371E+02 -0.10200748416E+03 -0.85095529432E+03  0.89804214929E+03  0.26313073065E+03 0.  0.
         25    1    3    3    0    0  0.52071880371E+02  0.10200748416E+03 -0.42738246009E+03  0.45980461377E+03  0.12509000000E+03 0.  0.
         25    1    4    4    0    0 -0.19548090814E+02 -0.66734251541E+02 -0.32181808715E+03  0.35220729337E+03  0.12509000000E+03 0.  0.
         25    1    4    4    0    0 -0.32523789557E+02 -0.35273232624E+02 -0.52913720717E+03  0.54583485592E+03  0.12509000000E+03 0.  0.
<mgrwt>
<rscale>  2 0.45782138E+03</rscale>
<asrwt>0</asrwt>
<pdfrwt beam="1">  1       21 0.58462516E-02 0.45782138E+03</pdfrwt>
<pdfrwt beam="2">  1       21 0.19383706E+00 0.45782138E+03</pdfrwt>
<totfact> 0.26882893E+04</totfact>
</mgrwt>
</event>
<event>
 7    0  0.4770865E-002  0.4183371E+03  0.7546771E-02  0.1037609E+00
         21   -1    0    0  502  501  0.00000000000E+00  0.00000000000E+00  0.39152214795E+03  0.39152214795E+03  0.00000000000E+00 0. -1.
         21   -1    0    0  501  502 -0.00000000000E+00 -0.00000000000E+00 -0.11174716018E+03  0.11174716018E+03  0.00000000000E+00 0. -1.
      99926    2    1    2    0    0  0.00000000000E+00  0.35527136788E-14  0.27977498777E+03  0.50326930813E+03  0.41833712807E+03 0.  0.
      99925    2    3    3    0    0 -0.56891339328E+02 -0.17670033483E+02  0.13067103496E+03  0.29972975075E+03  0.26308582162E+03 0.  0.
         25    1    4    4    0    0 -0.41886979499E+02  0.27178171220E+02  0.80417157150E+02  0.15686809525E+03  0.12509000000E+03 0.  0.
         25    1    4    4    0    0 -0.15004359829E+02 -0.44848204703E+02  0.50253877814E+02  0.14286165551E+03  0.12509000000E+03 0.  0.
         25    1    3    3    0    0  0.56891339328E+02  0.17670033483E+02  0.14910395280E+03  0.20353955737E+03  0.12509000000E+03 0.  0.
<mgrwt>
<rscale>  2 0.41833713E+03</rscale>
<asrwt>0</asrwt>
<pdfrwt beam="1">  1       21 0.57576786E-01 0.41833713E+03</pdfrwt>
<pdfrwt beam="2">  1       21 0.16433406E-01 0.41833713E+03</pdfrwt>
<totfact> 0.87959140E+04</totfact>
</mgrwt>
</event>
<event>
 7    0  0.4770865E-002  0.4577492E+03  0.7546771E-02  0.1025436E+00
         21   -1    0    0  502  501  0.00000000000E+00  0.00000000000E+00  0.81855039346E+02  0.81855039346E+02  0.00000000000E+00 0. -1.
         21   -1    0    0  501  502 -0.00000000000E+00 -0.00000000000E+00 -0.63995540612E+03  0.63995540612E+03  0.00000000000E+00 0. -1.
      99926    2    1    2    0    0  0.00000000000E+00  0.00000000000E+00 -0.55810036677E+03  0.72181044546E+03  0.45774916689E+03 0.  0.
      99925    2    3    3    0    0  0.92153079457E+02  0.14111506099E+02 -0.24213598525E+03  0.36942951076E+03  0.26297719180E+03 0.  0.
         25    1    4    4    0    0  0.53704420263E+02  0.19030319993E+00 -0.17493206635E+03  0.22165950670E+03  0.12509000000E+03 0.  0.
         25    1    4    4    0    0  0.38448659194E+02  0.13921202899E+02 -0.67203918904E+02  0.14777000406E+03  0.12509000000E+03 0.  0.
         25    1    3    3    0    0 -0.92153079457E+02 -0.14111506099E+02 -0.31596438152E+03  0.35238093471E+03  0.12509000000E+03 0.  0.
<mgrwt>
<rscale>  2 0.45774917E+03</rscale>
<asrwt>0</asrwt>
<pdfrwt beam="1">  1       21 0.12037506E-01 0.45774917E+03</pdfrwt>
<pdfrwt beam="2">  1       21 0.94111087E-01 0.45774917E+03</pdfrwt>
<totfact> 0.50631077E+04</totfact>
</mgrwt>
</event>
<event>
 6    0  0.4770865E-002  0.4479265E+03  0.7546771E-02  0.1028342E+00
         21   -1    0    0  502  501  0.00000000000E+00  0.00000000000E+00  0.10766518550E+03  0.10766518550E+03  0.00000000000E+00 0. -1.
         21   -1    0    0  501  502 -0.00000000000E+00 -0.00000000000E+00 -0.46588453256E+03  0.46588453256E+03  0.00000000000E+00 0. -1.
      99926    2    1    2    0    0  0.00000000000E+00  0.00000000000E+00 -0.35821934706E+03  0.57354971806E+03  0.44792653245E+03 0.  0.
         25    1    3    3    0    0 -0.61422200253E+02  0.32722775593E+01 -0.85736803611E+02  0.16365115972E+03  0.12509000000E+03 0.  0.
         25    1    3    3    0    0  0.47123904130E+02  0.32768146906E+01 -0.24759143006E+03  0.28139016364E+03  0.12509000000E+03 0.  0.
         25    1    3    3    0    0  0.14298296123E+02 -0.65490922500E+01 -0.24891113392E+02  0.12850839470E+03  0.12509000000E+03 0.  0.
<mgrwt>
<rscale>  2 0.44792653E+03</rscale>
<asrwt>0</asrwt>
<pdfrwt beam="1">  1       21 0.15833116E-01 0.44792653E+03</pdfrwt>
<pdfrwt beam="2">  1       21 0.68512430E-01 0.44792653E+03</pdfrwt>
<totfact> 0.63832525E+04</totfact>
</mgrwt>
</event>
<event>
 7    0  0.4770865E-002  0.4567171E+03  0.7546771E-02  0.1025738E+00
         21   -1    0    0  502  501  0.00000000000E+00  0.00000000000E+00  0.45386913067E+02  0.45386913067E+02  0.00000000000E+00 0.  1.
         21   -1    0    0  501  502 -0.00000000000E+00 -0.00000000000E+00 -0.11489575789E+04  0.11489575789E+04  0.00000000000E+00 0.  1.
      99926    2    1    2    0    0  0.00000000000E+00  0.00000000000E+00 -0.11035706658E+04  0.11943444920E+04  0.45671714551E+03 0.  0.
      99925    2    3    3    0    0  0.87628327119E+02 -0.49503777089E+02 -0.83729699552E+03  0.88341279004E+03  0.26310178875E+03 0.  0.
         25    1    3    3    0    0 -0.87628327119E+02  0.49503777089E+02 -0.26627367031E+03  0.31093170192E+03  0.12509000000E+03 0.  0.
         25    1    4    4    0    0  0.81595416691E+02 -0.73109700064E+01 -0.44890627964E+03  0.47315496225E+03  0.12509000000E+03 0.  0.
         25    1    4    4    0    0  0.60329104280E+01 -0.42192807082E+02 -0.38839071588E+03  0.41025782779E+03  0.12509000000E+03 0.  0.
<mgrwt>
<rscale>  2 0.45671715E+03</rscale>
<asrwt>0</asrwt>
<pdfrwt beam="1">  1       21 0.66745466E-02 0.45671715E+03</pdfrwt>
<pdfrwt beam="2">  1       21 0.16896433E+00 0.45671715E+03</pdfrwt>
<totfact> 0.31906743E+04</totfact>
</mgrwt>
</event>
<event>
 7    0  0.4770865E-002  0.4642583E+03  0.7546771E-02  0.1023553E+00
         21   -1    0    0  502  501  0.00000000000E+00  0.00000000000E+00  0.59272413194E+02  0.59272413194E+02  0.00000000000E+00 0. -1.
         21   -1    0    0  501  502 -0.00000000000E+00 -0.00000000000E+00 -0.90908955270E+03  0.90908955270E+03  0.00000000000E+00 0. -1.
      99926    2    1    2    0    0  0.00000000000E+00  0.00000000000E+00 -0.84981713951E+03  0.96836196590E+03  0.46425825399E+03 0.  0.
      99925    2    3    3    0    0 -0.59818180782E+02 -0.37305469603E+02 -0.32358428567E+03  0.42289112582E+03  0.26298327238E+03 0.  0.
         25    1    4    4    0    0 -0.64349520158E+02 -0.42384413511E+02 -0.17962030324E+03  0.23205228008E+03  0.12509000000E+03 0.  0.
         25    1    4    4    0    0  0.45313393757E+01  0.50789439080E+01 -0.14396398243E+03  0.19083884574E+03  0.12509000000E+03 0.  0.
         25    1    3    3    0    0  0.59818180782E+02  0.37305469603E+02 -0.52623285384E+03  0.54547084008E+03  0.12509000000E+03 0.  0.
<mgrwt>
<rscale>  2 0.46425825E+03</rscale>
<asrwt>0</asrwt>
<pdfrwt beam="1">  1       21 0.87165325E-02 0.46425825E+03</pdfrwt>
<pdfrwt beam="2">  1       21 0.13368962E+00 0.46425825E+03</pdfrwt>
<totfact> 0.37609123E+04</totfact>
</mgrwt>
</event>
<event>
 7    0  0.4770865E-002  0.4547159E+03  0.7546771E-02  0.1026325E+00
         21   -1    0    0  502  501  0.00000000000E+00  0.00000000000E+00  0.65163095394E+02  0.65163095394E+02  0.00000000000E+00 0. -1.
         21   -1    0    0  501  502 -0.00000000000E+00 -0.00000000000E+00 -0.79326547117E+03  0.79326547117E+03  0.00000000000E+00 0. -1.
      99926    2    1    2    0    0  0.14210854715E-13  0.00000000000E+00 -0.72810237577E+03  0.85842856656E+03  0.45471588303E+03 0.  0.
      99925    2    3    3    0    0  0.10059045857E+03 -0.48697092011E+02 -0.49056373827E+03  0.56763317538E+03  0.26280181384E+03 0.  0.
         25    1    4    4    0    0  0.76121943978E+02 -0.28955265252E+02 -0.32599116391E+03  0.35853968370E+03  0.12509000000E+03 0.  0.
         25    1    4    4    0    0  0.24468514596E+02 -0.19741826759E+02 -0.16457257436E+03  0.20909349168E+03  0.12509000000E+03 0.  0.
         25    1    3    3    0    0 -0.10059045857E+03  0.48697092011E+02 -0.23753863750E+03  0.29079539118E+03  0.12509000000E+03 0.  0.
<mgrwt>
<rscale>  2 0.45471588E+03</rscale>
<asrwt>0</asrwt>
<pdfrwt beam="1">  1       21 0.95828081E-02 0.45471588E+03</pdfrwt>
<pdfrwt beam="2">  1       21 0.11665669E+00 0.45471588E+03</pdfrwt>
<totfact> 0.45165207E+04</totfact>
</mgrwt>
</event>
<event>
 7    0  0.4770865E-002  0.4528533E+03  0.7546771E-02  0.1026875E+00
         21   -1    0    0  502  501  0.00000000000E+00  0.00000000000E+00  0.21452578332E+04  0.21452578332E+04  0.00000000000E+00 0.  1.
         21   -1    0    0  501  502 -0.00000000000E+00 -0.00000000000E+00 -0.23898776864E+02  0.23898776864E+02  0.00000000000E+00 0.  1.
      99926    2    1    2    0    0  0.00000000000E+00  0.14210854715E-13  0.21213590564E+04  0.21691566101E+04  0.45285334611E+03 0.  0.
      99925    2    3    3    0    0 -0.51905395501E+02  0.97572927018E+02  0.13874764474E+04  0.14165306486E+04  0.26316067332E+03 0.  0.
         25    1    3    3    0    0  0.51905395501E+02 -0.97572927018E+02  0.73388260892E+03  0.75262596152E+03  0.12509000000E+03 0.  0.
         25    1    4    4    0    0 -0.68586868428E+01  0.79091063154E+02  0.62426263543E+03  0.64160251243E+03  0.12509000000E+03 0.  0.
         25    1    4    4    0    0 -0.45046708658E+02  0.18481863864E+02  0.76321381202E+03  0.77492813616E+03  0.12509000000E+03 0.  0.
<mgrwt>
<rscale>  2 0.45285335E+03</rscale>
<asrwt>0</asrwt>
<pdfrwt beam="1">  1       21 0.31547896E+00 0.45285335E+03</pdfrwt>
<pdfrwt beam="2">  1       21 0.35145275E-02 0.45285335E+03</pdfrwt>
<totfact> 0.11327136E+04</totfact>
</mgrwt>
</event>
<event>
 7    0  0.4770865E-002  0.4529267E+03  0.7546771E-02  0.1026853E+00
         21   -1    0    0  502  501  0.00000000000E+00  0.00000000000E+00  0.92418858956E+03  0.92418858956E+03  0.00000000000E+00 0. -1.
         21   -1    0    0  501  502 -0.00000000000E+00 -0.00000000000E+00 -0.55492631004E+02  0.55492631004E+02  0.00000000000E+00 0. -1.
      99926    2    1    2    0    0  0.00000000000E+00 -0.71054273576E-14  0.86869595856E+03  0.97968122056E+03  0.45292673305E+03 0.  0.
      99925    2    3    3    0    0 -0.37580722777E+02 -0.57268209979E+02  0.73715807896E+03  0.78566658074E+03  0.26301707951E+03 0.  0.
         25    1    4    4    0    0 -0.22802225765E+02 -0.56219888351E+02  0.29862476798E+03  0.32940078551E+03  0.12509000000E+03 0.  0.
         25    1    3    3    0    0  0.37580722777E+02  0.57268209979E+02  0.13153787960E+03  0.19401463983E+03  0.12509000000E+03 0.  0.
         25    1    4    4    0    0 -0.14778497012E+02 -0.10483216282E+01  0.43853331098E+03  0.45626579522E+03  0.12509000000E+03 0.  0.
<mgrwt>
<rscale>  2 0.45292673E+03</rscale>
<asrwt>0</asrwt>
<pdfrwt beam="1">  1       21 0.13591008E+00 0.45292673E+03</pdfrwt>
<pdfrwt beam="2">  1       21 0.81606816E-02 0.45292673E+03</pdfrwt>
<totfact> 0.40615863E+04</totfact>
</mgrwt>
</event>
<event>
 7    0  0.4770865E-002  0.4537131E+03  0.7546771E-02  0.1026621E+00
         21   -1    0    0  502  501  0.00000000000E+00  0.00000000000E+00  0.44947024318E+02  0.44947024318E+02  0.00000000000E+00 0. -1.
         21   -1    0    0  501  502 -0.00000000000E+00 -0.00000000000E+00 -0.11449900817E+04  0.11449900817E+04  0.00000000000E+00 0. -1.
      99926    2    1    2    0    0  0.00000000000E+00  0.00000000000E+00 -0.11000430573E+04  0.11899371060E+04  0.45371311219E+03 0.  0.
      99925    2    3    3    0    0 -0.47749816584E+02  0.48725585671E+02 -0.92586537941E+03  0.96490466548E+03  0.26298305080E+03 0.  0.
         25    1    3    3    0    0  0.47749816584E+02 -0.48725585671E+02 -0.17417767793E+03  0.22503244049E+03  0.12509000000E+03 0.  0.
         25    1    4    4    0    0 -0.22151232097E+02  0.62166145451E+02 -0.54142787775E+03  0.55959535526E+03  0.12509000000E+03 0.  0.
         25    1    4    4    0    0 -0.25598584486E+02 -0.13440559780E+02 -0.38443750165E+03  0.40530931022E+03  0.12509000000E+03 0.  0.
<mgrwt>
<rscale>  2 0.45371311E+03</rscale>
<asrwt>0</asrwt>
<pdfrwt beam="1">  1       21 0.66098558E-02 0.45371311E+03</pdfrwt>
<pdfrwt beam="2">  1       21 0.16838091E+00 0.45371311E+03</pdfrwt>
<totfact> 0.32804166E+04</totfact>
</mgrwt>
</event>
<event>
 7    0  0.4770865E-002  0.4555693E+03  0.7546771E-02  0.1026074E+00
         21   -1    0    0  502  501  0.00000000000E+00  0.00000000000E+00  0.31391021043E+03  0.31391021043E+03  0.00000000000E+00 0. -1.
         21   -1    0    0  501  502 -0.00000000000E+00 -0.00000000000E+00 -0.16528881956E+03  0.16528881956E+03  0.00000000000E+00 0. -1.
      99926    2    1    2    0    0  0.00000000000E+00  0.00000000000E+00  0.14862139086E+03  0.47919902999E+03  0.45556930595E+03 0.  0.
      99925    2    3    3    0    0 -0.70787471677E+02  0.45032795909E+02  0.17404272791E+03  0.32644900108E+03  0.26313354084E+03 0.  0.
         25    1    3    3    0    0  0.70787471677E+02 -0.45032795909E+02 -0.25421337049E+02  0.15275002891E+03  0.12509000000E+03 0.  0.
         25    1    4    4    0    0 -0.67056291469E+01  0.48361854540E+02  0.69134161131E+02  0.15103269438E+03  0.12509000000E+03 0.  0.
         25    1    4    4    0    0 -0.64081842530E+02 -0.33290586307E+01  0.10490856678E+03  0.17541630670E+03  0.12509000000E+03 0.  0.
<mgrwt>
<rscale>  2 0.45556931E+03</rscale>
<asrwt>0</asrwt>
<pdfrwt beam="1">  1       21 0.46163266E-01 0.45556931E+03</pdfrwt>
<pdfrwt beam="2">  1       21 0.24307179E-01 0.45556931E+03</pdfrwt>
<totfact> 0.66457638E+04</totfact>
</mgrwt>
</event>
<event>
 7    0  0.4770865E-002  0.4737554E+03  0.7546771E-02  0.1020866E+00
         21   -1    0    0  502  501  0.00000000000E+00  0.00000000000E+00  0.91602812737E+02  0.91602812737E+02  0.00000000000E+00 0. -1.
         21   -1    0    0  501  502 -0.00000000000E+00 -0.00000000000E+00 -0.61254726660E+03  0.61254726660E+03  0.00000000000E+00 0. -1.
      99926    2    1    2    0    0  0.00000000000E+00 -0.14210854715E-13 -0.52094445386E+03  0.70415007933E+03  0.47375543292E+03 0.  0.
      99925    2    3    3    0    0  0.75934927691E+02  0.10493809287E+03 -0.33808390330E+03  0.44751102224E+03  0.26303473682E+03 0.  0.
         25    1    3    3    0    0 -0.75934927691E+02 -0.10493809287E+03 -0.18286055055E+03  0.25663905710E+03  0.12509000000E+03 0.  0.
         25    1    4    4    0    0  0.47056414212E+02  0.19892858669E+02 -0.19545130534E+03  0.23761050651E+03  0.12509000000E+03 0.  0.
         25    1    4    4    0    0  0.28878513479E+02  0.85045234198E+02 -0.14263259796E+03  0.20990051572E+03  0.12509000000E+03 0.  0.
<mgrwt>
<rscale>  2 0.47375543E+03</rscale>
<asrwt>0</asrwt>
<pdfrwt beam="1">  1       21 0.13471003E-01 0.47375543E+03</pdfrwt>
<pdfrwt beam="2">  1       21 0.90080475E-01 0.47375543E+03</pdfrwt>
<totfact> 0.45567912E+04</totfact>
</mgrwt>
</event>
<event>
 7    0  0.4770865E-002  0.4514915E+03  0.7546771E-02  0.1027278E+00
         21   -1    0    0  502  501  0.00000000000E+00  0.00000000000E+00  0.20336186917E+03  0.20336186917E+03  0.00000000000E+00 0.  1.
         21   -1    0    0  501  502 -0.00000000000E+00 -0.00000000000E+00 -0.25059337322E+03  0.25059337322E+03  0.00000000000E+00 0.  1.
      99926    2    1    2    0    0 -0.71054273576E-14  0.35527136788E-14 -0.47231504042E+02  0.45395524239E+03  0.45149146960E+03 0.  0.
      99925    2    3    3    0    0 -0.50013206804E+02  0.19289048394E+02  0.66427078675E+02  0.27664430148E+03  0.26314658370E+03 0.  0.
         25    1    4    4    0    0 -0.15218939789E+02  0.32351667160E+02  0.66588423405E+02  0.14614982972E+03  0.12509000000E+03 0.  0.
         25    1    3    3    0    0  0.50013206804E+02 -0.19289048394E+02 -0.11365858272E+03  0.17731094091E+03  0.12509000000E+03 0.  0.
         25    1    4    4    0    0 -0.34794267015E+02 -0.13062618767E+02 -0.16134472961E+00  0.13049447175E+03  0.12509000000E+03 0.  0.
<mgrwt>
<rscale>  2 0.45149147E+03</rscale>
<asrwt>0</asrwt>
<pdfrwt beam="1">  1       21 0.29906157E-01 0.45149147E+03</pdfrwt>
<pdfrwt beam="2">  1       21 0.36851966E-01 0.45149147E+03</pdfrwt>
<totfact> 0.70577442E+04</totfact>
</mgrwt>
</event>
<event>
 7    0  0.4770865E-002  0.4655800E+03  0.7546771E-02  0.1023175E+00
         21   -1    0    0  502  501  0.00000000000E+00  0.00000000000E+00  0.42641826930E+03  0.42641826930E+03  0.00000000000E+00 0. -1.
         21   -1    0    0  501  502 -0.00000000000E+00 -0.00000000000E+00 -0.12708459529E+03  0.12708459529E+03  0.00000000000E+00 0. -1.
      99926    2    1    2    0    0  0.14210854715E-13  0.35527136788E-14  0.29933367401E+03  0.55350286459E+03  0.46558003900E+03 0.  0.
      99925    2    3    3    0    0  0.81282656092E+02  0.23590444046E+02  0.29261142825E+03  0.40232060399E+03  0.26282511528E+03 0.  0.
         25    1    3    3    0    0 -0.81282656092E+02 -0.23590444046E+02  0.67222457543E+01  0.15118226060E+03  0.12509000000E+03 0.  0.
         25    1    4    4    0    0  0.52668954205E+02 -0.24334005147E+02  0.12767896142E+03  0.18792442054E+03  0.12509000000E+03 0.  0.
         25    1    4    4    0    0  0.28613701887E+02  0.47924449193E+02  0.16493246683E+03  0.21439618346E+03  0.12509000000E+03 0.  0.
<mgrwt>
<rscale>  2 0.46558004E+03</rscale>
<asrwt>0</asrwt>
<pdfrwt beam="1">  1       21 0.62708569E-01 0.46558004E+03</pdfrwt>
<pdfrwt beam="2">  1       21 0.18688911E-01 0.46558004E+03</pdfrwt>
<totfact> 0.56735440E+04</totfact>
</mgrwt>
</event>
<event>
 7    0  0.4770865E-002  0.4555071E+03  0.7546771E-02  0.1026092E+00
         21   -1    0    0  502  501  0.00000000000E+00  0.00000000000E+00  0.59672955317E+02  0.59672955317E+02  0.00000000000E+00 0.  1.
         21   -1    0    0  501  502 -0.00000000000E+00 -0.00000000000E+00 -0.86926624585E+03  0.86926624585E+03  0.00000000000E+00 0.  1.
      99926    2    1    2    0    0  0.35527136788E-14  0.35527136788E-14 -0.80959329054E+03  0.92893920117E+03  0.45550712770E+03 0.  0.
      99925    2    3    3    0    0  0.28102256969E+02  0.21933721099E+02 -0.28949225956E+03  0.39282035661E+03  0.26311829898E+03 0.  0.
         25    1    3    3    0    0 -0.28102256969E+02 -0.21933721099E+02 -0.52010103097E+03  0.53611884456E+03  0.12509000000E+03 0.  0.
         25    1    4    4    0    0  0.22277540708E+01 -0.17044347044E+02 -0.18133673157E+03  0.22096604031E+03  0.12509000000E+03 0.  0.
         25    1    4    4    0    0  0.25874502898E+02  0.38978068143E+02 -0.10815552799E+03  0.17185431630E+03  0.12509000000E+03 0.  0.
<mgrwt>
<rscale>  2 0.45550713E+03</rscale>
<asrwt>0</asrwt>
<pdfrwt beam="1">  1       21 0.87754343E-02 0.45550713E+03</pdfrwt>
<pdfrwt beam="2">  1       21 0.12783328E+00 0.45550713E+03</pdfrwt>
<totfact> 0.41839421E+04</totfact>
</mgrwt>
</event>
<event>
 7    0  0.4770865E-002  0.4612985E+03  0.7546771E-02  0.1024405E+00
         21   -1    0    0  502  501  0.00000000000E+00  0.00000000000E+00  0.22134928996E+03  0.22134928996E+03  0.00000000000E+00 0.  1.
         21   -1    0    0  501  502 -0.00000000000E+00 -0.00000000000E+00 -0.24033994689E+03  0.24033994689E+03  0.00000000000E+00 0.  1.
      99926    2    1    2    0    0  0.00000000000E+00  0.00000000000E+00 -0.18990656927E+02  0.46168923685E+03  0.46129850029E+03 0.  0.
      99925    2    3    3    0    0 -0.24639273973E+02 -0.85081322401E+02 -0.91510790607E+02  0.29212331123E+03  0.26289898996E+03 0.  0.
         25    1    4    4    0    0 -0.32380696094E+02 -0.27261666924E+02 -0.11432059632E+02  0.13255152979E+03  0.12509000000E+03 0.  0.
         25    1    3    3    0    0  0.24639273973E+02  0.85081322401E+02  0.72520133680E+02  0.16956592562E+03  0.12509000000E+03 0.  0.
         25    1    4    4    0    0  0.77414221213E+01 -0.57819655476E+02 -0.80078730974E+02  0.15957178143E+03  0.12509000000E+03 0.  0.
<mgrwt>
<rscale>  2 0.46129850E+03</rscale>
<asrwt>0</asrwt>
<pdfrwt beam="1">  1       21 0.32551366E-01 0.46129850E+03</pdfrwt>
<pdfrwt beam="2">  1       21 0.35344110E-01 0.46129850E+03</pdfrwt>
<totfact> 0.64743156E+04</totfact>
</mgrwt>
</event>
<event>
 7    0  0.4770865E-002  0.4566783E+03  0.7546771E-02  0.1025749E+00
         21   -1    0    0  502  501  0.00000000000E+00  0.00000000000E+00  0.49687165819E+03  0.49687165819E+03  0.00000000000E+00 0. -1.
         21   -1    0    0  501  502 -0.00000000000E+00 -0.00000000000E+00 -0.10493406595E+03  0.10493406595E+03  0.00000000000E+00 0. -1.
      99926    2    1    2    0    0 -0.71054273576E-14  0.00000000000E+00  0.39193759223E+03  0.60180572414E+03  0.45667828217E+03 0.  0.
      99925    2    3    3    0    0  0.52438168337E+02 -0.99668522178E+02  0.27519111800E+03  0.39696231283E+03  0.26299306183E+03 0.  0.
         25    1    4    4    0    0 -0.14179945702E+02 -0.50362929022E+02  0.14171608218E+03  0.19613375927E+03  0.12509000000E+03 0.  0.
         25    1    4    4    0    0  0.66618114038E+02 -0.49305593157E+02  0.13347503583E+03  0.20082855356E+03  0.12509000000E+03 0.  0.
         25    1    3    3    0    0 -0.52438168337E+02  0.99668522178E+02  0.11674647423E+03  0.20484341131E+03  0.12509000000E+03 0.  0.
<mgrwt>
<rscale>  2 0.45667828E+03</rscale>
<asrwt>0</asrwt>
<pdfrwt beam="1">  1       21 0.73069361E-01 0.45667828E+03</pdfrwt>
<pdfrwt beam="2">  1       21 0.15431480E-01 0.45667828E+03</pdfrwt>
<totfact> 0.57797051E+04</totfact>
</mgrwt>
</event>
<event>
 7    0  0.4770865E-002  0.4535290E+03  0.7546771E-02  0.1026675E+00
         21   -1    0    0  502  501  0.00000000000E+00  0.00000000000E+00  0.65175578551E+03  0.65175578551E+03  0.00000000000E+00 0. -1.
         21   -1    0    0  501  502 -0.00000000000E+00 -0.00000000000E+00 -0.78897876923E+02  0.78897876923E+02  0.00000000000E+00 0. -1.
      99926    2    1    2    0    0  0.00000000000E+00  0.14210854715E-13  0.57285790859E+03  0.73065366243E+03  0.45352904096E+03 0.  0.
      99925    2    3    3    0    0  0.31558068814E+02  0.94957218153E+02  0.44106026793E+03  0.52321472884E+03  0.26307167758E+03 0.  0.
         25    1    4    4    0    0  0.34281510870E+02  0.97359599497E+01  0.20203394908E+03  0.24028157562E+03  0.12509000000E+03 0.  0.
         25    1    4    4    0    0 -0.27234420553E+01  0.85221258203E+02  0.23902631885E+03  0.28293315322E+03  0.12509000000E+03 0.  0.
         25    1    3    3    0    0 -0.31558068814E+02 -0.94957218153E+02  0.13179764066E+03  0.20743893359E+03  0.12509000000E+03 0.  0.
<mgrwt>
<rscale>  2 0.45352904E+03</rscale>
<asrwt>0</asrwt>
<pdfrwt beam="1">  1       21 0.95846436E-01 0.45352904E+03</pdfrwt>
<pdfrwt beam="2">  1       21 0.11602629E-01 0.45352904E+03</pdfrwt>
<totfact> 0.51867432E+04</totfact>
</mgrwt>
</event>
<event>
 7    0  0.4770865E-002  0.4491496E+03  0.7546771E-02  0.1027976E+00
         21   -1    0    0  502  501  0.00000000000E+00  0.00000000000E+00  0.96247113250E+02  0.96247113250E+02  0.00000000000E+00 0.  1.
         21   -1    0    0  501  502 -0.00000000000E+00 -0.00000000000E+00 -0.52400367827E+03  0.52400367827E+03  0.00000000000E+00 0.  1.
      99926    2    1    2    0    0  0.00000000000E+00 -0.14210854715E-13 -0.42775656502E+03  0.62025079152E+03  0.44914960254E+03 0.  0.
      99925    2    3    3    0    0 -0.46968948009E+02 -0.84660220572E+02 -0.33529935246E+03  0.43703158052E+03  0.26305419896E+03 0.  0.
         25    1    4    4    0    0 -0.16634919733E+02 -0.82509717480E+02 -0.19724029361E+03  0.24826561493E+03  0.12509000000E+03 0.  0.
         25    1    3    3    0    0  0.46968948009E+02  0.84660220572E+02 -0.92457212559E+02  0.18321921100E+03  0.12509000000E+03 0.  0.
         25    1    4    4    0    0 -0.30334028276E+02 -0.21505030914E+01 -0.13805905884E+03  0.18876596559E+03  0.12509000000E+03 0.  0.
<mgrwt>
<rscale>  2 0.44914960E+03</rscale>
<asrwt>0</asrwt>
<pdfrwt beam="1">  1       21 0.14153987E-01 0.44914960E+03</pdfrwt>
<pdfrwt beam="2">  1       21 0.77059365E-01 0.44914960E+03</pdfrwt>
<totfact> 0.60181073E+04</totfact>
</mgrwt>
</event>
<event>
 7    0  0.4770865E-002  0.4687550E+03  0.7546771E-02  0.1022272E+00
         21   -1    0    0  502  501  0.00000000000E+00  0.00000000000E+00  0.50219150982E+03  0.50219150982E+03  0.00000000000E+00 0.  1.
         21   -1    0    0  501  502 -0.00000000000E+00 -0.00000000000E+00 -0.10938618994E+03  0.10938618994E+03  0.00000000000E+00 0.  1.
      99926    2    1    2    0    0  0.00000000000E+00  0.00000000000E+00  0.39280531988E+03  0.61157769977E+03  0.46875501440E+03 0.  0.
      99925    2    3    3    0    0  0.42209469530E+02  0.76386424448E+02  0.36200436063E+03  0.45597328997E+03  0.26315006914E+03 0.  0.
         25    1    4    4    0    0  0.97179974251E+01  0.34581263272E+01  0.20136574264E+03  0.23728056920E+03  0.12509000000E+03 0.  0.
         25    1    3    3    0    0 -0.42209469530E+02 -0.76386424448E+02  0.30800959251E+02  0.15560440980E+03  0.12509000000E+03 0.  0.
         25    1    4    4    0    0  0.32491472105E+02  0.72928298121E+02  0.16063861799E+03  0.21869272077E+03  0.12509000000E+03 0.  0.
<mgrwt>
<rscale>  2 0.46875501E+03</rscale>
<asrwt>0</asrwt>
<pdfrwt beam="1">  1       21 0.73851692E-01 0.46875501E+03</pdfrwt>
<pdfrwt beam="2">  1       21 0.16086205E-01 0.46875501E+03</pdfrwt>
<totfact> 0.52077898E+04</totfact>
</mgrwt>
</event>
<event>
 7    0  0.4770865E-002  0.4515064E+03  0.7546771E-02  0.1027274E+00
         21   -1    0    0  502  501  0.00000000000E+00  0.00000000000E+00  0.52695592760E+03  0.52695592760E+03  0.00000000000E+00 0.  1.
         21   -1    0    0  501  502 -0.00000000000E+00 -0.00000000000E+00 -0.96714953052E+02  0.96714953052E+02  0.00000000000E+00 0.  1.
      99926    2    1    2    0    0  0.00000000000E+00  0.00000000000E+00  0.43024097455E+03  0.62367088066E+03  0.45150644646E+03 0.  0.
      99925    2    3    3    0    0  0.50396652347E+02 -0.54017889440E+02  0.15939792068E+03  0.31632543515E+03  0.26305195087E+03 0.  0.
         25    1    4    4    0    0  0.26397324918E+02 -0.17333990050E+02  0.12442988566E+03  0.17924170976E+03  0.12509000000E+03 0.  0.
         25    1    4    4    0    0  0.23999327429E+02 -0.36683899390E+02  0.34968035027E+02  0.13708372538E+03  0.12509000000E+03 0.  0.
         25    1    3    3    0    0 -0.50396652347E+02  0.54017889440E+02  0.27084305387E+03  0.30734544551E+03  0.12509000000E+03 0.  0.
<mgrwt>
<rscale>  2 0.45150645E+03</rscale>
<asrwt>0</asrwt>
<pdfrwt beam="1">  1       21 0.77493517E-01 0.45150645E+03</pdfrwt>
<pdfrwt beam="2">  1       21 0.14222788E-01 0.45150645E+03</pdfrwt>
<totfact> 0.58850991E+04</totfact>
</mgrwt>
</event>
<event>
 7    0  0.4770865E-002  0.4642338E+03  0.7546771E-02  0.1023560E+00
         21   -1    0    0  502  501  0.00000000000E+00  0.00000000000E+00  0.11125783457E+03  0.11125783457E+03  0.00000000000E+00 0. -1.
         21   -1    0    0  501  502 -0.00000000000E+00 -0.00000000000E+00 -0.48426483897E+03  0.48426483897E+03  0.00000000000E+00 0. -1.
      99926    2    1    2    0    0  0.35527136788E-14  0.00000000000E+00 -0.37300700440E+03  0.59552267355E+03  0.46423380896E+03 0.  0.
      99925    2    3    3    0    0 -0.23226804693E+02  0.11816888080E+03 -0.25468978207E+03  0.38540403552E+03  0.26299432819E+03 0.  0.
         25    1    4    4    0    0 -0.20937551806E+02  0.67693016831E+02 -0.79477590408E+02  0.16427087715E+03  0.12509000000E+03 0.  0.
         25    1    4    4    0    0 -0.22892528873E+01  0.50475863971E+02 -0.17521219166E+03  0.22113315837E+03  0.12509000000E+03 0.  0.
         25    1    3    3    0    0  0.23226804693E+02 -0.11816888080E+03 -0.11831722233E+03  0.21011863802E+03  0.12509000000E+03 0.  0.
<mgrwt>
<rscale>  2 0.46423381E+03</rscale>
<asrwt>0</asrwt>
<pdfrwt beam="1">  1       21 0.16361447E-01 0.46423381E+03</pdfrwt>
<pdfrwt beam="2">  1       21 0.71215415E-01 0.46423381E+03</pdfrwt>
<totfact> 0.54841919E+04</totfact>
</mgrwt>
</event>
<event>
 7    0  0.4770865E-002  0.4518960E+03  0.7546771E-02  0.1027158E+00
         21   -1    0    0  502  501  0.00000000000E+00  0.00000000000E+00  0.14131271714E+04  0.14131271714E+04  0.00000000000E+00 0. -1.
         21   -1    0    0  501  502 -0.00000000000E+00 -0.00000000000E+00 -0.36127327302E+02  0.36127327302E+02  0.00000000000E+00 0. -1.
      99926    2    1    2    0    0  0.00000000000E+00  0.00000000000E+00  0.13769998441E+04  0.14492544987E+04  0.45189604044E+03 0.  0.
      99925    2    3    3    0    0 -0.98078675341E+02 -0.48465953907E+02  0.84560264096E+03  0.89247907643E+03  0.26364123392E+03 0.  0.
         25    1    3    3    0    0  0.98078675341E+02  0.48465953907E+02  0.53139720318E+03  0.55677542232E+03  0.12509000000E+03 0.  0.
         25    1    4    4    0    0 -0.48603464550E+01 -0.21377398022E+02  0.36443704832E+03  0.38593067564E+03  0.12509000000E+03 0.  0.
         25    1    4    4    0    0 -0.93218328886E+02 -0.27088555885E+02  0.48116559264E+03  0.50654840079E+03  0.12509000000E+03 0.  0.
<mgrwt>
<rscale>  2 0.45189604E+03</rscale>
<asrwt>0</asrwt>
<pdfrwt beam="1">  1       21 0.20781278E+00 0.45189604E+03</pdfrwt>
<pdfrwt beam="2">  1       21 0.53128432E-02 0.45189604E+03</pdfrwt>
<totfact> 0.25661813E+04</totfact>
</mgrwt>
</event>
<event>
 7    0  0.4770865E-002  0.4577062E+03  0.7546771E-02  0.1025449E+00
         21   -1    0    0  502  501  0.00000000000E+00  0.00000000000E+00  0.11048842938E+03  0.11048842938E+03  0.00000000000E+00 0. -1.
         21   -1    0    0  501  502 -0.00000000000E+00 -0.00000000000E+00 -0.47402012546E+03  0.47402012546E+03  0.00000000000E+00 0. -1.
      99926    2    1    2    0    0  0.00000000000E+00  0.00000000000E+00 -0.36353169608E+03  0.58450855483E+03  0.45770619027E+03 0.  0.
      99925    2    3    3    0    0  0.21549395273E+02 -0.75440907740E+02 -0.33675649557E+03  0.43444148163E+03  0.26301854812E+03 0.  0.
         25    1    4    4    0    0  0.49462886772E+02 -0.25488148039E+02 -0.16649409292E+03  0.21555512969E+03  0.12509000000E+03 0.  0.
         25    1    4    4    0    0 -0.27913491499E+02 -0.49952759700E+02 -0.17026240265E+03  0.21888635194E+03  0.12509000000E+03 0.  0.
         25    1    3    3    0    0 -0.21549395273E+02  0.75440907740E+02 -0.26775200512E+02  0.15006707320E+03  0.12509000000E+03 0.  0.
<mgrwt>
<rscale>  2 0.45770619E+03</rscale>
<asrwt>0</asrwt>
<pdfrwt beam="1">  1       21 0.16248299E-01 0.45770619E+03</pdfrwt>
<pdfrwt beam="2">  1       21 0.69708841E-01 0.45770619E+03</pdfrwt>
<totfact> 0.58383097E+04</totfact>
</mgrwt>
</event>
<event>
 7    0  0.4770865E-002  0.4316139E+03  0.7546771E-02  0.1033351E+00
         21   -1    0    0  502  501  0.00000000000E+00  0.00000000000E+00  0.87755230467E+02  0.87755230467E+02  0.00000000000E+00 0. -1.
         21   -1    0    0  501  502 -0.00000000000E+00 -0.00000000000E+00 -0.53071063075E+03  0.53071063075E+03  0.00000000000E+00 0. -1.
      99926    2    1    2    0    0  0.00000000000E+00 -0.35527136788E-14 -0.44295540029E+03  0.61846586122E+03  0.43161387240E+03 0.  0.
      99925    2    3    3    0    0 -0.47228037114E+02  0.27859797989E+02 -0.18388035335E+03  0.32559380063E+03  0.26304502052E+03 0.  0.
         25    1    4    4    0    0 -0.20136229002E+02  0.46894913631E+02 -0.65192200188E+02  0.15000710553E+03  0.12509000000E+03 0.  0.
         25    1    4    4    0    0 -0.27091808112E+02 -0.19035115642E+02 -0.11868815317E+03  0.17558669510E+03  0.12509000000E+03 0.  0.
         25    1    3    3    0    0  0.47228037114E+02 -0.27859797989E+02 -0.25907504693E+03  0.29287206059E+03  0.12509000000E+03 0.  0.
<mgrwt>
<rscale>  2 0.43161387E+03</rscale>
<asrwt>0</asrwt>
<pdfrwt beam="1">  1       21 0.12905181E-01 0.43161387E+03</pdfrwt>
<pdfrwt beam="2">  1       21 0.78045683E-01 0.43161387E+03</pdfrwt>
<totfact> 0.69532685E+04</totfact>
</mgrwt>
</event>
<event>
 7    0  0.4770865E-002  0.4635546E+03  0.7546771E-02  0.1023755E+00
         21   -1    0    0  502  501  0.00000000000E+00  0.00000000000E+00  0.95811460259E+02  0.95811460259E+02  0.00000000000E+00 0. -1.
         21   -1    0    0  501  502 -0.00000000000E+00 -0.00000000000E+00 -0.56069196046E+03  0.56069196046E+03  0.00000000000E+00 0. -1.
      99926    2    1    2    0    0  0.44408920985E-15  0.00000000000E+00 -0.46488050020E+03  0.65650342072E+03  0.46355459436E+03 0.  0.
      99925    2    3    3    0    0  0.29456534858E+01  0.56038041937E+02 -0.13862876734E+03  0.30261552842E+03  0.26307657419E+03 0.  0.
         25    1    4    4    0    0 -0.29319163317E+02  0.88790170011E+00 -0.69082602606E+02  0.14587774261E+03  0.12509000000E+03 0.  0.
         25    1    4    4    0    0  0.32264816803E+02  0.55150140237E+02 -0.69546164732E+02  0.15673778581E+03  0.12509000000E+03 0.  0.
         25    1    3    3    0    0 -0.29456534858E+01 -0.56038041937E+02 -0.32625173286E+03  0.35388789230E+03  0.12509000000E+03 0.  0.
<mgrwt>
<rscale>  2 0.46355459E+03</rscale>
<asrwt>0</asrwt>
<pdfrwt beam="1">  1       21 0.14089921E-01 0.46355459E+03</pdfrwt>
<pdfrwt beam="2">  1       21 0.82454698E-01 0.46355459E+03</pdfrwt>
<totfact> 0.51747207E+04</totfact>
</mgrwt>
</event>
<event>
 7    0  0.4770865E-002  0.4583264E+03  0.7546771E-02  0.1025268E+00
         21   -1    0    0  502  501  0.00000000000E+00  0.00000000000E+00  0.31943318596E+02  0.31943318596E+02  0.00000000000E+00 0.  1.
         21   -1    0    0  501  502 -0.00000000000E+00 -0.00000000000E+00 -0.16440297713E+04  0.16440297713E+04  0.00000000000E+00 0.  1.
      99926    2    1    2    0    0 -0.14210854715E-13  0.13322676296E-14 -0.16120864527E+04  0.16759730899E+04  0.45832637614E+03 0.  0.
      99925    2    3    3    0    0 -0.78251850005E+02  0.34509311994E+01 -0.13256238386E+04  0.13537253617E+04  0.26298009899E+03 0.  0.
         25    1    4    4    0    0 -0.13806027679E+02  0.32027353811E+02 -0.68593375654E+03  0.69811817356E+03  0.12509000000E+03 0.  0.
         25    1    4    4    0    0 -0.64445822326E+02 -0.28576422611E+02 -0.63969008205E+03  0.65560718812E+03  0.12509000000E+03 0.  0.
         25    1    3    3    0    0  0.78251850005E+02 -0.34509311994E+01 -0.28646261413E+03  0.32224772823E+03  0.12509000000E+03 0.  0.
<mgrwt>
<rscale>  2 0.45832638E+03</rscale>
<asrwt>0</asrwt>
<pdfrwt beam="1">  1       21 0.46975447E-02 0.45832638E+03</pdfrwt>
<pdfrwt beam="2">  1       21 0.24176919E+00 0.45832638E+03</pdfrwt>
<totfact> 0.19263868E+04</totfact>
</mgrwt>
</event>
<event>
 7    0  0.4770865E-002  0.4560362E+03  0.7546771E-02  0.1025937E+00
         21   -1    0    0  502  501  0.00000000000E+00  0.00000000000E+00  0.22027555291E+02  0.22027555291E+02  0.00000000000E+00 0. -1.
         21   -1    0    0  501  502 -0.00000000000E+00 -0.00000000000E+00 -0.23603277222E+04  0.23603277222E+04  0.00000000000E+00 0. -1.
      99926    2    1    2    0    0  0.00000000000E+00  0.71054273576E-14 -0.23383001669E+04  0.23823552775E+04  0.45603618017E+03 0.  0.
      99925    2    3    3    0    0 -0.93681177196E+02  0.48529600583E+02 -0.16984428952E+04  0.17219038248E+04  0.26289394921E+03 0.  0.
         25    1    4    4    0    0 -0.70917194851E+02  0.36855242016E+02 -0.71815437416E+03  0.73333537391E+03  0.12509000000E+03 0.  0.
         25    1    3    3    0    0  0.93681177196E+02 -0.48529600583E+02 -0.63985727165E+03  0.66045145263E+03  0.12509000000E+03 0.  0.
         25    1    4    4    0    0 -0.22763982346E+02  0.11674358567E+02 -0.98028852107E+03  0.98856845093E+03  0.12509000000E+03 0.  0.
<mgrwt>
<rscale>  2 0.45603618E+03</rscale>
<asrwt>0</asrwt>
<pdfrwt beam="1">  1       21 0.32393464E-02 0.45603618E+03</pdfrwt>
<pdfrwt beam="2">  1       21 0.34710702E+00 0.45603618E+03</pdfrwt>
<totfact> 0.83441465E+03</totfact>
</mgrwt>
</event>
<event>
 7    0  0.4770865E-002  0.4578463E+03  0.7546771E-02  0.1025408E+00
         21   -1    0    0  502  501  0.00000000000E+00  0.00000000000E+00  0.34215039262E+03  0.34215039262E+03  0.00000000000E+00 0.  1.
         21   -1    0    0  501  502 -0.00000000000E+00 -0.00000000000E+00 -0.15316599433E+03  0.15316599433E+03  0.00000000000E+00 0.  1.
      99926    2    1    2    0    0 -0.14210854715E-13 -0.71054273576E-14  0.18898439828E+03  0.49531638695E+03  0.45784628467E+03 0.  0.
      99925    2    3    3    0    0  0.87837406072E+02 -0.43094032350E+02  0.18394396649E+03  0.33642831445E+03  0.26415170343E+03 0.  0.
         25    1    4    4    0    0  0.13208961749E+02  0.93744792412E+01  0.70569259712E+02  0.14453333888E+03  0.12509000000E+03 0.  0.
         25    1    4    4    0    0  0.74628444323E+02 -0.52468511592E+02  0.11337470678E+03  0.19189497557E+03  0.12509000000E+03 0.  0.
         25    1    3    3    0    0 -0.87837406072E+02  0.43094032350E+02  0.50404317895E+01  0.15888807250E+03  0.12509000000E+03 0.  0.
<mgrwt>
<rscale>  2 0.45784628E+03</rscale>
<asrwt>0</asrwt>
<pdfrwt beam="1">  1       21 0.50316234E-01 0.45784628E+03</pdfrwt>
<pdfrwt beam="2">  1       21 0.22524411E-01 0.45784628E+03</pdfrwt>
<totfact> 0.64139402E+04</totfact>
</mgrwt>
</event>
<event>
 7    0  0.4770865E-002  0.4685250E+03  0.7546771E-02  0.1022337E+00
         21   -1    0    0  502  501  0.00000000000E+00  0.00000000000E+00  0.17773016915E+03  0.17773016915E+03  0.00000000000E+00 0.  1.
         21   -1    0    0  501  502 -0.00000000000E+00 -0.00000000000E+00 -0.30877661475E+03  0.30877661475E+03  0.00000000000E+00 0.  1.
      99926    2    1    2    0    0  0.00000000000E+00  0.00000000000E+00 -0.13104644560E+03  0.48650678390E+03  0.46852500454E+03 0.  0.
      99925    2    3    3    0    0  0.79729930704E+02 -0.95275935416E+02 -0.10093640667E+03  0.30765352487E+03  0.26273212110E+03 0.  0.
         25    1    4    4    0    0 -0.14292637495E+01 -0.48417319095E+02 -0.41190650464E+02  0.14032269014E+03  0.12509000000E+03 0.  0.
         25    1    3    3    0    0 -0.79729930704E+02  0.95275935416E+02 -0.30110038932E+02  0.17885325903E+03  0.12509000000E+03 0.  0.
         25    1    4    4    0    0  0.81159194454E+02 -0.46858616321E+02 -0.59745756203E+02  0.16733083473E+03  0.12509000000E+03 0.  0.
<mgrwt>
<rscale>  2 0.46852500E+03</rscale>
<asrwt>0</asrwt>
<pdfrwt beam="1">  1       21 0.26136790E-01 0.46852500E+03</pdfrwt>
<pdfrwt beam="2">  1       21 0.45408326E-01 0.46852500E+03</pdfrwt>
<totfact> 0.59572974E+04</totfact>
</mgrwt>
</event>
<event>
 7    0  0.4770865E-002  0.4555589E+03  0.7546771E-02  0.1026077E+00
         21   -1    0    0  502  501  0.00000000000E+00  0.00000000000E+00  0.10937301692E+03  0.10937301692E+03  0.00000000000E+00 0.  1.
         21   -1    0    0  501  502 -0.00000000000E+00 -0.00000000000E+00 -0.47437184747E+03  0.47437184747E+03  0.00000000000E+00 0.  1.
      99926    2    1    2    0    0  0.00000000000E+00  0.00000000000E+00 -0.36499883055E+03  0.58374486440E+03  0.45555890992E+03 0.  0.
      99925    2    3    3    0    0  0.48099352270E+01  0.11179981637E+03 -0.25534002670E+03  0.38325821701E+03  0.26299429130E+03 0.  0.
         25    1    4    4    0    0  0.30559789143E+02  0.58645581327E+02 -0.90046390634E+02  0.16771721882E+03  0.12509000000E+03 0.  0.
         25    1    3    3    0    0 -0.48099352270E+01 -0.11179981637E+03 -0.10965880385E+03  0.20048664739E+03  0.12509000000E+03 0.  0.
         25    1    4    4    0    0 -0.25749853916E+02  0.53154235045E+02 -0.16529363606E+03  0.21554099820E+03  0.12509000000E+03 0.  0.
<mgrwt>
<rscale>  2 0.45555891E+03</rscale>
<asrwt>0</asrwt>
<pdfrwt beam="1">  1       21 0.16084267E-01 0.45555891E+03</pdfrwt>
<pdfrwt beam="2">  1       21 0.69760567E-01 0.45555891E+03</pdfrwt>
<totfact> 0.59427143E+04</totfact>
</mgrwt>
</event>
<event>
 7    0  0.4770865E-002  0.4581203E+03  0.7546771E-02  0.1025328E+00
         21   -1    0    0  502  501  0.00000000000E+00  0.00000000000E+00  0.33180187782E+02  0.33180187782E+02  0.00000000000E+00 0. -1.
         21   -1    0    0  501  502 -0.00000000000E+00 -0.00000000000E+00 -0.15813215830E+04  0.15813215830E+04  0.00000000000E+00 0. -1.
      99926    2    1    2    0    0 -0.14210854715E-13  0.14210854715E-13 -0.15481413953E+04  0.16145017708E+04  0.45812027708E+03 0.  0.
      99925    2    3    3    0    0 -0.99919114005E+02  0.56523138817E+02 -0.10272877713E+04  0.10666745168E+04  0.26324069813E+03 0.  0.
         25    1    3    3    0    0  0.99919114005E+02 -0.56523138817E+02 -0.52085362396E+03  0.54782725403E+03  0.12509000000E+03 0.  0.
         25    1    4    4    0    0 -0.24235450191E+02 -0.47291371350E+01 -0.50608127114E+03  0.52189604605E+03  0.12509000000E+03 0.  0.
         25    1    4    4    0    0 -0.75683663814E+02  0.61252275952E+02 -0.52120650016E+03  0.54477847074E+03  0.12509000000E+03 0.  0.
<mgrwt>
<rscale>  2 0.45812028E+03</rscale>
<asrwt>0</asrwt>
<pdfrwt beam="1">  1       21 0.48794402E-02 0.45812028E+03</pdfrwt>
<pdfrwt beam="2">  1       21 0.23254725E+00 0.45812028E+03</pdfrwt>
<totfact> 0.20600417E+04</totfact>
</mgrwt>
</event>
<event>
 7    0  0.4770865E-002  0.4498251E+03  0.7546771E-02  0.1027774E+00
         21   -1    0    0  502  501  0.00000000000E+00  0.00000000000E+00  0.44472089899E+03  0.44472089899E+03  0.00000000000E+00 0. -1.
         21   -1    0    0  501  502 -0.00000000000E+00 -0.00000000000E+00 -0.11374697654E+03  0.11374697654E+03  0.00000000000E+00 0. -1.
      99926    2    1    2    0    0  0.35527136788E-14  0.17763568394E-14  0.33097392245E+03  0.55846787553E+03  0.44982511119E+03 0.  0.
      99925    2    3    3    0    0  0.24768361240E+02 -0.11761434662E+02  0.33906694751E+03  0.43015260669E+03  0.26327374932E+03 0.  0.
         25    1    4    4    0    0  0.38811188667E+02  0.83455607245E+01  0.12640755102E+03  0.18221507568E+03  0.12509000000E+03 0.  0.
         25    1    4    4    0    0 -0.14042827426E+02 -0.20106995387E+02  0.21265939650E+03  0.24793753101E+03  0.12509000000E+03 0.  0.
         25    1    3    3    0    0 -0.24768361240E+02  0.11761434662E+02 -0.80930250588E+01  0.12831526884E+03  0.12509000000E+03 0.  0.
<mgrwt>
<rscale>  2 0.44982511E+03</rscale>
<asrwt>0</asrwt>
<pdfrwt beam="1">  1       21 0.65400132E-01 0.44982511E+03</pdfrwt>
<pdfrwt beam="2">  1       21 0.16727497E-01 0.44982511E+03</pdfrwt>
<totfact> 0.63885597E+04</totfact>
</mgrwt>
</event>
<event>
 7    0  0.4770865E-002  0.4587468E+03  0.7546771E-02  0.1025145E+00
         21   -1    0    0  502  501  0.00000000000E+00  0.00000000000E+00  0.54154157093E+03  0.54154157093E+03  0.00000000000E+00 0. -1.
         21   -1    0    0  501  502 -0.00000000000E+00 -0.00000000000E+00 -0.97152567498E+02  0.97152567498E+02  0.00000000000E+00 0. -1.
      99926    2    1    2    0    0  0.00000000000E+00  0.00000000000E+00  0.44438900343E+03  0.63869413843E+03  0.45874678864E+03 0.  0.
      99925    2    3    3    0    0 -0.41965445257E+01  0.10534257221E+03  0.20942962943E+03  0.35239345027E+03  0.26306977327E+03 0.  0.
         25    1    4    4    0    0  0.10489910308E+02  0.84133227656E+02  0.14462661473E+03  0.20917170938E+03  0.12509000000E+03 0.  0.
         25    1    4    4    0    0 -0.14686454834E+02  0.21209344556E+02  0.64803014700E+02  0.14322174090E+03  0.12509000000E+03 0.  0.
         25    1    3    3    0    0  0.41965445257E+01 -0.10534257221E+03  0.23495937400E+03  0.28630068815E+03  0.12509000000E+03 0.  0.
<mgrwt>
<rscale>  2 0.45874679E+03</rscale>
<asrwt>0</asrwt>
<pdfrwt beam="1">  1       21 0.79638465E-01 0.45874679E+03</pdfrwt>
<pdfrwt beam="2">  1       21 0.14287143E-01 0.45874679E+03</pdfrwt>
<totfact> 0.54721409E+04</totfact>
</mgrwt>
</event>
<event>
 7    0  0.4770865E-002  0.4524034E+03  0.7546771E-02  0.1027008E+00
         21   -1    0    0  502  501  0.00000000000E+00  0.00000000000E+00  0.29791211162E+03  0.29791211162E+03  0.00000000000E+00 0. -1.
         21   -1    0    0  501  502 -0.00000000000E+00 -0.00000000000E+00 -0.17175267809E+03  0.17175267809E+03  0.00000000000E+00 0. -1.
      99926    2    1    2    0    0 -0.71054273576E-14  0.00000000000E+00  0.12615943353E+03  0.46966478972E+03  0.45240337314E+03 0.  0.
      99925    2    3    3    0    0 -0.39589256744E+02  0.87671272228E+02  0.22890771834E+02  0.28107665167E+03  0.26310936026E+03 0.  0.
         25    1    3    3    0    0  0.39589256744E+02 -0.87671272228E+02  0.10326866169E+03  0.18858813804E+03  0.12509000000E+03 0.  0.
         25    1    4    4    0    0 -0.38657656467E+02  0.76687999622E+02  0.32359553233E+02  0.15514545586E+03  0.12509000000E+03 0.  0.
         25    1    4    4    0    0 -0.93160027670E+00  0.10983272606E+02 -0.94687813987E+01  0.12593119581E+03  0.12509000000E+03 0.  0.
<mgrwt>
<rscale>  2 0.45240337E+03</rscale>
<asrwt>0</asrwt>
<pdfrwt beam="1">  1       21 0.43810604E-01 0.45240337E+03</pdfrwt>
<pdfrwt beam="2">  1       21 0.25257747E-01 0.45240337E+03</pdfrwt>
<totfact> 0.68868490E+04</totfact>
</mgrwt>
</event>
<event>
 7    0  0.4770865E-002  0.4546153E+03  0.7546771E-02  0.1026355E+00
         21   -1    0    0  502  501  0.00000000000E+00  0.00000000000E+00  0.40991748677E+03  0.40991748677E+03  0.00000000000E+00 0. -1.
         21   -1    0    0  501  502 -0.00000000000E+00 -0.00000000000E+00 -0.12604673848E+03  0.12604673848E+03  0.00000000000E+00 0. -1.
      99926    2    1    2    0    0  0.00000000000E+00  0.35527136788E-14  0.28387074829E+03  0.53596422525E+03  0.45461527582E+03 0.  0.
      99925    2    3    3    0    0 -0.11081105301E+03 -0.22159968772E+02  0.17996866120E+03  0.33794072794E+03  0.26276427250E+03 0.  0.
         25    1    3    3    0    0  0.11081105301E+03  0.22159968772E+02  0.10390208709E+03  0.19802349731E+03  0.12509000000E+03 0.  0.
         25    1    4    4    0    0 -0.45574244375E+02 -0.32323248034E+02  0.49967365179E+02  0.14582883733E+03  0.12509000000E+03 0.  0.
         25    1    4    4    0    0 -0.65236808636E+02  0.10163279261E+02  0.13000129602E+03  0.19211189061E+03  0.12509000000E+03 0.  0.
<mgrwt>
<rscale>  2 0.45461528E+03</rscale>
<asrwt>0</asrwt>
<pdfrwt beam="1">  1       21 0.60281983E-01 0.45461528E+03</pdfrwt>
<pdfrwt beam="2">  1       21 0.18536285E-01 0.45461528E+03</pdfrwt>
<totfact> 0.62995245E+04</totfact>
</mgrwt>
</event>
<event>
 7    0  0.4770865E-002  0.4552017E+03  0.7546771E-02  0.1026182E+00
         21   -1    0    0  502  501  0.00000000000E+00  0.00000000000E+00  0.54922756619E+03  0.54922756619E+03  0.00000000000E+00 0.  1.
         21   -1    0    0  501  502 -0.00000000000E+00 -0.00000000000E+00 -0.94318177930E+02  0.94318177930E+02  0.00000000000E+00 0.  1.
      99926    2    1    2    0    0  0.00000000000E+00  0.00000000000E+00  0.45490938826E+03  0.64354574412E+03  0.45520168414E+03 0.  0.
      99925    2    3    3    0    0  0.96375269745E+02  0.41247417244E+02  0.22787405964E+03  0.36393513883E+03  0.26369045521E+03 0.  0.
         25    1    3    3    0    0 -0.96375269745E+02 -0.41247417244E+02  0.22703532862E+03  0.27961060528E+03  0.12509000000E+03 0.  0.
         25    1    4    4    0    0  0.45329096737E+01  0.19435935346E+02  0.11127166444E+03  0.16860366028E+03  0.12509000000E+03 0.  0.
         25    1    4    4    0    0  0.91842360071E+02  0.21811481898E+02  0.11660239520E+03  0.19533147855E+03  0.12509000000E+03 0.  0.
<mgrwt>
<rscale>  2 0.45520168E+03</rscale>
<asrwt>0</asrwt>
<pdfrwt beam="1">  1       21 0.80768758E-01 0.45520168E+03</pdfrwt>
<pdfrwt beam="2">  1       21 0.13870321E-01 0.45520168E+03</pdfrwt>
<totfact> 0.55985707E+04</totfact>
</mgrwt>
</event>
<event>
 7    0  0.4770865E-002  0.4618099E+03  0.7546771E-02  0.1024258E+00
         21   -1    0    0  502  501  0.00000000000E+00  0.00000000000E+00  0.97636860682E+02  0.97636860682E+02  0.00000000000E+00 0. -1.
         21   -1    0    0  501  502 -0.00000000000E+00 -0.00000000000E+00 -0.54607541472E+03  0.54607541472E+03  0.00000000000E+00 0. -1.
      99926    2    1    2    0    0  0.00000000000E+00  0.00000000000E+00 -0.44843855404E+03  0.64371227540E+03  0.46180987079E+03 0.  0.
      99925    2    3    3    0    0  0.96838020939E+02  0.63399111835E+02 -0.23940345188E+03  0.37400830488E+03  0.26300408679E+03 0.  0.
         25    1    3    3    0    0 -0.96838020939E+02 -0.63399111835E+02 -0.20903510216E+03  0.26970397052E+03  0.12509000000E+03 0.  0.
         25    1    4    4    0    0  0.36870299256E+02  0.18657387799E+02 -0.16254721874E+03  0.20922863931E+03  0.12509000000E+03 0.  0.
         25    1    4    4    0    0  0.59967721684E+02  0.44741724036E+02 -0.76856233140E+02  0.16477966557E+03  0.12509000000E+03 0.  0.
<mgrwt>
<rscale>  2 0.46180987E+03</rscale>
<asrwt>0</asrwt>
<pdfrwt beam="1">  1       21 0.14358362E-01 0.46180987E+03</pdfrwt>
<pdfrwt beam="2">  1       21 0.80305207E-01 0.46180987E+03</pdfrwt>
<totfact> 0.53150917E+04</totfact>
</mgrwt>
</event>
<event>
 7    0  0.4770865E-002  0.4524839E+03  0.7546771E-02  0.1026984E+00
         21   -1    0    0  502  501  0.00000000000E+00  0.00000000000E+00  0.22434372457E+03  0.22434372457E+03  0.00000000000E+00 0. -1.
         21   -1    0    0  501  502 -0.00000000000E+00 -0.00000000000E+00 -0.22815619288E+03  0.22815619288E+03  0.00000000000E+00 0. -1.
      99926    2    1    2    0    0  0.26645352591E-14  0.00000000000E+00 -0.38124683151E+01  0.45249991745E+03  0.45248385648E+03 0.  0.
      99925    2    3    3    0    0 -0.35353564373E+01  0.78658955588E+02  0.75407798167E+02  0.28480051744E+03  0.26310695292E+03 0.  0.
         25    1    3    3    0    0  0.35353564373E+01 -0.78658955588E+02 -0.79220266482E+02  0.16769940000E+03  0.12509000000E+03 0.  0.
         25    1    4    4    0    0 -0.21339625570E+02  0.68664975621E+02  0.63036841552E+02  0.15745288181E+03  0.12509000000E+03 0.  0.
         25    1    4    4    0    0  0.17804269132E+02  0.99939799678E+01  0.12370956616E+02  0.12734763564E+03  0.12509000000E+03 0.  0.
<mgrwt>
<rscale>  2 0.45248386E+03</rscale>
<asrwt>0</asrwt>
<pdfrwt beam="1">  1       21 0.32991724E-01 0.45248386E+03</pdfrwt>
<pdfrwt beam="2">  1       21 0.33552381E-01 0.45248386E+03</pdfrwt>
<totfact> 0.70126672E+04</totfact>
</mgrwt>
</event>
<event>
 7    0  0.4770865E-002  0.4561291E+03  0.7546771E-02  0.1025910E+00
         21   -1    0    0  502  501  0.00000000000E+00  0.00000000000E+00  0.12595261230E+03  0.12595261230E+03  0.00000000000E+00 0. -1.
         21   -1    0    0  501  502 -0.00000000000E+00 -0.00000000000E+00 -0.41296030285E+03  0.41296030285E+03  0.00000000000E+00 0. -1.
      99926    2    1    2    0    0  0.00000000000E+00  0.88817841970E-15 -0.28700769055E+03  0.53891291515E+03  0.45612905594E+03 0.  0.
      99925    2    3    3    0    0  0.11185823605E+03 -0.22620595656E+01 -0.15320857509E+03  0.32428045422E+03  0.26299726923E+03 0.  0.
         25    1    4    4    0    0  0.92317748860E+02  0.11711511445E+02 -0.10556991280E+03  0.18828765452E+03  0.12509000000E+03 0.  0.
         25    1    4    4    0    0  0.19540487189E+02 -0.13973571011E+02 -0.47638662293E+02  0.13599279970E+03  0.12509000000E+03 0.  0.
         25    1    3    3    0    0 -0.11185823605E+03  0.22620595656E+01 -0.13379911546E+03  0.21463246093E+03  0.12509000000E+03 0.  0.
<mgrwt>
<rscale>  2 0.45612906E+03</rscale>
<asrwt>0</asrwt>
<pdfrwt beam="1">  1       21 0.18522443E-01 0.45612906E+03</pdfrwt>
<pdfrwt beam="2">  1       21 0.60729455E-01 0.45612906E+03</pdfrwt>
<totfact> 0.62048854E+04</totfact>
</mgrwt>
</event>
<event>
 7    0  0.4770865E-002  0.4527339E+03  0.7546771E-02  0.1026910E+00
         21   -1    0    0  502  501  0.00000000000E+00  0.00000000000E+00  0.15632378643E+03  0.15632378643E+03  0.00000000000E+00 0. -1.
         21   -1    0    0  501  502 -0.00000000000E+00 -0.00000000000E+00 -0.32779404715E+03  0.32779404715E+03  0.00000000000E+00 0. -1.
      99926    2    1    2    0    0  0.00000000000E+00  0.00000000000E+00 -0.17147026072E+03  0.48411783358E+03  0.45273394668E+03 0.  0.
      99925    2    3    3    0    0  0.90694611342E+02 -0.39414152042E+02 -0.16229131228E+03  0.32439698616E+03  0.26289911882E+03 0.  0.
         25    1    3    3    0    0 -0.90694611342E+02  0.39414152042E+02 -0.91789484380E+01  0.15972084742E+03  0.12509000000E+03 0.  0.
         25    1    4    4    0    0  0.68123450935E+02 -0.15504783184E+02 -0.46045415551E+02  0.15049548585E+03  0.12509000000E+03 0.  0.
         25    1    4    4    0    0  0.22571160407E+02 -0.23909368857E+02 -0.11624589673E+03  0.17390150030E+03  0.12509000000E+03 0.  0.
<mgrwt>
<rscale>  2 0.45273395E+03</rscale>
<asrwt>0</asrwt>
<pdfrwt beam="1">  1       21 0.22988792E-01 0.45273395E+03</pdfrwt>
<pdfrwt beam="2">  1       21 0.48205007E-01 0.45273395E+03</pdfrwt>
<totfact> 0.67609614E+04</totfact>
</mgrwt>
</event>
<event>
 7    0  0.4770865E-002  0.4554426E+03  0.7546771E-02  0.1026111E+00
         21   -1    0    0  502  501  0.00000000000E+00  0.00000000000E+00  0.26128678720E+03  0.26128678720E+03  0.00000000000E+00 0. -1.
         21   -1    0    0  501  502 -0.00000000000E+00 -0.00000000000E+00 -0.19846772612E+03  0.19846772612E+03  0.00000000000E+00 0. -1.
      99926    2    1    2    0    0  0.00000000000E+00  0.71054273576E-14  0.62819061081E+02  0.45975451332E+03  0.45544261777E+03 0.  0.
      99925    2    3    3    0    0  0.28411313270E+02  0.55697487081E+02  0.13522455757E+03  0.30227601697E+03  0.26301273102E+03 0.  0.
         25    1    4    4    0    0  0.30703700638E+02  0.29834412246E+01  0.34942218715E+02  0.13349189078E+03  0.12509000000E+03 0.  0.
         25    1    3    3    0    0 -0.28411313270E+02 -0.55697487081E+02 -0.72405496485E+02  0.15747849634E+03  0.12509000000E+03 0.  0.
         25    1    4    4    0    0 -0.22923873678E+01  0.52714045857E+02  0.10028233885E+03  0.16878412620E+03  0.12509000000E+03 0.  0.
<mgrwt>
<rscale>  2 0.45544262E+03</rscale>
<asrwt>0</asrwt>
<pdfrwt beam="1">  1       21 0.38424528E-01 0.45544262E+03</pdfrwt>
<pdfrwt beam="2">  1       21 0.29186430E-01 0.45544262E+03</pdfrwt>
<totfact> 0.67958272E+04</totfact>
</mgrwt>
</event>
<event>
 7    0  0.4770865E-002  0.4407677E+03  0.7546771E-02  0.1030512E+00
         21   -1    0    0  502  501  0.00000000000E+00  0.00000000000E+00  0.45916968978E+03  0.45916968978E+03  0.00000000000E+00 0. -1.
         21   -1    0    0  501  502 -0.00000000000E+00 -0.00000000000E+00 -0.10577578321E+03  0.10577578321E+03  0.00000000000E+00 0. -1.
      99926    2    1    2    0    0  0.14210854715E-13 -0.35527136788E-14  0.35339390656E+03  0.56494547299E+03  0.44076766471E+03 0.  0.
      99925    2    3    3    0    0  0.96828050745E+02  0.15026730005E+02  0.24504271817E+03  0.37262032603E+03  0.26305607695E+03 0.  0.
         25    1    4    4    0    0  0.73240145582E+02  0.32270889712E+02  0.10086560682E+03  0.17951854496E+03  0.12509000000E+03 0.  0.
         25    1    3    3    0    0 -0.96828050745E+02 -0.15026730005E+02  0.10835118839E+03  0.19232514696E+03  0.12509000000E+03 0.  0.
         25    1    4    4    0    0  0.23587905162E+02 -0.17244159707E+02  0.14417711135E+03  0.19310178107E+03  0.12509000000E+03 0.  0.
<mgrwt>
<rscale>  2 0.44076766E+03</rscale>
<asrwt>0</asrwt>
<pdfrwt beam="1">  1       21 0.67524954E-01 0.44076766E+03</pdfrwt>
<pdfrwt beam="2">  1       21 0.15555262E-01 0.44076766E+03</pdfrwt>
<totfact> 0.68253764E+04</totfact>
</mgrwt>
</event>
<event>
 7    0  0.4770865E-002  0.4629108E+03  0.7546771E-02  0.1023940E+00
         21   -1    0    0  502  501  0.00000000000E+00  0.00000000000E+00  0.63458332520E+03  0.63458332520E+03  0.00000000000E+00 0. -1.
         21   -1    0    0  501  502 -0.00000000000E+00 -0.00000000000E+00 -0.84420123970E+02  0.84420123970E+02  0.00000000000E+00 0. -1.
      99926    2    1    2    0    0  0.00000000000E+00  0.00000000000E+00  0.55016320123E+03  0.71900344917E+03  0.46291080343E+03 0.  0.
      99925    2    3    3    0    0 -0.77631045332E+02 -0.75595387571E+02  0.26180363370E+03  0.38652790103E+03  0.26290955448E+03 0.  0.
         25    1    4    4    0    0 -0.48093583882E+02 -0.43381911221E+02  0.18779872539E+03  0.23475700711E+03  0.12509000000E+03 0.  0.
         25    1    4    4    0    0 -0.29537461450E+02 -0.32213476349E+02  0.74004908310E+02  0.15177089392E+03  0.12509000000E+03 0.  0.
         25    1    3    3    0    0  0.77631045332E+02  0.75595387571E+02  0.28835956754E+03  0.33247554814E+03  0.12509000000E+03 0.  0.
<mgrwt>
<rscale>  2 0.46291080E+03</rscale>
<asrwt>0</asrwt>
<pdfrwt beam="1">  1       21 0.93321075E-01 0.46291080E+03</pdfrwt>
<pdfrwt beam="2">  1       21 0.12414724E-01 0.46291080E+03</pdfrwt>
<totfact> 0.48776571E+04</totfact>
</mgrwt>
</event>
<event>
 7    0  0.4770865E-002  0.4537265E+03  0.7546771E-02  0.1026617E+00
         21   -1    0    0  502  501  0.00000000000E+00  0.00000000000E+00  0.23238689848E+03  0.23238689848E+03  0.00000000000E+00 0.  1.
         21   -1    0    0  501  502 -0.00000000000E+00 -0.00000000000E+00 -0.22147085606E+03  0.22147085606E+03  0.00000000000E+00 0.  1.
      99926    2    1    2    0    0  0.17763568394E-14  0.00000000000E+00  0.10916042417E+02  0.45385775454E+03  0.45372646096E+03 0.  0.
      99925    2    3    3    0    0 -0.13178720913E+02  0.63732710349E+02 -0.84231258513E+02  0.28375174633E+03  0.26302967814E+03 0.  0.
         25    1    4    4    0    0  0.13890833402E+02  0.65378446399E+02 -0.57233459618E+02  0.15293944392E+03  0.12509000000E+03 0.  0.
         25    1    4    4    0    0 -0.27069554316E+02 -0.16457360498E+01 -0.26997798895E+02  0.13081230242E+03  0.12509000000E+03 0.  0.
         25    1    3    3    0    0  0.13178720913E+02 -0.63732710349E+02  0.95147300930E+02  0.17010600821E+03  0.12509000000E+03 0.  0.
<mgrwt>
<rscale>  2 0.45372646E+03</rscale>
<asrwt>0</asrwt>
<pdfrwt beam="1">  1       21 0.34174544E-01 0.45372646E+03</pdfrwt>
<pdfrwt beam="2">  1       21 0.32569243E-01 0.45372646E+03</pdfrwt>
<totfact> 0.69331396E+04</totfact>
</mgrwt>
</event>
<event>
 7    0  0.4770865E-002  0.4531163E+03  0.7546771E-02  0.1026797E+00
         21   -1    0    0  502  501  0.00000000000E+00  0.00000000000E+00  0.85167894248E+02  0.85167894248E+02  0.00000000000E+00 0. -1.
         21   -1    0    0  501  502 -0.00000000000E+00 -0.00000000000E+00 -0.60267539487E+03  0.60267539487E+03  0.00000000000E+00 0. -1.
      99926    2    1    2    0    0  0.00000000000E+00  0.00000000000E+00 -0.51750750063E+03  0.68784328912E+03  0.45311629543E+03 0.  0.
      99925    2    3    3    0    0 -0.91793286214E+02 -0.54306791102E+02 -0.37478158570E+03  0.47014296793E+03  0.26305501015E+03 0.  0.
         25    1    3    3    0    0  0.91793286214E+02  0.54306791102E+02 -0.14272591493E+03  0.21770032119E+03  0.12509000000E+03 0.  0.
         25    1    4    4    0    0 -0.65596073197E+01 -0.26357205952E+02 -0.19759224939E+03  0.23543138252E+03  0.12509000000E+03 0.  0.
         25    1    4    4    0    0 -0.85233678894E+02 -0.27949585150E+02 -0.17718933630E+03  0.23471158541E+03  0.12509000000E+03 0.  0.
<mgrwt>
<rscale>  2 0.45311630E+03</rscale>
<asrwt>0</asrwt>
<pdfrwt beam="1">  1       21 0.12524690E-01 0.45311630E+03</pdfrwt>
<pdfrwt beam="2">  1       21 0.88628735E-01 0.45311630E+03</pdfrwt>
<totfact> 0.54369913E+04</totfact>
</mgrwt>
</event>
<event>
 6    0  0.4770865E-002  0.4555047E+03  0.7546771E-02  0.1026093E+00
         21   -1    0    0  502  501  0.00000000000E+00  0.00000000000E+00  0.13305746779E+03  0.13305746779E+03  0.00000000000E+00 0. -1.
         21   -1    0    0  501  502 -0.00000000000E+00 -0.00000000000E+00 -0.38984002198E+03  0.38984002198E+03  0.00000000000E+00 0. -1.
      99926    2    1    2    0    0  0.00000000000E+00  0.00000000000E+00 -0.25678255419E+03  0.52289748976E+03  0.45550467030E+03 0.  0.
         25    1    3    3    0    0 -0.33008849075E+02 -0.10349676613E+03 -0.48408419946E+02  0.17260373095E+03  0.12509000000E+03 0.  0.
         25    1    3    3    0    0  0.27425520513E+02  0.36499264454E+02 -0.63861260409E+02  0.14768251136E+03  0.12509000000E+03 0.  0.
         25    1    3    3    0    0  0.55833285618E+01  0.66997501676E+02 -0.14451287384E+03  0.20261124745E+03  0.12509000000E+03 0.  0.
<mgrwt>
<rscale>  2 0.45550467E+03</rscale>
<asrwt>0</asrwt>
<pdfrwt beam="1">  1       21 0.19567274E-01 0.45550467E+03</pdfrwt>
<pdfrwt beam="2">  1       21 0.57329416E-01 0.45550467E+03</pdfrwt>
<totfact> 0.63435646E+04</totfact>
</mgrwt>
</event>
<event>
 7    0  0.4770865E-002  0.4533986E+03  0.7546771E-02  0.1026713E+00
         21   -1    0    0  502  501  0.00000000000E+00  0.00000000000E+00  0.16208336042E+03  0.16208336042E+03  0.00000000000E+00 0.  1.
         21   -1    0    0  501  502 -0.00000000000E+00 -0.00000000000E+00 -0.31707494850E+03  0.31707494850E+03  0.00000000000E+00 0.  1.
      99926    2    1    2    0    0 -0.17763568394E-14  0.14210854715E-13 -0.15499158808E+03  0.47915830893E+03  0.45339860238E+03 0.  0.
      99925    2    3    3    0    0 -0.15114048159E+02  0.84415831947E+02 -0.17389530468E+03  0.32632072933E+03  0.26247128274E+03 0.  0.
         25    1    4    4    0    0  0.70588127278E+01  0.66149251701E+02 -0.56986448481E+02  0.15271055546E+03  0.12509000000E+03 0.  0.
         25    1    4    4    0    0 -0.22172860887E+02  0.18266580246E+02 -0.11690885620E+03  0.17361017387E+03  0.12509000000E+03 0.  0.
         25    1    3    3    0    0  0.15114048159E+02 -0.84415831947E+02  0.18903716601E+02  0.15283757959E+03  0.12509000000E+03 0.  0.
<mgrwt>
<rscale>  2 0.45339860E+03</rscale>
<asrwt>0</asrwt>
<pdfrwt beam="1">  1       21 0.23835788E-01 0.45339860E+03</pdfrwt>
<pdfrwt beam="2">  1       21 0.46628669E-01 0.45339860E+03</pdfrwt>
<totfact> 0.67616818E+04</totfact>
</mgrwt>
</event>
<event>
 7    0  0.4770865E-002  0.4520371E+03  0.7546771E-02  0.1027116E+00
         21   -1    0    0  502  501  0.00000000000E+00  0.00000000000E+00  0.19392873951E+03  0.19392873951E+03  0.00000000000E+00 0. -1.
         21   -1    0    0  501  502 -0.00000000000E+00 -0.00000000000E+00 -0.26341829741E+03  0.26341829741E+03  0.00000000000E+00 0. -1.
      99926    2    1    2    0    0  0.00000000000E+00 -0.14210854715E-13 -0.69489557904E+02  0.45734703692E+03  0.45203707096E+03 0.  0.
      99925    2    3    3    0    0  0.52911849955E+02  0.94450233891E+02 -0.65719485697E+02  0.29187126198E+03  0.26296249205E+03 0.  0.
         25    1    4    4    0    0  0.18976808162E+02  0.83640114132E+02 -0.55138813094E+02  0.16138024894E+03  0.12509000000E+03 0.  0.
         25    1    4    4    0    0  0.33935041793E+02  0.10810119759E+02 -0.10580672603E+02  0.13049101304E+03  0.12509000000E+03 0.  0.
         25    1    3    3    0    0 -0.52911849955E+02 -0.94450233891E+02 -0.37700722068E+01  0.16547577494E+03  0.12509000000E+03 0.  0.
<mgrwt>
<rscale>  2 0.45203707E+03</rscale>
<asrwt>0</asrwt>
<pdfrwt beam="1">  1       21 0.28518932E-01 0.45203707E+03</pdfrwt>
<pdfrwt beam="2">  1       21 0.38737985E-01 0.45203707E+03</pdfrwt>
<totfact> 0.70014072E+04</totfact>
</mgrwt>
</event>
<event>
 7    0  0.4770865E-002  0.4549315E+03  0.7546771E-02  0.1026262E+00
         21   -1    0    0  502  501  0.00000000000E+00  0.00000000000E+00  0.33277731862E+03  0.33277731862E+03  0.00000000000E+00 0. -1.
         21   -1    0    0  501  502 -0.00000000000E+00 -0.00000000000E+00 -0.15548131912E+03  0.15548131912E+03  0.00000000000E+00 0. -1.
      99926    2    1    2    0    0  0.00000000000E+00  0.14210854715E-13  0.17729599950E+03  0.48825863775E+03  0.45493145186E+03 0.  0.
      99925    2    3    3    0    0  0.80655834665E+02  0.66833554111E+02  0.66248187514E+02  0.29089802296E+03  0.26317437146E+03 0.  0.
         25    1    3    3    0    0 -0.80655834665E+02 -0.66833554111E+02  0.11104781198E+03  0.19736061478E+03  0.12509000000E+03 0.  0.
         25    1    4    4    0    0  0.17787978429E+02  0.66065891322E+02  0.43451275175E+02  0.14905245918E+03  0.12509000000E+03 0.  0.
         25    1    4    4    0    0  0.62867856236E+02  0.76766278959E+00  0.22796912339E+02  0.14184556379E+03  0.12509000000E+03 0.  0.
<mgrwt>
<rscale>  2 0.45493145E+03</rscale>
<asrwt>0</asrwt>
<pdfrwt beam="1">  1       21 0.48937841E-01 0.45493145E+03</pdfrwt>
<pdfrwt beam="2">  1       21 0.22864900E-01 0.45493145E+03</pdfrwt>
<totfact> 0.66139653E+04</totfact>
</mgrwt>
</event>
<event>
 7    0  0.4770865E-002  0.4546434E+03  0.7546771E-02  0.1026346E+00
         21   -1    0    0  502  501  0.00000000000E+00  0.00000000000E+00  0.19874249314E+03  0.19874249314E+03  0.00000000000E+00 0.  1.
         21   -1    0    0  501  502 -0.00000000000E+00 -0.00000000000E+00 -0.26001063952E+03  0.26001063952E+03  0.00000000000E+00 0.  1.
      99926    2    1    2    0    0  0.00000000000E+00  0.00000000000E+00 -0.61268146375E+02  0.45875313266E+03  0.45464343277E+03 0.  0.
      99925    2    3    3    0    0 -0.73921194588E+02  0.50420410864E+02  0.30784408156E+02  0.27951100107E+03  0.26300600581E+03 0.  0.
         25    1    3    3    0    0  0.73921194588E+02 -0.50420410864E+02 -0.92052554532E+02  0.17924213159E+03  0.12509000000E+03 0.  0.
         25    1    4    4    0    0 -0.49700184762E+02  0.50848479760E+02 -0.13742177649E+02  0.14454076175E+03  0.12509000000E+03 0.  0.
         25    1    4    4    0    0 -0.24221009826E+02 -0.42806889675E+00  0.44526585806E+02  0.13497023933E+03  0.12509000000E+03 0.  0.
<mgrwt>
<rscale>  2 0.45464343E+03</rscale>
<asrwt>0</asrwt>
<pdfrwt beam="1">  1       21 0.29226837E-01 0.45464343E+03</pdfrwt>
<pdfrwt beam="2">  1       21 0.38236859E-01 0.45464343E+03</pdfrwt>
<totfact> 0.68466010E+04</totfact>
</mgrwt>
</event>
<event>
 7    0  0.4770865E-002  0.4274121E+03  0.7546771E-02  0.1034681E+00
         21   -1    0    0  502  501  0.00000000000E+00  0.00000000000E+00  0.65757961380E+02  0.65757961380E+02  0.00000000000E+00 0.  1.
         21   -1    0    0  501  502 -0.00000000000E+00 -0.00000000000E+00 -0.69452088702E+03  0.69452088702E+03  0.00000000000E+00 0.  1.
      99926    2    1    2    0    0  0.00000000000E+00  0.00000000000E+00 -0.62876292564E+03  0.76027884840E+03  0.42741210870E+03 0.  0.
      99925    2    3    3    0    0 -0.55963834439E+02 -0.36803329663E+02 -0.31482763201E+03  0.41576569549E+03  0.26316960279E+03 0.  0.
         25    1    4    4    0    0 -0.18332160286E+02 -0.50518975747E+02 -0.12431405597E+03  0.18436303215E+03  0.12509000000E+03 0.  0.
         25    1    4    4    0    0 -0.37631674153E+02  0.13715646084E+02 -0.19051357604E+03  0.23140266334E+03  0.12509000000E+03 0.  0.
         25    1    3    3    0    0  0.55963834439E+02  0.36803329663E+02 -0.31393529363E+03  0.34451315291E+03  0.12509000000E+03 0.  0.
<mgrwt>
<rscale>  2 0.42741211E+03</rscale>
<asrwt>0</asrwt>
<pdfrwt beam="1">  1       21 0.96702889E-02 0.42741211E+03</pdfrwt>
<pdfrwt beam="2">  1       21 0.10213542E+00 0.42741211E+03</pdfrwt>
<totfact> 0.62154769E+04</totfact>
</mgrwt>
</event>
<event>
 7    0  0.4770865E-002  0.4661697E+03  0.7546771E-02  0.1023007E+00
         21   -1    0    0  502  501  0.00000000000E+00  0.00000000000E+00  0.21202550293E+03  0.21202550293E+03  0.00000000000E+00 0. -1.
         21   -1    0    0  501  502 -0.00000000000E+00 -0.00000000000E+00 -0.25623589302E+03  0.25623589302E+03  0.00000000000E+00 0. -1.
      99926    2    1    2    0    0  0.00000000000E+00  0.00000000000E+00 -0.44210390088E+02  0.46826139596E+03  0.46616968622E+03 0.  0.
      99925    2    3    3    0    0 -0.50869484225E+02 -0.72096911627E+02 -0.11413301672E+03  0.29996893948E+03  0.26300066550E+03 0.  0.
         25    1    4    4    0    0 -0.26607712820E+02 -0.69819571586E+02 -0.34638563909E+02  0.14976675588E+03  0.12509000000E+03 0.  0.
         25    1    4    4    0    0 -0.24261771405E+02 -0.22773400414E+01 -0.79494452813E+02  0.15020218360E+03  0.12509000000E+03 0.  0.
         25    1    3    3    0    0  0.50869484225E+02  0.72096911627E+02  0.69922626634E+02  0.16829245648E+03  0.12509000000E+03 0.  0.
<mgrwt>
<rscale>  2 0.46616969E+03</rscale>
<asrwt>0</asrwt>
<pdfrwt beam="1">  1       21 0.31180221E-01 0.46616969E+03</pdfrwt>
<pdfrwt beam="2">  1       21 0.37681749E-01 0.46616969E+03</pdfrwt>
<totfact> 0.61883401E+04</totfact>
</mgrwt>
</event>
<event>
 7    0  0.4770865E-002  0.4521054E+03  0.7546771E-02  0.1027096E+00
         21   -1    0    0  502  501  0.00000000000E+00  0.00000000000E+00  0.86425273034E+02  0.86425273034E+02  0.00000000000E+00 0. -1.
         21   -1    0    0  501  502 -0.00000000000E+00 -0.00000000000E+00 -0.59126013668E+03  0.59126013668E+03  0.00000000000E+00 0. -1.
      99926    2    1    2    0    0  0.00000000000E+00  0.00000000000E+00 -0.50483486365E+03  0.67768540972E+03  0.45210538040E+03 0.  0.
      99925    2    3    3    0    0 -0.18337795743E+02 -0.89264902177E+02 -0.41283948506E+03  0.49764331660E+03  0.26250320496E+03 0.  0.
         25    1    3    3    0    0  0.18337795743E+02  0.89264902177E+02 -0.91995378593E+02  0.18004209312E+03  0.12509000000E+03 0.  0.
         25    1    4    4    0    0 -0.96789423841E+01 -0.77013098024E+02 -0.26721771460E+03  0.30508607685E+03  0.12509000000E+03 0.  0.
         25    1    4    4    0    0 -0.86588533594E+01 -0.12251804153E+02 -0.14562177046E+03  0.19255723974E+03  0.12509000000E+03 0.  0.
<mgrwt>
<rscale>  2 0.45210538E+03</rscale>
<asrwt>0</asrwt>
<pdfrwt beam="1">  1       21 0.12709599E-01 0.45210538E+03</pdfrwt>
<pdfrwt beam="2">  1       21 0.86950022E-01 0.45210538E+03</pdfrwt>
<totfact> 0.55383516E+04</totfact>
</mgrwt>
</event>
<event>
 7    0  0.4770865E-002  0.4317828E+03  0.7546771E-02  0.1033298E+00
         21   -1    0    0  502  501  0.00000000000E+00  0.00000000000E+00  0.41279554515E+02  0.41279554515E+02  0.00000000000E+00 0. -1.
         21   -1    0    0  501  502 -0.00000000000E+00 -0.00000000000E+00 -0.11291086920E+04  0.11291086920E+04  0.00000000000E+00 0. -1.
      99926    2    1    2    0    0  0.00000000000E+00  0.00000000000E+00 -0.10878291375E+04  0.11703882466E+04  0.43178283341E+03 0.  0.
      99925    2    3    3    0    0  0.77957078934E+02  0.42289642850E+02 -0.66409266118E+03  0.71975998564E+03  0.26300124382E+03 0.  0.
         25    1    4    4    0    0  0.25781316758E+02 -0.17767758906E+02 -0.29076517277E+03  0.31807587672E+03  0.12509000000E+03 0.  0.
         25    1    3    3    0    0 -0.77957078934E+02 -0.42289642850E+02 -0.42373647636E+03  0.45062826092E+03  0.12509000000E+03 0.  0.
         25    1    4    4    0    0  0.52175762176E+02  0.60057401756E+02 -0.37332748840E+03  0.40168410892E+03  0.12509000000E+03 0.  0.
<mgrwt>
<rscale>  2 0.43178283E+03</rscale>
<asrwt>0</asrwt>
<pdfrwt beam="1">  1       21 0.60705220E-02 0.43178283E+03</pdfrwt>
<pdfrwt beam="2">  1       21 0.16604542E+00 0.43178283E+03</pdfrwt>
<totfact> 0.39843170E+04</totfact>
</mgrwt>
</event>
<event>
 7    0  0.4770865E-002  0.4596298E+03  0.7546771E-02  0.1024889E+00
         21   -1    0    0  502  501  0.00000000000E+00  0.00000000000E+00  0.15019014918E+03  0.15019014918E+03  0.00000000000E+00 0. -1.
         21   -1    0    0  501  502 -0.00000000000E+00 -0.00000000000E+00 -0.35165340115E+03  0.35165340115E+03  0.00000000000E+00 0. -1.
      99926    2    1    2    0    0  0.00000000000E+00  0.00000000000E+00 -0.20146325197E+03  0.50184355032E+03  0.45962975002E+03 0.  0.
      99925    2    3    3    0    0 -0.64174693569E+01  0.97239903469E+02 -0.54836164393E+02  0.28587180761E+03  0.26309485499E+03 0.  0.
         25    1    4    4    0    0 -0.22045682332E+01  0.72789969137E+02 -0.63480936728E+02  0.15805245065E+03  0.12509000000E+03 0.  0.
         25    1    4    4    0    0 -0.42129011237E+01  0.24449934333E+02  0.86447723349E+01  0.12781935696E+03  0.12509000000E+03 0.  0.
         25    1    3    3    0    0  0.64174693569E+01 -0.97239903469E+02 -0.14662708758E+03  0.21597174272E+03  0.12509000000E+03 0.  0.
<mgrwt>
<rscale>  2 0.45962975E+03</rscale>
<asrwt>0</asrwt>
<pdfrwt beam="1">  1       21 0.22086787E-01 0.45962975E+03</pdfrwt>
<pdfrwt beam="2">  1       21 0.51713734E-01 0.45962975E+03</pdfrwt>
<totfact> 0.62801360E+04</totfact>
</mgrwt>
</event>
<event>
 7    0  0.4770865E-002  0.3961430E+03  0.7546771E-02  0.1045123E+00
         21   -1    0    0  502  501  0.00000000000E+00  0.00000000000E+00  0.41250198677E+02  0.41250198677E+02  0.00000000000E+00 0.  1.
         21   -1    0    0  501  502 -0.00000000000E+00 -0.00000000000E+00 -0.95108215606E+03  0.95108215606E+03  0.00000000000E+00 0.  1.
      99926    2    1    2    0    0  0.44408920985E-15  0.00000000000E+00 -0.90983195738E+03  0.99233235473E+03  0.39614304434E+03 0.  0.
      99925    2    3    3    0    0  0.26711681287E+01 -0.38713470334E+02 -0.61375138275E+03  0.66857769037E+03  0.26229658844E+03 0.  0.
         25    1    4    4    0    0 -0.69080732140E+01  0.13213624642E+02 -0.34898579811E+03  0.37102684099E+03  0.12509000000E+03 0.  0.
         25    1    4    4    0    0  0.95792413427E+01 -0.51927094976E+02 -0.26476558463E+03  0.29755084937E+03  0.12509000000E+03 0.  0.
         25    1    3    3    0    0 -0.26711681287E+01  0.38713470334E+02 -0.29608057463E+03  0.32375466437E+03  0.12509000000E+03 0.  0.
<mgrwt>
<rscale>  2 0.39614304E+03</rscale>
<asrwt>0</asrwt>
<pdfrwt beam="1">  1       21 0.60662058E-02 0.39614304E+03</pdfrwt>
<pdfrwt beam="2">  1       21 0.13986502E+00 0.39614304E+03</pdfrwt>
<totfact> 0.64338200E+04</totfact>
</mgrwt>
</event>
<event>
 7    0  0.4770865E-002  0.4522276E+03  0.7546771E-02  0.1027060E+00
         21   -1    0    0  502  501  0.00000000000E+00  0.00000000000E+00  0.37237213568E+03  0.37237213568E+03  0.00000000000E+00 0.  1.
         21   -1    0    0  501  502 -0.00000000000E+00 -0.00000000000E+00 -0.13730203384E+03  0.13730203384E+03  0.00000000000E+00 0.  1.
      99926    2    1    2    0    0  0.00000000000E+00 -0.14210854715E-13  0.23507010185E+03  0.50967416952E+03  0.45222760453E+03 0.  0.
      99925    2    3    3    0    0  0.11983325426E+02 -0.10632481306E+03  0.11697810543E+03  0.30708642636E+03  0.26300119799E+03 0.  0.
         25    1    4    4    0    0  0.18756277330E+02 -0.80813215285E+02  0.94249404738E+02  0.17723721984E+03  0.12509000000E+03 0.  0.
         25    1    4    4    0    0 -0.67729519041E+01 -0.25511597779E+02  0.22728700693E+02  0.12984920652E+03  0.12509000000E+03 0.  0.
         25    1    3    3    0    0 -0.11983325426E+02  0.10632481306E+03  0.11809199642E+03  0.20258774316E+03  0.12509000000E+03 0.  0.
<mgrwt>
<rscale>  2 0.45222760E+03</rscale>
<asrwt>0</asrwt>
<pdfrwt beam="1">  1       21 0.54760608E-01 0.45222760E+03</pdfrwt>
<pdfrwt beam="2">  1       21 0.20191476E-01 0.45222760E+03</pdfrwt>
<totfact> 0.66037242E+04</totfact>
</mgrwt>
</event>
<event>
 7    0  0.4770865E-002  0.4388636E+03  0.7546771E-02  0.1031096E+00
         21   -1    0    0  502  501  0.00000000000E+00  0.00000000000E+00  0.29117455479E+03  0.29117455479E+03  0.00000000000E+00 0.  1.
         21   -1    0    0  501  502 -0.00000000000E+00 -0.00000000000E+00 -0.16536580071E+03  0.16536580071E+03  0.00000000000E+00 0.  1.
      99926    2    1    2    0    0  0.00000000000E+00 -0.35527136788E-14  0.12580875408E+03  0.45654035550E+03  0.43886359338E+03 0.  0.
      99925    2    3    3    0    0  0.76520241077E+02 -0.25965042996E+02  0.13681969114E+03  0.30721427075E+03  0.26292860155E+03 0.  0.
         25    1    4    4    0    0  0.46615957948E+02  0.86522344160E+01  0.31548879259E+02  0.13744361963E+03  0.12509000000E+03 0.  0.
         25    1    3    3    0    0 -0.76520241077E+02  0.25965042996E+02 -0.11010937067E+02  0.14932608475E+03  0.12509000000E+03 0.  0.
         25    1    4    4    0    0  0.29904283129E+02 -0.34617277412E+02  0.10527081188E+03  0.16977065111E+03  0.12509000000E+03 0.  0.
<mgrwt>
<rscale>  2 0.43886359E+03</rscale>
<asrwt>0</asrwt>
<pdfrwt beam="1">  1       21 0.42819788E-01 0.43886359E+03</pdfrwt>
<pdfrwt beam="2">  1       21 0.24318500E-01 0.43886359E+03</pdfrwt>
<totfact> 0.77961858E+04</totfact>
</mgrwt>
</event>
<event>
 7    0  0.4770865E-002  0.4567397E+03  0.7546771E-02  0.1025731E+00
         21   -1    0    0  502  501  0.00000000000E+00  0.00000000000E+00  0.11356254299E+04  0.11356254299E+04  0.00000000000E+00 0. -1.
         21   -1    0    0  501  502 -0.00000000000E+00 -0.00000000000E+00 -0.45924294472E+02  0.45924294472E+02  0.00000000000E+00 0. -1.
      99926    2    1    2    0    0  0.14210854715E-13  0.13322676296E-14  0.10897011355E+04  0.11815497244E+04  0.45673973619E+03 0.  0.
      99925    2    3    3    0    0  0.11334381671E+03  0.30663900290E+01  0.63874287860E+03  0.70002393998E+03  0.26303008963E+03 0.  0.
         25    1    3    3    0    0 -0.11334381671E+03 -0.30663900290E+01  0.45095825688E+03  0.48152578444E+03  0.12509000000E+03 0.  0.
         25    1    4    4    0    0  0.72626279734E+02  0.14118066393E+02  0.42109896846E+03  0.44547249707E+03  0.12509000000E+03 0.  0.
         25    1    4    4    0    0  0.40717536973E+02 -0.11051676364E+02  0.21764391013E+03  0.25455144291E+03  0.12509000000E+03 0.  0.
<mgrwt>
<rscale>  2 0.45673974E+03</rscale>
<asrwt>0</asrwt>
<pdfrwt beam="1">  1       21 0.16700372E+00 0.45673974E+03</pdfrwt>
<pdfrwt beam="2">  1       21 0.67535734E-02 0.45673974E+03</pdfrwt>
<totfact> 0.32306134E+04</totfact>
</mgrwt>
</event>
<event>
 7    0  0.4770865E-002  0.4686560E+03  0.7546771E-02  0.1022300E+00
         21   -1    0    0  502  501  0.00000000000E+00  0.00000000000E+00  0.96942609480E+02  0.96942609480E+02  0.00000000000E+00 0.  1.
         21   -1    0    0  501  502 -0.00000000000E+00 -0.00000000000E+00 -0.56641352595E+03  0.56641352595E+03  0.00000000000E+00 0.  1.
      99926    2    1    2    0    0  0.00000000000E+00  0.00000000000E+00 -0.46947091647E+03  0.66335613543E+03  0.46865597297E+03 0.  0.
      99925    2    3    3    0    0  0.58793564059E+02 -0.23145848741E+02 -0.13897976253E+03  0.30437936122E+03  0.26332301011E+03 0.  0.
         25    1    4    4    0    0  0.24602835135E+02 -0.52437491062E+02 -0.71423923204E+02  0.15525422658E+03  0.12509000000E+03 0.  0.
         25    1    3    3    0    0 -0.58793564059E+02  0.23145848741E+02 -0.33049115394E+03  0.35897677421E+03  0.12509000000E+03 0.  0.
         25    1    4    4    0    0  0.34190728923E+02  0.29291642321E+02 -0.67555839326E+02  0.14912513464E+03  0.12509000000E+03 0.  0.
<mgrwt>
<rscale>  2 0.46865597E+03</rscale>
<asrwt>0</asrwt>
<pdfrwt beam="1">  1       21 0.14256266E-01 0.46865597E+03</pdfrwt>
<pdfrwt beam="2">  1       21 0.83296108E-01 0.46865597E+03</pdfrwt>
<totfact> 0.49399312E+04</totfact>
</mgrwt>
</event>
<event>
 7    0  0.4770865E-002  0.4174810E+03  0.7546771E-02  0.1037889E+00
         21   -1    0    0  502  501  0.00000000000E+00  0.00000000000E+00  0.22266567769E+03  0.22266567769E+03  0.00000000000E+00 0.  1.
         21   -1    0    0  501  502 -0.00000000000E+00 -0.00000000000E+00 -0.19568616079E+03  0.19568616079E+03  0.00000000000E+00 0.  1.
      99926    2    1    2    0    0  0.00000000000E+00  0.00000000000E+00  0.26979516903E+02  0.41835183848E+03  0.41748097733E+03 0.  0.
      99925    2    3    3    0    0  0.35814088320E+02 -0.46621802985E+02  0.60349604685E+02  0.27616424305E+03  0.26299880783E+03 0.  0.
         25    1    4    4    0    0  0.13245184662E+02  0.12556168071E+02  0.48701091223E+02  0.13547101778E+03  0.12509000000E+03 0.  0.
         25    1    4    4    0    0  0.22568903659E+02 -0.59177971055E+02  0.11648513462E+02  0.14069322527E+03  0.12509000000E+03 0.  0.
         25    1    3    3    0    0 -0.35814088320E+02  0.46621802985E+02 -0.33370087782E+02  0.14218759543E+03  0.12509000000E+03 0.  0.
<mgrwt>
<rscale>  2 0.41748098E+03</rscale>
<asrwt>0</asrwt>
<pdfrwt beam="1">  1       21 0.32744953E-01 0.41748098E+03</pdfrwt>
<pdfrwt beam="2">  1       21 0.28777377E-01 0.41748098E+03</pdfrwt>
<totfact> 0.97359413E+04</totfact>
</mgrwt>
</event>
<event>
 7    0  0.4770865E-002  0.4396069E+03  0.7546771E-02  0.1030867E+00
         21   -1    0    0  502  501  0.00000000000E+00  0.00000000000E+00  0.46430562777E+03  0.46430562777E+03  0.00000000000E+00 0. -1.
         21   -1    0    0  501  502 -0.00000000000E+00 -0.00000000000E+00 -0.10405548626E+03  0.10405548626E+03  0.00000000000E+00 0. -1.
      99926    2    1    2    0    0 -0.71054273576E-14  0.88817841970E-15  0.36025014151E+03  0.56836111403E+03  0.43960686014E+03 0.  0.
      99925    2    3    3    0    0  0.57887693768E+02 -0.66977931933E+01  0.12813278930E+03  0.29832071183E+03  0.26302355387E+03 0.  0.
         25    1    3    3    0    0 -0.57887693768E+02  0.66977931933E+01  0.23211735221E+03  0.27004040220E+03  0.12509000000E+03 0.  0.
         25    1    4    4    0    0  0.60515073760E+02  0.90815029532E+01  0.92842708049E+02  0.16736733369E+03  0.12509000000E+03 0.  0.
         25    1    4    4    0    0 -0.26273799928E+01 -0.15779296146E+02  0.35290081254E+02  0.13095337814E+03  0.12509000000E+03 0.  0.
<mgrwt>
<rscale>  2 0.43960686E+03</rscale>
<asrwt>0</asrwt>
<pdfrwt beam="1">  1       21 0.68280239E-01 0.43960686E+03</pdfrwt>
<pdfrwt beam="2">  1       21 0.15302278E-01 0.43960686E+03</pdfrwt>
<totfact> 0.68652175E+04</totfact>
</mgrwt>
</event>
<event>
 7    0  0.4770865E-002  0.4491738E+03  0.7546771E-02  0.1027969E+00
         21   -1    0    0  502  501  0.00000000000E+00  0.00000000000E+00  0.44728416786E+03  0.44728416786E+03  0.00000000000E+00 0.  1.
         21   -1    0    0  501  502 -0.00000000000E+00 -0.00000000000E+00 -0.11276785878E+03  0.11276785878E+03  0.00000000000E+00 0.  1.
      99926    2    1    2    0    0  0.00000000000E+00  0.00000000000E+00  0.33451630908E+03  0.56005202664E+03  0.44917380990E+03 0.  0.
      99925    2    3    3    0    0 -0.69316330356E+02 -0.70973589113E+02  0.16013499201E+03  0.32362369533E+03  0.26314839256E+03 0.  0.
         25    1    3    3    0    0  0.69316330356E+02  0.70973589113E+02  0.17438131707E+03  0.23642833131E+03  0.12509000000E+03 0.  0.
         25    1    4    4    0    0 -0.82918993589E+01 -0.14146043594E+01  0.64556516621E+02  0.14101705088E+03  0.12509000000E+03 0.  0.
         25    1    4    4    0    0 -0.61024430997E+02 -0.69558984753E+02  0.95578475392E+02  0.18260664445E+03  0.12509000000E+03 0.  0.
<mgrwt>
<rscale>  2 0.44917381E+03</rscale>
<asrwt>0</asrwt>
<pdfrwt beam="1">  1       21 0.65777083E-01 0.44917381E+03</pdfrwt>
<pdfrwt beam="2">  1       21 0.16583509E-01 0.44917381E+03</pdfrwt>
<totfact> 0.64110905E+04</totfact>
</mgrwt>
</event>
<event>
 7    0  0.4770865E-002  0.4549171E+03  0.7546771E-02  0.1026266E+00
         21   -1    0    0  502  501  0.00000000000E+00  0.00000000000E+00  0.63921725143E+02  0.63921725143E+02  0.00000000000E+00 0. -1.
         21   -1    0    0  501  502 -0.00000000000E+00 -0.00000000000E+00 -0.80938674001E+03  0.80938674001E+03  0.00000000000E+00 0. -1.
      99926    2    1    2    0    0  0.00000000000E+00  0.00000000000E+00 -0.74546501487E+03  0.87330846516E+03  0.45491712094E+03 0.  0.
      99925    2    3    3    0    0 -0.16161973735E+02  0.69973337347E+02 -0.63682026237E+03  0.69272976298E+03  0.26301520986E+03 0.  0.
         25    1    3    3    0    0  0.16161973735E+02 -0.69973337347E+02 -0.10864475250E+03  0.18057870218E+03  0.12509000000E+03 0.  0.
         25    1    4    4    0    0  0.12466475146E+02  0.58571749026E+02 -0.39652500509E+03  0.42007814814E+03  0.12509000000E+03 0.  0.
         25    1    4    4    0    0 -0.28628448881E+02  0.11401588321E+02 -0.24029525728E+03  0.27265161484E+03  0.12509000000E+03 0.  0.
<mgrwt>
<rscale>  2 0.45491712E+03</rscale>
<asrwt>0</asrwt>
<pdfrwt beam="1">  1       21 0.94002538E-02 0.45491712E+03</pdfrwt>
<pdfrwt beam="2">  1       21 0.11902746E+00 0.45491712E+03</pdfrwt>
<totfact> 0.44436726E+04</totfact>
</mgrwt>
</event>
<event>
 7    0  0.4770865E-002  0.4705874E+03  0.7546771E-02  0.1021755E+00
         21   -1    0    0  502  501  0.00000000000E+00  0.00000000000E+00  0.92592328945E+02  0.92592328945E+02  0.00000000000E+00 0. -1.
         21   -1    0    0  501  502 -0.00000000000E+00 -0.00000000000E+00 -0.59792356639E+03  0.59792356639E+03  0.00000000000E+00 0. -1.
      99926    2    1    2    0    0 -0.14210854715E-13  0.00000000000E+00 -0.50533123745E+03  0.69051589534E+03  0.47058744370E+03 0.  0.
      99925    2    3    3    0    0 -0.95985837938E+02 -0.67317706554E+02 -0.38632288350E+03  0.48181646767E+03  0.26297677369E+03 0.  0.
         25    1    3    3    0    0  0.95985837938E+02  0.67317706554E+02 -0.11900835394E+03  0.20869942767E+03  0.12509000000E+03 0.  0.
         25    1    4    4    0    0 -0.88902843686E+02 -0.30280546388E+02 -0.22886334256E+03  0.27721212956E+03  0.12509000000E+03 0.  0.
         25    1    4    4    0    0 -0.70829942519E+01 -0.37037160166E+02 -0.15745954094E+03  0.20460433811E+03  0.12509000000E+03 0.  0.
<mgrwt>
<rscale>  2 0.47058744E+03</rscale>
<asrwt>0</asrwt>
<pdfrwt beam="1">  1       21 0.13616519E-01 0.47058744E+03</pdfrwt>
<pdfrwt beam="2">  1       21 0.87929934E-01 0.47058744E+03</pdfrwt>
<totfact> 0.47335757E+04</totfact>
</mgrwt>
</event>
<event>
 7    0  0.4770865E-002  0.4301094E+03  0.7546771E-02  0.1033825E+00
         21   -1    0    0  502  501  0.00000000000E+00  0.00000000000E+00  0.96034749728E+03  0.96034749728E+03  0.00000000000E+00 0. -1.
         21   -1    0    0  501  502 -0.00000000000E+00 -0.00000000000E+00 -0.48158109308E+02  0.48158109308E+02  0.00000000000E+00 0. -1.
      99926    2    1    2    0    0  0.00000000000E+00 -0.14210854715E-13  0.91218938798E+03  0.10085056066E+04  0.43010938026E+03 0.  0.
      99925    2    3    3    0    0 -0.31963829404E+02  0.76108212137E+02  0.51584791078E+03  0.58477429905E+03  0.26276941875E+03 0.  0.
         25    1    4    4    0    0  0.77904748777E+00  0.74870243573E+02  0.28769904439E+03  0.32252815154E+03  0.12509000000E+03 0.  0.
         25    1    4    4    0    0 -0.32742876892E+02  0.12379685636E+01  0.22814886639E+03  0.26224614752E+03  0.12509000000E+03 0.  0.
         25    1    3    3    0    0  0.31963829404E+02 -0.76108212137E+02  0.39634147719E+03  0.42373130754E+03  0.12509000000E+03 0.  0.
<mgrwt>
<rscale>  2 0.43010938E+03</rscale>
<asrwt>0</asrwt>
<pdfrwt beam="1">  1       21 0.14122756E+00 0.43010938E+03</pdfrwt>
<pdfrwt beam="2">  1       21 0.70820755E-02 0.43010938E+03</pdfrwt>
<totfact> 0.47402301E+04</totfact>
</mgrwt>
</event>
<event>
 7    0  0.4770865E-002  0.4509723E+03  0.7546771E-02  0.1027432E+00
         21   -1    0    0  502  501  0.00000000000E+00  0.00000000000E+00  0.34804000547E+03  0.34804000547E+03  0.00000000000E+00 0. -1.
         21   -1    0    0  501  502 -0.00000000000E+00 -0.00000000000E+00 -0.14608667166E+03  0.14608667166E+03  0.00000000000E+00 0. -1.
      99926    2    1    2    0    0  0.00000000000E+00  0.00000000000E+00  0.20195333381E+03  0.49412667713E+03  0.45097230959E+03 0.  0.
      99925    2    3    3    0    0 -0.80670973794E+02  0.71789213868E+02  0.14881616517E+03  0.32053933879E+03  0.26255993498E+03 0.  0.
         25    1    4    4    0    0 -0.53392027543E+02  0.51299917634E+02  0.11810439620E+03  0.18729267646E+03  0.12509000000E+03 0.  0.
         25    1    4    4    0    0 -0.27278946251E+02  0.20489296234E+02  0.30711768972E+02  0.13324666233E+03  0.12509000000E+03 0.  0.
         25    1    3    3    0    0  0.80670973794E+02 -0.71789213868E+02  0.53137168638E+02  0.17358733834E+03  0.12509000000E+03 0.  0.
<mgrwt>
<rscale>  2 0.45097231E+03</rscale>
<asrwt>0</asrwt>
<pdfrwt beam="1">  1       21 0.51182354E-01 0.45097231E+03</pdfrwt>
<pdfrwt beam="2">  1       21 0.21483334E-01 0.45097231E+03</pdfrwt>
<totfact> 0.67828177E+04</totfact>
</mgrwt>
</event>
<event>
 7    0  0.4770865E-002  0.4415380E+03  0.7546771E-02  0.1030276E+00
         21   -1    0    0  502  501  0.00000000000E+00  0.00000000000E+00  0.42112117967E+03  0.42112117967E+03  0.00000000000E+00 0.  1.
         21   -1    0    0  501  502 -0.00000000000E+00 -0.00000000000E+00 -0.11573618143E+03  0.11573618143E+03  0.00000000000E+00 0.  1.
      99926    2    1    2    0    0  0.00000000000E+00  0.00000000000E+00  0.30538499824E+03  0.53685736110E+03  0.44153802669E+03 0.  0.
      99925    2    3    3    0    0  0.32638821659E+02 -0.70649911008E+02  0.27140896296E+03  0.38566681352E+03  0.26271536549E+03 0.  0.
         25    1    3    3    0    0 -0.32638821659E+02  0.70649911008E+02  0.33976035282E+02  0.15119054758E+03  0.12509000000E+03 0.  0.
         25    1    4    4    0    0  0.20747381765E+02  0.69415063693E+00  0.10005958605E+03  0.16152512051E+03  0.12509000000E+03 0.  0.
         25    1    4    4    0    0  0.11891439895E+02 -0.71344061644E+02  0.17134937692E+03  0.22414169301E+03  0.12509000000E+03 0.  0.
<mgrwt>
<rscale>  2 0.44153803E+03</rscale>
<asrwt>0</asrwt>
<pdfrwt beam="1">  1       21 0.61929585E-01 0.44153803E+03</pdfrwt>
<pdfrwt beam="2">  1       21 0.17020027E-01 0.44153803E+03</pdfrwt>
<totfact> 0.69898247E+04</totfact>
</mgrwt>
</event>
<event>
 7    0  0.4770865E-002  0.4541697E+03  0.7546771E-02  0.1026486E+00
         21   -1    0    0  502  501  0.00000000000E+00  0.00000000000E+00  0.13119225918E+03  0.13119225918E+03  0.00000000000E+00 0.  1.
         21   -1    0    0  501  502 -0.00000000000E+00 -0.00000000000E+00 -0.39306832882E+03  0.39306832882E+03  0.00000000000E+00 0.  1.
      99926    2    1    2    0    0  0.35527136788E-14  0.71054273576E-14 -0.26187606964E+03  0.52426058799E+03  0.45416966903E+03 0.  0.
      99925    2    3    3    0    0 -0.20750999563E+02 -0.62472204572E+02 -0.60386401678E+02  0.27813262387E+03  0.26339677034E+03 0.  0.
         25    1    4    4    0    0 -0.19341583458E+01 -0.32617951518E+02  0.11161930910E+02  0.12976813373E+03  0.12509000000E+03 0.  0.
         25    1    4    4    0    0 -0.18816841218E+02 -0.29854253054E+02 -0.71548332588E+02  0.14836449014E+03  0.12509000000E+03 0.  0.
         25    1    3    3    0    0  0.20750999563E+02  0.62472204572E+02 -0.20148966796E+03  0.24612796412E+03  0.12509000000E+03 0.  0.
<mgrwt>
<rscale>  2 0.45416967E+03</rscale>
<asrwt>0</asrwt>
<pdfrwt beam="1">  1       21 0.19292979E-01 0.45416967E+03</pdfrwt>
<pdfrwt beam="2">  1       21 0.57804167E-01 0.45416967E+03</pdfrwt>
<totfact> 0.64017050E+04</totfact>
</mgrwt>
</event>
<event>
 7    0  0.4770865E-002  0.4322658E+03  0.7546771E-02  0.1033147E+00
         21   -1    0    0  502  501  0.00000000000E+00  0.00000000000E+00  0.25649531715E+03  0.25649531715E+03  0.00000000000E+00 0.  1.
         21   -1    0    0  501  502 -0.00000000000E+00 -0.00000000000E+00 -0.18212199763E+03  0.18212199763E+03  0.00000000000E+00 0.  1.
      99926    2    1    2    0    0  0.71054273576E-14  0.17763568394E-14  0.74373319521E+02  0.43861731478E+03  0.43226584201E+03 0.  0.
      99925    2    3    3    0    0  0.48409218079E+02  0.21301598878E+01 -0.29411123652E+02  0.26900980103E+03  0.26297009123E+03 0.  0.
         25    1    3    3    0    0 -0.48409218079E+02 -0.21301598878E+01  0.10378444317E+03  0.16960751375E+03  0.12509000000E+03 0.  0.
         25    1    4    4    0    0  0.26727511808E+02 -0.38286427624E+02 -0.24046711502E+02  0.13566857728E+03  0.12509000000E+03 0.  0.
         25    1    4    4    0    0  0.21681706271E+02  0.40416587512E+02 -0.53644121502E+01  0.13334122375E+03  0.12509000000E+03 0.  0.
<mgrwt>
<rscale>  2 0.43226584E+03</rscale>
<asrwt>0</asrwt>
<pdfrwt beam="1">  1       21 0.37719900E-01 0.43226584E+03</pdfrwt>
<pdfrwt beam="2">  1       21 0.26782647E-01 0.43226584E+03</pdfrwt>
<totfact> 0.83990614E+04</totfact>
</mgrwt>
</event>
<event>
 7    0  0.4770865E-002  0.4542915E+03  0.7546771E-02  0.1026450E+00
         21   -1    0    0  502  501  0.00000000000E+00  0.00000000000E+00  0.26358404529E+04  0.26358404529E+04  0.00000000000E+00 0. -1.
         21   -1    0    0  501  502 -0.00000000000E+00 -0.00000000000E+00 -0.19574476296E+02  0.19574476296E+02  0.00000000000E+00 0. -1.
      99926    2    1    2    0    0  0.00000000000E+00  0.71054273576E-14  0.26162659766E+04  0.26554149292E+04  0.45429152079E+03 0.  0.
      99925    2    3    3    0    0 -0.44768033161E+02  0.60492087321E+02  0.11559495721E+04  0.11878199651E+04  0.26274205357E+03 0.  0.
         25    1    4    4    0    0  0.74463430456E+01  0.10191612507E+02  0.62608083419E+03  0.63857970218E+03  0.12509000000E+03 0.  0.
         25    1    3    3    0    0  0.44768033161E+02 -0.60492087321E+02  0.14603164045E+04  0.14675949641E+04  0.12509000000E+03 0.  0.
         25    1    4    4    0    0 -0.52214376206E+02  0.50300474814E+02  0.52986873792E+03  0.54924026288E+03  0.12509000000E+03 0.  0.
<mgrwt>
<rscale>  2 0.45429152E+03</rscale>
<asrwt>0</asrwt>
<pdfrwt beam="1">  1       21 0.38762335E+00 0.45429152E+03</pdfrwt>
<pdfrwt beam="2">  1       21 0.28786013E-02 0.45429152E+03</pdfrwt>
<totfact> 0.57001974E+03</totfact>
</mgrwt>
</event>
<event>
 7    0  0.4770865E-002  0.4697227E+03  0.7546771E-02  0.1021999E+00
         21   -1    0    0  502  501  0.00000000000E+00  0.00000000000E+00  0.65338563065E+03  0.65338563065E+03  0.00000000000E+00 0.  1.
         21   -1    0    0  501  502 -0.00000000000E+00 -0.00000000000E+00 -0.84421576849E+02  0.84421576849E+02  0.00000000000E+00 0.  1.
      99926    2    1    2    0    0  0.14210854715E-13  0.00000000000E+00  0.56896405380E+03  0.73780720749E+03  0.46972266383E+03 0.  0.
      99925    2    3    3    0    0 -0.84349072768E+02 -0.12650689771E+02  0.20578571264E+03  0.34433443638E+03  0.26257120657E+03 0.  0.
         25    1    4    4    0    0 -0.37392216346E+02  0.15701869799E+02  0.14216185051E+03  0.19365491576E+03  0.12509000000E+03 0.  0.
         25    1    4    4    0    0 -0.46956856422E+02 -0.28352559570E+02  0.63623862129E+02  0.15067952061E+03  0.12509000000E+03 0.  0.
         25    1    3    3    0    0  0.84349072768E+02  0.12650689771E+02  0.36317834115E+03  0.39347277112E+03  0.12509000000E+03 0.  0.
<mgrwt>
<rscale>  2 0.46972266E+03</rscale>
<asrwt>0</asrwt>
<pdfrwt beam="1">  1       21 0.96086120E-01 0.46972266E+03</pdfrwt>
<pdfrwt beam="2">  1       21 0.12414938E-01 0.46972266E+03</pdfrwt>
<totfact> 0.45408924E+04</totfact>
</mgrwt>
</event>
<event>
 7    0  0.4770865E-002  0.4570185E+03  0.7546771E-02  0.1025649E+00
         21   -1    0    0  502  501  0.00000000000E+00  0.00000000000E+00  0.11127105782E+03  0.11127105782E+03  0.00000000000E+00 0.  1.
         21   -1    0    0  501  502 -0.00000000000E+00 -0.00000000000E+00 -0.46927276616E+03  0.46927276616E+03  0.00000000000E+00 0.  1.
      99926    2    1    2    0    0  0.00000000000E+00  0.00000000000E+00 -0.35800170834E+03  0.58054382398E+03  0.45701849895E+03 0.  0.
      99925    2    3    3    0    0 -0.67511658590E+02 -0.70860872533E+02 -0.14783404671E+03  0.31711064194E+03  0.26291665326E+03 0.  0.
         25    1    4    4    0    0 -0.72972000750E+02 -0.24089870171E+02 -0.73723362255E+02  0.16427987394E+03  0.12509000000E+03 0.  0.
         25    1    3    3    0    0  0.67511658590E+02  0.70860872533E+02 -0.21016766163E+03  0.26343318204E+03  0.12509000000E+03 0.  0.
         25    1    4    4    0    0  0.54603421599E+01 -0.46771002362E+02 -0.74110684455E+02  0.15283076800E+03  0.12509000000E+03 0.  0.
<mgrwt>
<rscale>  2 0.45701850E+03</rscale>
<asrwt>0</asrwt>
<pdfrwt beam="1">  1       21 0.16363391E-01 0.45701850E+03</pdfrwt>
<pdfrwt beam="2">  1       21 0.69010700E-01 0.45701850E+03</pdfrwt>
<totfact> 0.58945840E+04</totfact>
</mgrwt>
</event>
<event>
 7    0  0.4770865E-002  0.4543263E+03  0.7546771E-02  0.1026440E+00
         21   -1    0    0  502  501  0.00000000000E+00  0.00000000000E+00  0.14305692122E+03  0.14305692122E+03  0.00000000000E+00 0.  1.
         21   -1    0    0  501  502 -0.00000000000E+00 -0.00000000000E+00 -0.36071727750E+03  0.36071727750E+03  0.00000000000E+00 0.  1.
      99926    2    1    2    0    0 -0.17763568394E-14  0.00000000000E+00 -0.21766035628E+03  0.50377419872E+03  0.45432632831E+03 0.  0.
      99925    2    3    3    0    0  0.75514386949E+01 -0.10699219783E+03 -0.97569845649E+02  0.29987816279E+03  0.26249320585E+03 0.  0.
         25    1    3    3    0    0 -0.75514386949E+01  0.10699219783E+03 -0.12009051064E+03  0.20389603593E+03  0.12509000000E+03 0.  0.
         25    1    4    4    0    0  0.42578372907E+02 -0.44922606302E+02 -0.50104835738E+02  0.14828675282E+03  0.12509000000E+03 0.  0.
         25    1    4    4    0    0 -0.35026934213E+02 -0.62069591526E+02 -0.47465009910E+02  0.15159140998E+03  0.12509000000E+03 0.  0.
<mgrwt>
<rscale>  2 0.45432633E+03</rscale>
<asrwt>0</asrwt>
<pdfrwt beam="1">  1       21 0.21037783E-01 0.45432633E+03</pdfrwt>
<pdfrwt beam="2">  1       21 0.53046658E-01 0.45432633E+03</pdfrwt>
<totfact> 0.65355089E+04</totfact>
</mgrwt>
</event>
<event>
 7    0  0.4770865E-002  0.4539427E+03  0.7546771E-02  0.1026553E+00
         21   -1    0    0  502  501  0.00000000000E+00  0.00000000000E+00  0.55554820774E+03  0.55554820774E+03  0.00000000000E+00 0. -1.
         21   -1    0    0  501  502 -0.00000000000E+00 -0.00000000000E+00 -0.92730001033E+02  0.92730001033E+02  0.00000000000E+00 0. -1.
      99926    2    1    2    0    0  0.00000000000E+00 -0.22204460493E-14  0.46281820670E+03  0.64827820877E+03  0.45394266544E+03 0.  0.
      99925    2    3    3    0    0 -0.93647292085E+02 -0.33153480672E+01  0.37959904794E+03  0.47120832614E+03  0.26298487140E+03 0.  0.
         25    1    3    3    0    0  0.93647292085E+02  0.33153480672E+01  0.83219158767E+02  0.17706988263E+03  0.12509000000E+03 0.  0.
         25    1    4    4    0    0 -0.62606738716E+02 -0.32653300740E+02  0.16110327038E+03  0.21584164012E+03  0.12509000000E+03 0.  0.
         25    1    4    4    0    0 -0.31040553369E+02  0.29337952673E+02  0.21849577756E+03  0.25536668602E+03  0.12509000000E+03 0.  0.
<mgrwt>
<rscale>  2 0.45394267E+03</rscale>
<asrwt>0</asrwt>
<pdfrwt beam="1">  1       21 0.81698264E-01 0.45394267E+03</pdfrwt>
<pdfrwt beam="2">  1       21 0.13636765E-01 0.45394267E+03</pdfrwt>
<totfact> 0.56268699E+04</totfact>
</mgrwt>
</event>
<event>
 7    0  0.4770865E-002  0.4580929E+03  0.7546771E-02  0.1025336E+00
         21   -1    0    0  502  501  0.00000000000E+00  0.00000000000E+00  0.16987921189E+04  0.16987921189E+04  0.00000000000E+00 0. -1.
         21   -1    0    0  501  502 -0.00000000000E+00 -0.00000000000E+00 -0.30882104164E+02  0.30882104164E+02  0.00000000000E+00 0. -1.
      99926    2    1    2    0    0  0.14210854715E-13  0.14210854715E-13  0.16679100147E+04  0.17296742230E+04  0.45809289525E+03 0.  0.
      99925    2    3    3    0    0  0.77492442085E+02  0.78885762935E+02  0.91340818993E+03  0.95692034640E+03  0.26297145422E+03 0.  0.
         25    1    3    3    0    0 -0.77492442085E+02 -0.78885762935E+02  0.75450182479E+03  0.77275387665E+03  0.12509000000E+03 0.  0.
         25    1    4    4    0    0  0.37039938049E+02  0.76018732009E+02  0.42107065750E+03  0.44732405628E+03  0.12509000000E+03 0.  0.
         25    1    4    4    0    0  0.40452504036E+02  0.28670309264E+01  0.49233753244E+03  0.50959629011E+03  0.12509000000E+03 0.  0.
<mgrwt>
<rscale>  2 0.45809290E+03</rscale>
<asrwt>0</asrwt>
<pdfrwt beam="1">  1       21 0.24982231E+00 0.45809290E+03</pdfrwt>
<pdfrwt beam="2">  1       21 0.45414871E-02 0.45809290E+03</pdfrwt>
<totfact> 0.18209559E+04</totfact>
</mgrwt>
</event>
<event>
 7    0  0.4770865E-002  0.4547465E+03  0.7546771E-02  0.1026316E+00
         21   -1    0    0  502  501  0.00000000000E+00  0.00000000000E+00  0.17219580499E+03  0.17219580499E+03  0.00000000000E+00 0.  1.
         21   -1    0    0  501  502 -0.00000000000E+00 -0.00000000000E+00 -0.30023148908E+03  0.30023148908E+03  0.00000000000E+00 0.  1.
      99926    2    1    2    0    0  0.00000000000E+00  0.35527136788E-14 -0.12803568409E+03  0.47242729406E+03  0.45474653575E+03 0.  0.
      99925    2    3    3    0    0 -0.36032882621E+02 -0.19224446500E+02  0.29108151919E+02  0.26746475781E+03  0.26272069615E+03 0.  0.
         25    1    3    3    0    0  0.36032882621E+02  0.19224446500E+02 -0.15714383601E+03  0.20496253626E+03  0.12509000000E+03 0.  0.
         25    1    4    4    0    0 -0.16441403709E+02 -0.69955803315E+01  0.54734753879E+02  0.13770497189E+03  0.12509000000E+03 0.  0.
         25    1    4    4    0    0 -0.19591478913E+02 -0.12228866168E+02 -0.25626601960E+02  0.12975978592E+03  0.12509000000E+03 0.  0.
<mgrwt>
<rscale>  2 0.45474654E+03</rscale>
<asrwt>0</asrwt>
<pdfrwt beam="1">  1       21 0.25322912E-01 0.45474654E+03</pdfrwt>
<pdfrwt beam="2">  1       21 0.44151690E-01 0.45474654E+03</pdfrwt>
<totfact> 0.67391090E+04</totfact>
</mgrwt>
</event>
<event>
 7    0  0.4770865E-002  0.4588438E+03  0.7546771E-02  0.1025117E+00
         21   -1    0    0  502  501  0.00000000000E+00  0.00000000000E+00  0.16234451558E+03  0.16234451558E+03  0.00000000000E+00 0.  1.
         21   -1    0    0  501  502 -0.00000000000E+00 -0.00000000000E+00 -0.32421423600E+03  0.32421423600E+03  0.00000000000E+00 0.  1.
      99926    2    1    2    0    0  0.00000000000E+00  0.00000000000E+00 -0.16186972042E+03  0.48655875157E+03  0.45884377771E+03 0.  0.
      99925    2    3    3    0    0 -0.13983588924E+02  0.10980935832E+02 -0.22381476264E+03  0.34584337193E+03  0.26305601727E+03 0.  0.
         25    1    4    4    0    0  0.30013827247E+02  0.13326454780E+02 -0.13014896040E+03  0.18347938363E+03  0.12509000000E+03 0.  0.
         25    1    3    3    0    0  0.13983588924E+02 -0.10980935832E+02  0.61945042225E+02  0.14071537964E+03  0.12509000000E+03 0.  0.
         25    1    4    4    0    0 -0.43997416171E+02 -0.23455189484E+01 -0.93665802246E+02  0.16236398831E+03  0.12509000000E+03 0.  0.
<mgrwt>
<rscale>  2 0.45884378E+03</rscale>
<asrwt>0</asrwt>
<pdfrwt beam="1">  1       21 0.23874194E-01 0.45884378E+03</pdfrwt>
<pdfrwt beam="2">  1       21 0.47678563E-01 0.45884378E+03</pdfrwt>
<totfact> 0.64242954E+04</totfact>
</mgrwt>
</event>
<event>
 7    0  0.4770865E-002  0.4582466E+03  0.7546771E-02  0.1025291E+00
         21   -1    0    0  502  501  0.00000000000E+00  0.00000000000E+00  0.16394721252E+03  0.16394721252E+03  0.00000000000E+00 0.  1.
         21   -1    0    0  501  502 -0.00000000000E+00 -0.00000000000E+00 -0.32020969131E+03  0.32020969131E+03  0.00000000000E+00 0.  1.
      99926    2    1    2    0    0  0.00000000000E+00  0.00000000000E+00 -0.15626247879E+03  0.48415690384E+03  0.45824659874E+03 0.  0.
      99925    2    3    3    0    0  0.46152612090E+02 -0.10619462437E+03 -0.87367307309E+02  0.30030529356E+03  0.26295030160E+03 0.  0.
         25    1    4    4    0    0  0.62837387124E+02 -0.62409449119E+02 -0.38107193926E+02  0.15793398269E+03  0.12509000000E+03 0.  0.
         25    1    3    3    0    0 -0.46152612090E+02  0.10619462437E+03 -0.68895171481E+02  0.18385161027E+03  0.12509000000E+03 0.  0.
         25    1    4    4    0    0 -0.16684775034E+02 -0.43785175246E+02 -0.49260113383E+02  0.14237131087E+03  0.12509000000E+03 0.  0.
<mgrwt>
<rscale>  2 0.45824660E+03</rscale>
<asrwt>0</asrwt>
<pdfrwt beam="1">  1       21 0.24109885E-01 0.45824660E+03</pdfrwt>
<pdfrwt beam="2">  1       21 0.47089660E-01 0.45824660E+03</pdfrwt>
<totfact> 0.64714800E+04</totfact>
</mgrwt>
</event>
<event>
 7    0  0.4770865E-002  0.4520267E+03  0.7546771E-02  0.1027119E+00
         21   -1    0    0  502  501  0.00000000000E+00  0.00000000000E+00  0.79951632337E+02  0.79951632337E+02  0.00000000000E+00 0.  1.
         21   -1    0    0  501  502 -0.00000000000E+00 -0.00000000000E+00 -0.63891161557E+03  0.63891161557E+03  0.00000000000E+00 0.  1.
      99926    2    1    2    0    0  0.00000000000E+00  0.00000000000E+00 -0.55895998323E+03  0.71886324790E+03  0.45202666551E+03 0.  0.
      99925    2    3    3    0    0 -0.82917080175E+02  0.53881119907E+02 -0.27497920040E+03  0.39317780091E+03  0.26305285630E+03 0.  0.
         25    1    3    3    0    0  0.82917080175E+02 -0.53881119907E+02 -0.28398078283E+03  0.32568544700E+03  0.12509000000E+03 0.  0.
         25    1    4    4    0    0 -0.56962056214E+02 -0.10599173480E+02 -0.13911629532E+03  0.19585165317E+03  0.12509000000E+03 0.  0.
         25    1    4    4    0    0 -0.25955023961E+02  0.64480293388E+02 -0.13586290508E+03  0.19732614774E+03  0.12509000000E+03 0.  0.
<mgrwt>
<rscale>  2 0.45202667E+03</rscale>
<asrwt>0</asrwt>
<pdfrwt beam="1">  1       21 0.11757593E-01 0.45202667E+03</pdfrwt>
<pdfrwt beam="2">  1       21 0.93957592E-01 0.45202667E+03</pdfrwt>
<totfact> 0.53122323E+04</totfact>
</mgrwt>
</event>
<event>
 7    0  0.4770865E-002  0.4582085E+03  0.7546771E-02  0.1025302E+00
         21   -1    0    0  502  501  0.00000000000E+00  0.00000000000E+00  0.30048440591E+03  0.30048440591E+03  0.00000000000E+00 0.  1.
         21   -1    0    0  501  502 -0.00000000000E+00 -0.00000000000E+00 -0.17468050222E+03  0.17468050222E+03  0.00000000000E+00 0.  1.
      99926    2    1    2    0    0  0.00000000000E+00  0.35527136788E-14  0.12580390368E+03  0.47516490813E+03  0.45820854175E+03 0.  0.
      99925    2    3    3    0    0  0.86153155116E+02  0.23825319282E+02  0.22389284340E+01  0.27791931709E+03  0.26314277880E+03 0.  0.
         25    1    3    3    0    0 -0.86153155116E+02 -0.23825319282E+02  0.12356497525E+03  0.19724559104E+03  0.12509000000E+03 0.  0.
         25    1    4    4    0    0  0.46258588679E+02 -0.17283730965E+02  0.29450148978E+02  0.13767136143E+03  0.12509000000E+03 0.  0.
         25    1    4    4    0    0  0.39894566437E+02  0.41109050248E+02 -0.27211220544E+02  0.14024795566E+03  0.12509000000E+03 0.  0.
<mgrwt>
<rscale>  2 0.45820854E+03</rscale>
<asrwt>0</asrwt>
<pdfrwt beam="1">  1       21 0.44188883E-01 0.45820854E+03</pdfrwt>
<pdfrwt beam="2">  1       21 0.25688309E-01 0.45820854E+03</pdfrwt>
<totfact> 0.65373484E+04</totfact>
</mgrwt>
</event>
<event>
 7    0  0.4770865E-002  0.4590442E+03  0.7546771E-02  0.1025059E+00
         21   -1    0    0  502  501  0.00000000000E+00  0.00000000000E+00  0.49138812748E+03  0.49138812748E+03  0.00000000000E+00 0.  1.
         21   -1    0    0  501  502 -0.00000000000E+00 -0.00000000000E+00 -0.10720727859E+03  0.10720727859E+03  0.00000000000E+00 0.  1.
      99926    2    1    2    0    0  0.00000000000E+00  0.00000000000E+00  0.38418084889E+03  0.59859540606E+03  0.45904415420E+03 0.  0.
      99925    2    3    3    0    0  0.83075958038E+02  0.43108880568E+02  0.14971226248E+03  0.31684548769E+03  0.26309183025E+03 0.  0.
         25    1    4    4    0    0  0.40351026906E+02 -0.18562942602E+02  0.60650497132E+02  0.14594101244E+03  0.12509000000E+03 0.  0.
         25    1    3    3    0    0 -0.83075958038E+02 -0.43108880568E+02  0.23446858641E+03  0.28174991837E+03  0.12509000000E+03 0.  0.
         25    1    4    4    0    0  0.42724931131E+02  0.61671823170E+02  0.89061765346E+02  0.17090447525E+03  0.12509000000E+03 0.  0.
<mgrwt>
<rscale>  2 0.45904415E+03</rscale>
<asrwt>0</asrwt>
<pdfrwt beam="1">  1       21 0.72262959E-01 0.45904415E+03</pdfrwt>
<pdfrwt beam="2">  1       21 0.15765776E-01 0.45904415E+03</pdfrwt>
<totfact> 0.56923833E+04</totfact>
</mgrwt>
</event>
<event>
 7    0  0.4770865E-002  0.4539006E+03  0.7546771E-02  0.1026565E+00
         21   -1    0    0  502  501  0.00000000000E+00  0.00000000000E+00  0.95044113370E+02  0.95044113370E+02  0.00000000000E+00 0. -1.
         21   -1    0    0  501  502 -0.00000000000E+00 -0.00000000000E+00 -0.54192135259E+03  0.54192135259E+03  0.00000000000E+00 0. -1.
      99926    2    1    2    0    0  0.00000000000E+00  0.00000000000E+00 -0.44687723922E+03  0.63696546596E+03  0.45390058151E+03 0.  0.
      99925    2    3    3    0    0  0.87613006537E+01 -0.94458733652E+02 -0.36580072525E+03  0.46027329870E+03  0.26275868426E+03 0.  0.
         25    1    4    4    0    0 -0.20883677128E+02 -0.59954959592E+02 -0.14016980898E+03  0.19830735891E+03  0.12509000000E+03 0.  0.
         25    1    4    4    0    0  0.29644977782E+02 -0.34503774059E+02 -0.22563091627E+03  0.26196593979E+03  0.12509000000E+03 0.  0.
         25    1    3    3    0    0 -0.87613006537E+01  0.94458733652E+02 -0.81076513970E+02  0.17669216726E+03  0.12509000000E+03 0.  0.
<mgrwt>
<rscale>  2 0.45390058E+03</rscale>
<asrwt>0</asrwt>
<pdfrwt beam="1">  1       21 0.13977075E-01 0.45390058E+03</pdfrwt>
<pdfrwt beam="2">  1       21 0.79694317E-01 0.45390058E+03</pdfrwt>
<totfact> 0.56951278E+04</totfact>
</mgrwt>
</event>
<event>
 7    0  0.4770865E-002  0.4241188E+03  0.7546771E-02  0.1035734E+00
         21   -1    0    0  502  501  0.00000000000E+00  0.00000000000E+00  0.21450255039E+03  0.21450255039E+03  0.00000000000E+00 0. -1.
         21   -1    0    0  501  502 -0.00000000000E+00 -0.00000000000E+00 -0.20964411305E+03  0.20964411305E+03  0.00000000000E+00 0. -1.
      99926    2    1    2    0    0  0.00000000000E+00  0.71054273576E-14  0.48584373434E+01  0.42414666344E+03  0.42411883676E+03 0.  0.
      99925    2    3    3    0    0 -0.58659253794E+02  0.47222269918E+02 -0.26653701354E+02  0.27477674071E+03  0.26290870394E+03 0.  0.
         25    1    4    4    0    0 -0.30769570461E+02  0.56990710594E+02 -0.37553424738E+02  0.14578228757E+03  0.12509000000E+03 0.  0.
         25    1    4    4    0    0 -0.27889683334E+02 -0.97684406767E+01  0.10899723385E+02  0.12899445313E+03  0.12509000000E+03 0.  0.
         25    1    3    3    0    0  0.58659253794E+02 -0.47222269918E+02  0.31512138697E+02  0.14936992273E+03  0.12509000000E+03 0.  0.
<mgrwt>
<rscale>  2 0.42411884E+03</rscale>
<asrwt>0</asrwt>
<pdfrwt beam="1">  1       21 0.31544493E-01 0.42411884E+03</pdfrwt>
<pdfrwt beam="2">  1       21 0.30830017E-01 0.42411884E+03</pdfrwt>
<totfact> 0.91395755E+04</totfact>
</mgrwt>
</event>
<event>
 7    0  0.4770865E-002  0.4545460E+03  0.7546771E-02  0.1026375E+00
         21   -1    0    0  502  501  0.00000000000E+00  0.00000000000E+00  0.26286848517E+03  0.26286848517E+03  0.00000000000E+00 0. -1.
         21   -1    0    0  501  502 -0.00000000000E+00 -0.00000000000E+00 -0.19649760253E+03  0.19649760253E+03  0.00000000000E+00 0. -1.
      99926    2    1    2    0    0  0.14210854715E-13 -0.35527136788E-14  0.66370882645E+02  0.45936608770E+03  0.45454604658E+03 0.  0.
      99925    2    3    3    0    0 -0.10296688372E+03  0.24720210490E+02  0.27710604126E+01  0.28356587883E+03  0.26303737550E+03 0.  0.
         25    1    4    4    0    0 -0.69252611645E+02  0.13177316563E+02  0.38542912683E+02  0.14866953323E+03  0.12509000000E+03 0.  0.
         25    1    3    3    0    0  0.10296688372E+03 -0.24720210490E+02  0.63599822232E+02  0.17580020887E+03  0.12509000000E+03 0.  0.
         25    1    4    4    0    0 -0.33714272077E+02  0.11542893927E+02 -0.35771852271E+02  0.13489634560E+03  0.12509000000E+03 0.  0.
<mgrwt>
<rscale>  2 0.45454605E+03</rscale>
<asrwt>0</asrwt>
<pdfrwt beam="1">  1       21 0.38657130E-01 0.45454605E+03</pdfrwt>
<pdfrwt beam="2">  1       21 0.28896706E-01 0.45454605E+03</pdfrwt>
<totfact> 0.68474348E+04</totfact>
</mgrwt>
</event>
<event>
 7    0  0.4770865E-002  0.4517883E+03  0.7546771E-02  0.1027190E+00
         21   -1    0    0  502  501  0.00000000000E+00  0.00000000000E+00  0.16143252306E+03  0.16143252306E+03  0.00000000000E+00 0.  1.
         21   -1    0    0  501  502 -0.00000000000E+00 -0.00000000000E+00 -0.31609601582E+03  0.31609601582E+03  0.00000000000E+00 0.  1.
      99926    2    1    2    0    0  0.88817841970E-15  0.00000000000E+00 -0.15466349276E+03  0.47752853888E+03  0.45178834586E+03 0.  0.
      99925    2    3    3    0    0  0.74751606785E+01 -0.96780531537E+02 -0.15261281137E+03  0.31918062224E+03  0.26298906841E+03 0.  0.
         25    1    4    4    0    0  0.40542642007E+01 -0.21161752581E+02 -0.35368435338E+02  0.13176756486E+03  0.12509000000E+03 0.  0.
         25    1    3    3    0    0 -0.74751606785E+01  0.96780531537E+02 -0.20506813885E+01  0.15834791665E+03  0.12509000000E+03 0.  0.
         25    1    4    4    0    0  0.34208964778E+01 -0.75618778956E+02 -0.11724437604E+03  0.18741305738E+03  0.12509000000E+03 0.  0.
<mgrwt>
<rscale>  2 0.45178835E+03</rscale>
<asrwt>0</asrwt>
<pdfrwt beam="1">  1       21 0.23740077E-01 0.45178835E+03</pdfrwt>
<pdfrwt beam="2">  1       21 0.46484708E-01 0.45178835E+03</pdfrwt>
<totfact> 0.68612899E+04</totfact>
</mgrwt>
</event>
<event>
 7    0  0.4770865E-002  0.4542666E+03  0.7546771E-02  0.1026457E+00
         21   -1    0    0  502  501  0.00000000000E+00  0.00000000000E+00  0.32988799165E+03  0.32988799165E+03  0.00000000000E+00 0.  1.
         21   -1    0    0  501  502 -0.00000000000E+00 -0.00000000000E+00 -0.15638497667E+03  0.15638497667E+03  0.00000000000E+00 0.  1.
      99926    2    1    2    0    0  0.00000000000E+00 -0.31086244690E-14  0.17350301497E+03  0.48627296832E+03  0.45426655558E+03 0.  0.
      99925    2    3    3    0    0 -0.74275402458E+02 -0.23868554591E+01  0.18919613134E+02  0.27398526563E+03  0.26303505761E+03 0.  0.
         25    1    3    3    0    0  0.74275402458E+02  0.23868554591E+01  0.15458340184E+03  0.21228770269E+03  0.12509000000E+03 0.  0.
         25    1    4    4    0    0 -0.49409812894E+02 -0.38469462510E+02  0.20814097789E+02  0.14142829958E+03  0.12509000000E+03 0.  0.
         25    1    4    4    0    0 -0.24865589564E+02  0.36082607051E+02 -0.18944846548E+01  0.13255696605E+03  0.12509000000E+03 0.  0.
<mgrwt>
<rscale>  2 0.45426656E+03</rscale>
<asrwt>0</asrwt>
<pdfrwt beam="1">  1       21 0.48512940E-01 0.45426656E+03</pdfrwt>
<pdfrwt beam="2">  1       21 0.22997791E-01 0.45426656E+03</pdfrwt>
<totfact> 0.66633361E+04</totfact>
</mgrwt>
</event>
<event>
 7    0  0.4770865E-002  0.4548795E+03  0.7546771E-02  0.1026277E+00
         21   -1    0    0  502  501  0.00000000000E+00  0.00000000000E+00  0.24993942011E+03  0.24993942011E+03  0.00000000000E+00 0.  1.
         21   -1    0    0  501  502 -0.00000000000E+00 -0.00000000000E+00 -0.20696547799E+03  0.20696547799E+03  0.00000000000E+00 0.  1.
      99926    2    1    2    0    0  0.71054273576E-14 -0.10658141036E-13  0.42973942115E+02  0.45690489810E+03  0.45487946338E+03 0.  0.
      99925    2    3    3    0    0  0.44745336500E+02 -0.30793963844E+02 -0.72536978393E+02  0.27818530151E+03  0.26301147389E+03 0.  0.
         25    1    4    4    0    0  0.34155563010E+02 -0.46532810791E+02 -0.62462600779E+02  0.15126463420E+03  0.12509000000E+03 0.  0.
         25    1    4    4    0    0  0.10589773489E+02  0.15738846947E+02 -0.10074377615E+02  0.12692066731E+03  0.12509000000E+03 0.  0.
         25    1    3    3    0    0 -0.44745336500E+02  0.30793963844E+02  0.11551092051E+03  0.17871959659E+03  0.12509000000E+03 0.  0.
<mgrwt>
<rscale>  2 0.45487946E+03</rscale>
<asrwt>0</asrwt>
<pdfrwt beam="1">  1       21 0.36755797E-01 0.45487946E+03</pdfrwt>
<pdfrwt beam="2">  1       21 0.30436100E-01 0.45487946E+03</pdfrwt>
<totfact> 0.68472301E+04</totfact>
</mgrwt>
</event>
<event>
 7    0  0.4770865E-002  0.4890577E+03  0.7546771E-02  0.1016675E+00
         21   -1    0    0  502  501  0.00000000000E+00  0.00000000000E+00  0.43056415563E+03  0.43056415563E+03  0.00000000000E+00 0.  1.
         21   -1    0    0  501  502 -0.00000000000E+00 -0.00000000000E+00 -0.13887442751E+03  0.13887442751E+03  0.00000000000E+00 0.  1.
      99926    2    1    2    0    0 -0.28421709430E-13  0.35527136788E-14  0.29168972812E+03  0.56943858313E+03  0.48905766784E+03 0.  0.
      99925    2    3    3    0    0 -0.13659678398E+03  0.23020416766E+02  0.21874059911E+03  0.36904470971E+03  0.26297894799E+03 0.  0.
         25    1    4    4    0    0 -0.41600951530E+02 -0.11042927858E+02  0.68214194220E+02  0.14883974542E+03  0.12509000000E+03 0.  0.
         25    1    3    3    0    0  0.13659678398E+03 -0.23020416766E+02  0.72949129012E+02  0.20039387342E+03  0.12509000000E+03 0.  0.
         25    1    4    4    0    0 -0.94995832449E+02  0.34063344624E+02  0.15052640489E+03  0.22020496429E+03  0.12509000000E+03 0.  0.
<mgrwt>
<rscale>  2 0.48905767E+03</rscale>
<asrwt>0</asrwt>
<pdfrwt beam="1">  1       21 0.63318258E-01 0.48905767E+03</pdfrwt>
<pdfrwt beam="2">  1       21 0.20422710E-01 0.48905767E+03</pdfrwt>
<totfact> 0.46686399E+04</totfact>
</mgrwt>
</event>
<event>
 7    0  0.4770865E-002  0.4524101E+03  0.7546771E-02  0.1027006E+00
         21   -1    0    0  502  501  0.00000000000E+00  0.00000000000E+00  0.53225870114E+03  0.53225870114E+03  0.00000000000E+00 0.  1.
         21   -1    0    0  501  502 -0.00000000000E+00 -0.00000000000E+00 -0.96135058004E+02  0.96135058004E+02  0.00000000000E+00 0.  1.
      99926    2    1    2    0    0  0.00000000000E+00  0.00000000000E+00  0.43612364314E+03  0.62839375914E+03  0.45241008436E+03 0.  0.
      99925    2    3    3    0    0 -0.37470721224E+02  0.96942164594E+02  0.22201561434E+03  0.35952279693E+03  0.26299024750E+03 0.  0.
         25    1    4    4    0    0 -0.42047032791E+02  0.24694167473E+02  0.76938884666E+02  0.15474125160E+03  0.12509000000E+03 0.  0.
         25    1    4    4    0    0  0.45763115666E+01  0.72247997121E+02  0.14507672967E+03  0.20478154533E+03  0.12509000000E+03 0.  0.
         25    1    3    3    0    0  0.37470721224E+02 -0.96942164594E+02  0.21410802880E+03  0.26887096221E+03  0.12509000000E+03 0.  0.
<mgrwt>
<rscale>  2 0.45241008E+03</rscale>
<asrwt>0</asrwt>
<pdfrwt beam="1">  1       21 0.78273337E-01 0.45241008E+03</pdfrwt>
<pdfrwt beam="2">  1       21 0.14137509E-01 0.45241008E+03</pdfrwt>
<totfact> 0.58143417E+04</totfact>
</mgrwt>
</event>
<event>
 7    0  0.4770865E-002  0.4518838E+03  0.7546771E-02  0.1027162E+00
         21   -1    0    0  502  501  0.00000000000E+00  0.00000000000E+00  0.49619267903E+03  0.49619267903E+03  0.00000000000E+00 0.  1.
         21   -1    0    0  501  502 -0.00000000000E+00 -0.00000000000E+00 -0.10288291774E+03  0.10288291774E+03  0.00000000000E+00 0.  1.
      99926    2    1    2    0    0  0.00000000000E+00  0.00000000000E+00  0.39330976130E+03  0.59907559677E+03  0.45188383719E+03 0.  0.
      99925    2    3    3    0    0 -0.95906543798E+02  0.50365446953E+02  0.27479920102E+03  0.39553934843E+03  0.26306279077E+03 0.  0.
         25    1    4    4    0    0 -0.26442050854E+02 -0.65586258574E+01  0.15091892692E+03  0.19790459375E+03  0.12509000000E+03 0.  0.
         25    1    3    3    0    0  0.95906543798E+02 -0.50365446953E+02  0.11851056028E+03  0.20353624834E+03  0.12509000000E+03 0.  0.
         25    1    4    4    0    0 -0.69464492944E+02  0.56924072811E+02  0.12388027410E+03  0.19763475468E+03  0.12509000000E+03 0.  0.
<mgrwt>
<rscale>  2 0.45188384E+03</rscale>
<asrwt>0</asrwt>
<pdfrwt beam="1">  1       21 0.72969511E-01 0.45188384E+03</pdfrwt>
<pdfrwt beam="2">  1       21 0.15129841E-01 0.45188384E+03</pdfrwt>
<totfact> 0.60203901E+04</totfact>
</mgrwt>
</event>
<event>
 7    0  0.4770865E-002  0.4574594E+03  0.7546771E-02  0.1025521E+00
         21   -1    0    0  502  501  0.00000000000E+00  0.00000000000E+00  0.19298055793E+03  0.19298055793E+03  0.00000000000E+00 0.  1.
         21   -1    0    0  501  502 -0.00000000000E+00 -0.00000000000E+00 -0.27110129493E+03  0.27110129493E+03  0.00000000000E+00 0.  1.
      99926    2    1    2    0    0 -0.17763568394E-14  0.88817841970E-15 -0.78120736993E+02  0.46408185286E+03  0.45745941526E+03 0.  0.
      99925    2    3    3    0    0 -0.13073646879E+02  0.50352582400E+01 -0.16536279627E+03  0.31093173345E+03  0.26293994449E+03 0.  0.
         25    1    4    4    0    0 -0.27220999020E+02  0.17281440719E+02 -0.46297580694E+02  0.13722465179E+03  0.12509000000E+03 0.  0.
         25    1    3    3    0    0  0.13073646879E+02 -0.50352582400E+01  0.87242059279E+02  0.15315011941E+03  0.12509000000E+03 0.  0.
         25    1    4    4    0    0  0.14147352141E+02 -0.12246182479E+02 -0.11906521558E+03  0.17370708166E+03  0.12509000000E+03 0.  0.
<mgrwt>
<rscale>  2 0.45745942E+03</rscale>
<asrwt>0</asrwt>
<pdfrwt beam="1">  1       21 0.28379494E-01 0.45745942E+03</pdfrwt>
<pdfrwt beam="2">  1       21 0.39867838E-01 0.45745942E+03</pdfrwt>
<totfact> 0.66567312E+04</totfact>
</mgrwt>
</event>
<event>
 7    0  0.4770865E-002  0.4538452E+03  0.7546771E-02  0.1026582E+00
         21   -1    0    0  502  501  0.00000000000E+00  0.00000000000E+00  0.22302954709E+03  0.22302954709E+03  0.00000000000E+00 0. -1.
         21   -1    0    0  501  502 -0.00000000000E+00 -0.00000000000E+00 -0.23088358803E+03  0.23088358803E+03  0.00000000000E+00 0. -1.
      99926    2    1    2    0    0  0.35527136788E-14  0.00000000000E+00 -0.78540409389E+01  0.45391313512E+03  0.45384518096E+03 0.  0.
      99925    2    3    3    0    0 -0.28467402815E+02 -0.10559773142E+03 -0.28439669129E+02  0.28648389606E+03  0.26325450427E+03 0.  0.
         25    1    4    4    0    0 -0.25820082179E+02 -0.93986244999E+02 -0.49869531676E+01  0.15865833951E+03  0.12509000000E+03 0.  0.
         25    1    3    3    0    0  0.28467402815E+02  0.10559773142E+03  0.20585628190E+02  0.16742923906E+03  0.12509000000E+03 0.  0.
         25    1    4    4    0    0 -0.26473206368E+01 -0.11611486421E+02 -0.23452715961E+02  0.12782555656E+03  0.12509000000E+03 0.  0.
<mgrwt>
<rscale>  2 0.45384518E+03</rscale>
<asrwt>0</asrwt>
<pdfrwt beam="1">  1       21 0.32798463E-01 0.45384518E+03</pdfrwt>
<pdfrwt beam="2">  1       21 0.33953469E-01 0.45384518E+03</pdfrwt>
<totfact> 0.69261486E+04</totfact>
</mgrwt>
</event>
<event>
 7    0  0.4770865E-002  0.4467494E+03  0.7546771E-02  0.1028696E+00
         21   -1    0    0  502  501  0.00000000000E+00  0.00000000000E+00  0.22177329189E+03  0.22177329189E+03  0.00000000000E+00 0.  1.
         21   -1    0    0  501  502 -0.00000000000E+00 -0.00000000000E+00 -0.22498771724E+03  0.22498771724E+03  0.00000000000E+00 0.  1.
      99926    2    1    2    0    0  0.14210854715E-13  0.00000000000E+00 -0.32144253520E+01  0.44676100913E+03  0.44674944516E+03 0.  0.
      99925    2    3    3    0    0 -0.71381463535E+02 -0.20901641378E+02 -0.76331948054E+02  0.28389335680E+03  0.26312863735E+03 0.  0.
         25    1    4    4    0    0 -0.75788074718E+02 -0.34103684049E+01 -0.51468936986E+02  0.15508714472E+03  0.12509000000E+03 0.  0.
         25    1    3    3    0    0  0.71381463535E+02  0.20901641378E+02  0.73117522702E+02  0.16286765233E+03  0.12509000000E+03 0.  0.
         25    1    4    4    0    0  0.44066111830E+01 -0.17491272973E+02 -0.24863011068E+02  0.12880621209E+03  0.12509000000E+03 0.  0.
<mgrwt>
<rscale>  2 0.44674945E+03</rscale>
<asrwt>0</asrwt>
<pdfrwt beam="1">  1       21 0.32613719E-01 0.44674945E+03</pdfrwt>
<pdfrwt beam="2">  1       21 0.33086429E-01 0.44674945E+03</pdfrwt>
<totfact> 0.73900028E+04</totfact>
</mgrwt>
</event>
<event>
 7    0  0.4770865E-002  0.4046679E+03  0.7546771E-02  0.1042175E+00
         21   -1    0    0  502  501  0.00000000000E+00  0.00000000000E+00  0.84301939163E+02  0.84301939163E+02  0.00000000000E+00 0. -1.
         21   -1    0    0  501  502 -0.00000000000E+00 -0.00000000000E+00 -0.48562383940E+03  0.48562383940E+03  0.00000000000E+00 0. -1.
      99926    2    1    2    0    0 -0.35527136788E-14  0.00000000000E+00 -0.40132190024E+03  0.56992577857E+03  0.40466791998E+03 0.  0.
      99925    2    3    3    0    0 -0.25303767104E+02 -0.38340611907E+02 -0.22633628671E+03  0.34997633848E+03  0.26295444409E+03 0.  0.
         25    1    3    3    0    0  0.25303767104E+02  0.38340611907E+02 -0.17498561353E+03  0.21994944008E+03  0.12509000000E+03 0.  0.
         25    1    4    4    0    0  0.27353707029E+02 -0.25933558971E+02 -0.11172183723E+03  0.17190128500E+03  0.12509000000E+03 0.  0.
         25    1    4    4    0    0 -0.52657474133E+02 -0.12407052936E+02 -0.11461444948E+03  0.17807505349E+03  0.12509000000E+03 0.  0.
<mgrwt>
<rscale>  2 0.40466792E+03</rscale>
<asrwt>0</asrwt>
<pdfrwt beam="1">  1       21 0.12397344E-01 0.40466792E+03</pdfrwt>
<pdfrwt beam="2">  1       21 0.71415270E-01 0.40466792E+03</pdfrwt>
<totfact> 0.92103934E+04</totfact>
</mgrwt>
</event>
<event>
 7    0  0.4770865E-002  0.4487923E+03  0.7546771E-02  0.1028083E+00
         21   -1    0    0  502  501  0.00000000000E+00  0.00000000000E+00  0.52188599273E+02  0.52188599273E+02  0.00000000000E+00 0.  1.
         21   -1    0    0  501  502 -0.00000000000E+00 -0.00000000000E+00 -0.96483957461E+03  0.96483957461E+03  0.00000000000E+00 0.  1.
      99926    2    1    2    0    0 -0.13322676296E-14  0.00000000000E+00 -0.91265097534E+03  0.10170281739E+04  0.44879227231E+03 0.  0.
      99925    2    3    3    0    0  0.32796017413E+01  0.10685498325E+03 -0.55883549318E+03  0.62682098949E+03  0.26301844270E+03 0.  0.
         25    1    3    3    0    0 -0.32796017413E+01 -0.10685498325E+03 -0.35381548216E+03  0.39020718439E+03  0.12509000000E+03 0.  0.
         25    1    4    4    0    0 -0.30006568951E+02  0.29478783120E+02 -0.28889199661E+03  0.31760901536E+03  0.12509000000E+03 0.  0.
         25    1    4    4    0    0  0.33286170692E+02  0.77376200133E+02 -0.26994349657E+03  0.30921197413E+03  0.12509000000E+03 0.  0.
<mgrwt>
<rscale>  2 0.44879227E+03</rscale>
<asrwt>0</asrwt>
<pdfrwt beam="1">  1       21 0.76747944E-02 0.44879227E+03</pdfrwt>
<pdfrwt beam="2">  1       21 0.14188817E+00 0.44879227E+03</pdfrwt>
<totfact> 0.40435578E+04</totfact>
</mgrwt>
</event>
<event>
 7    0  0.4770865E-002  0.4585320E+03  0.7546771E-02  0.1025208E+00
         21   -1    0    0  502  501  0.00000000000E+00  0.00000000000E+00  0.19518209514E+03  0.19518209514E+03  0.00000000000E+00 0. -1.
         21   -1    0    0  501  502 -0.00000000000E+00 -0.00000000000E+00 -0.26930188508E+03  0.26930188508E+03  0.00000000000E+00 0. -1.
      99926    2    1    2    0    0  0.00000000000E+00 -0.14210854715E-13 -0.74119789944E+02  0.46448398022E+03  0.45853203228E+03 0.  0.
      99925    2    3    3    0    0 -0.50751004799E+01  0.81476328071E+02 -0.13018508860E+03  0.30493782861E+03  0.26339091356E+03 0.  0.
         25    1    3    3    0    0  0.50751004799E+01 -0.81476328071E+02  0.56065298655E+02  0.15954615161E+03  0.12509000000E+03 0.  0.
         25    1    4    4    0    0 -0.11998183369E+02  0.58270836776E+02 -0.27322275696E+02  0.14118591173E+03  0.12509000000E+03 0.  0.
         25    1    4    4    0    0  0.69230828890E+01  0.23205491295E+02 -0.10286281290E+03  0.16375191688E+03  0.12509000000E+03 0.  0.
<mgrwt>
<rscale>  2 0.45853203E+03</rscale>
<asrwt>0</asrwt>
<pdfrwt beam="1">  1       21 0.28703250E-01 0.45853203E+03</pdfrwt>
<pdfrwt beam="2">  1       21 0.39603218E-01 0.45853203E+03</pdfrwt>
<totfact> 0.65976405E+04</totfact>
</mgrwt>
</event>
<event>
 7    0  0.4770865E-002  0.4538299E+03  0.7546771E-02  0.1026586E+00
         21   -1    0    0  502  501  0.00000000000E+00  0.00000000000E+00  0.41578378116E+03  0.41578378116E+03  0.00000000000E+00 0. -1.
         21   -1    0    0  501  502 -0.00000000000E+00 -0.00000000000E+00 -0.12383933260E+03  0.12383933260E+03  0.00000000000E+00 0. -1.
      99926    2    1    2    0    0  0.00000000000E+00  0.00000000000E+00  0.29194444857E+03  0.53962311376E+03  0.45382986223E+03 0.  0.
      99925    2    3    3    0    0 -0.66013042724E+02  0.34234905943E+02  0.28354307812E+03  0.39385671941E+03  0.26305263292E+03 0.  0.
         25    1    3    3    0    0  0.66013042724E+02 -0.34234905943E+02  0.84013704480E+01  0.14576639434E+03  0.12509000000E+03 0.  0.
         25    1    4    4    0    0 -0.46276816612E+02  0.54457846435E+02  0.13269454586E+03  0.19586360406E+03  0.12509000000E+03 0.  0.
         25    1    4    4    0    0 -0.19736226112E+02 -0.20222940492E+02  0.15084853226E+03  0.19799311535E+03  0.12509000000E+03 0.  0.
<mgrwt>
<rscale>  2 0.45382986E+03</rscale>
<asrwt>0</asrwt>
<pdfrwt beam="1">  1       21 0.61144673E-01 0.45382986E+03</pdfrwt>
<pdfrwt beam="2">  1       21 0.18211667E-01 0.45382986E+03</pdfrwt>
<totfact> 0.63140155E+04</totfact>
</mgrwt>
</event>
<event>
 7    0  0.4770865E-002  0.4524361E+03  0.7546771E-02  0.1026998E+00
         21   -1    0    0  502  501  0.00000000000E+00  0.00000000000E+00  0.59373616285E+02  0.59373616285E+02  0.00000000000E+00 0.  1.
         21   -1    0    0  501  502 -0.00000000000E+00 -0.00000000000E+00 -0.86190829979E+03  0.86190829979E+03  0.00000000000E+00 0.  1.
      99926    2    1    2    0    0  0.00000000000E+00  0.00000000000E+00 -0.80253468351E+03  0.92128191608E+03  0.45243612882E+03 0.  0.
      99925    2    3    3    0    0 -0.60030531278E+02 -0.36247940280E+02 -0.33256540543E+03  0.42992032997E+03  0.26327583136E+03 0.  0.
         25    1    3    3    0    0  0.60030531278E+02  0.36247940280E+02 -0.46996927808E+03  0.49136158610E+03  0.12509000000E+03 0.  0.
         25    1    4    4    0    0 -0.14064761825E+00  0.10285174024E+02 -0.13876251895E+03  0.18710518259E+03  0.12509000000E+03 0.  0.
         25    1    4    4    0    0 -0.59889883660E+02 -0.46533114304E+02 -0.19380288648E+03  0.24281514739E+03  0.12509000000E+03 0.  0.
<mgrwt>
<rscale>  2 0.45243613E+03</rscale>
<asrwt>0</asrwt>
<pdfrwt beam="1">  1       21 0.87314143E-02 0.45243613E+03</pdfrwt>
<pdfrwt beam="2">  1       21 0.12675122E+00 0.45243613E+03</pdfrwt>
<totfact> 0.43185787E+04</totfact>
</mgrwt>
</event>
<event>
 7    0  0.4770865E-002  0.4566360E+03  0.7546771E-02  0.1025761E+00
         21   -1    0    0  502  501  0.00000000000E+00  0.00000000000E+00  0.17344277388E+03  0.17344277388E+03  0.00000000000E+00 0. -1.
         21   -1    0    0  501  502 -0.00000000000E+00 -0.00000000000E+00 -0.30055515463E+03  0.30055515463E+03  0.00000000000E+00 0. -1.
      99926    2    1    2    0    0  0.14210854715E-13  0.00000000000E+00 -0.12711238076E+03  0.47399792851E+03  0.45663604642E+03 0.  0.
      99925    2    3    3    0    0 -0.10024116785E+03 -0.28117698924E+02 -0.12979062606E+03  0.31122944930E+03  0.26301951786E+03 0.  0.
         25    1    4    4    0    0 -0.70010956808E+02 -0.35786937875E+02 -0.36773257679E+02  0.15225642704E+03  0.12509000000E+03 0.  0.
         25    1    3    3    0    0  0.10024116785E+03  0.28117698924E+02  0.26782453048E+01  0.16276847920E+03  0.12509000000E+03 0.  0.
         25    1    4    4    0    0 -0.30230211041E+02  0.76692389509E+01 -0.93017368383E+02  0.15897302226E+03  0.12509000000E+03 0.  0.
<mgrwt>
<rscale>  2 0.45663605E+03</rscale>
<asrwt>0</asrwt>
<pdfrwt beam="1">  1       21 0.25506291E-01 0.45663605E+03</pdfrwt>
<pdfrwt beam="2">  1       21 0.44199287E-01 0.45663605E+03</pdfrwt>
<totfact> 0.66275140E+04</totfact>
</mgrwt>
</event>
<event>
 7    0  0.4770865E-002  0.4553170E+03  0.7546771E-02  0.1026148E+00
         21   -1    0    0  502  501  0.00000000000E+00  0.00000000000E+00  0.10744921963E+04  0.10744921963E+04  0.00000000000E+00 0. -1.
         21   -1    0    0  501  502 -0.00000000000E+00 -0.00000000000E+00 -0.48235250632E+02  0.48235250632E+02  0.00000000000E+00 0. -1.
      99926    2    1    2    0    0 -0.17763568394E-14  0.14210854715E-13  0.10262569457E+04  0.11227274469E+04  0.45531703412E+03 0.  0.
      99925    2    3    3    0    0 -0.97426404821E+01  0.85513815774E+02  0.46345925630E+03  0.53980697295E+03  0.26303907326E+03 0.  0.
         25    1    4    4    0    0  0.14827558846E+02  0.79542444569E+02  0.24033714032E+03  0.28276546131E+03  0.12509000000E+03 0.  0.
         25    1    4    4    0    0 -0.24570199328E+02  0.59713712057E+01  0.22312211598E+03  0.25704151165E+03  0.12509000000E+03 0.  0.
         25    1    3    3    0    0  0.97426404821E+01 -0.85513815774E+02  0.56279768937E+03  0.58292047399E+03  0.12509000000E+03 0.  0.
<mgrwt>
<rscale>  2 0.45531703E+03</rscale>
<asrwt>0</asrwt>
<pdfrwt beam="1">  1       21 0.15801354E+00 0.45531703E+03</pdfrwt>
<pdfrwt beam="2">  1       21 0.70934199E-02 0.45531703E+03</pdfrwt>
<totfact> 0.34620443E+04</totfact>
</mgrwt>
</event>
<event>
 7    0  0.4770865E-002  0.4537363E+03  0.7546771E-02  0.1026614E+00
         21   -1    0    0  502  501  0.00000000000E+00  0.00000000000E+00  0.17584186439E+03  0.17584186439E+03  0.00000000000E+00 0.  1.
         21   -1    0    0  501  502 -0.00000000000E+00 -0.00000000000E+00 -0.29270133739E+03  0.29270133739E+03  0.00000000000E+00 0.  1.
      99926    2    1    2    0    0  0.00000000000E+00  0.00000000000E+00 -0.11685947300E+03  0.46854320178E+03  0.45373626206E+03 0.  0.
      99925    2    3    3    0    0  0.81275355569E+02  0.57779787233E+01  0.56259766433E+01  0.27543892442E+03  0.26305109962E+03 0.  0.
         25    1    3    3    0    0 -0.81275355569E+02 -0.57779787233E+01 -0.12248544965E+03  0.19310427736E+03  0.12509000000E+03 0.  0.
         25    1    4    4    0    0  0.99483701399E+01 -0.13717181538E+02 -0.20238619063E+02  0.12784459683E+03  0.12509000000E+03 0.  0.
         25    1    4    4    0    0  0.71326985429E+02  0.19495160262E+02  0.25864595706E+02  0.14759432758E+03  0.12509000000E+03 0.  0.
<mgrwt>
<rscale>  2 0.45373626E+03</rscale>
<asrwt>0</asrwt>
<pdfrwt beam="1">  1       21 0.25859098E-01 0.45373626E+03</pdfrwt>
<pdfrwt beam="2">  1       21 0.43044314E-01 0.45373626E+03</pdfrwt>
<totfact> 0.68225634E+04</totfact>
</mgrwt>
</event>
<event>
 7    0  0.4770865E-002  0.4610273E+03  0.7546771E-02  0.1024484E+00
         21   -1    0    0  502  501  0.00000000000E+00  0.00000000000E+00  0.41436545564E+03  0.41436545564E+03  0.00000000000E+00 0. -1.
         21   -1    0    0  501  502 -0.00000000000E+00 -0.00000000000E+00 -0.12823592262E+03  0.12823592262E+03  0.00000000000E+00 0. -1.
      99926    2    1    2    0    0 -0.14210854715E-13  0.00000000000E+00  0.28612953302E+03  0.54260137826E+03  0.46102727254E+03 0.  0.
      99925    2    3    3    0    0 -0.10213745421E+03  0.43536544497E+01  0.10823515775E+03  0.30229962897E+03  0.26309542459E+03 0.  0.
         25    1    3    3    0    0  0.10213745421E+03 -0.43536544497E+01  0.17789437528E+03  0.24030174930E+03  0.12509000000E+03 0.  0.
         25    1    4    4    0    0 -0.75820202630E+02 -0.15752359191E+02  0.87710857657E+02  0.17128205568E+03  0.12509000000E+03 0.  0.
         25    1    4    4    0    0 -0.26317251584E+02  0.20106013641E+02  0.20524300089E+02  0.13101757329E+03  0.12509000000E+03 0.  0.
<mgrwt>
<rscale>  2 0.46102727E+03</rscale>
<asrwt>0</asrwt>
<pdfrwt beam="1">  1       21 0.60936096E-01 0.46102727E+03</pdfrwt>
<pdfrwt beam="2">  1       21 0.18858224E-01 0.46102727E+03</pdfrwt>
<totfact> 0.59469782E+04</totfact>
</mgrwt>
</event>
<event>
 7    0  0.4770865E-002  0.4524561E+03  0.7546771E-02  0.1026992E+00
         21   -1    0    0  502  501  0.00000000000E+00  0.00000000000E+00  0.42517176772E+03  0.42517176772E+03  0.00000000000E+00 0.  1.
         21   -1    0    0  501  502 -0.00000000000E+00 -0.00000000000E+00 -0.12037285365E+03  0.12037285365E+03  0.00000000000E+00 0.  1.
      99926    2    1    2    0    0  0.53290705182E-14  0.00000000000E+00  0.30479891408E+03  0.54554462137E+03  0.45245613697E+03 0.  0.
      99925    2    3    3    0    0 -0.11067549135E+02  0.58048448657E+02  0.79276000478E+02  0.28096910154E+03  0.26299589110E+03 0.  0.
         25    1    3    3    0    0  0.11067549135E+02 -0.58048448657E+02  0.22552291360E+03  0.26457551983E+03  0.12509000000E+03 0.  0.
         25    1    4    4    0    0  0.28669774152E+02  0.41437114995E+02  0.21311218765E+02  0.13653082653E+03  0.12509000000E+03 0.  0.
         25    1    4    4    0    0 -0.39737323287E+02  0.16611333663E+02  0.57964781713E+02  0.14443827501E+03  0.12509000000E+03 0.  0.
<mgrwt>
<rscale>  2 0.45245614E+03</rscale>
<asrwt>0</asrwt>
<pdfrwt beam="1">  1       21 0.62525259E-01 0.45245614E+03</pdfrwt>
<pdfrwt beam="2">  1       21 0.17701890E-01 0.45245614E+03</pdfrwt>
<totfact> 0.63429043E+04</totfact>
</mgrwt>
</event>
<event>
 7    0  0.4770865E-002  0.4531392E+03  0.7546771E-02  0.1026790E+00
         21   -1    0    0  502  501  0.00000000000E+00  0.00000000000E+00  0.72530873253E+02  0.72530873253E+02  0.00000000000E+00 0. -1.
         21   -1    0    0  501  502 -0.00000000000E+00 -0.00000000000E+00 -0.70775090382E+03  0.70775090382E+03  0.00000000000E+00 0. -1.
      99926    2    1    2    0    0 -0.14210854715E-13  0.35527136788E-14 -0.63522003056E+03  0.78028177707E+03  0.45313923290E+03 0.  0.
      99925    2    3    3    0    0 -0.10835855156E+03  0.23273542666E+02 -0.42142853270E+03  0.50891938810E+03  0.26289484958E+03 0.  0.
         25    1    4    4    0    0 -0.12037691444E+02  0.28082059030E+01 -0.17256318925E+03  0.21349087666E+03  0.12509000000E+03 0.  0.
         25    1    4    4    0    0 -0.96320860114E+02  0.20465336763E+02 -0.24886534345E+03  0.29542851144E+03  0.12509000000E+03 0.  0.
         25    1    3    3    0    0  0.10835855156E+03 -0.23273542666E+02 -0.21379149787E+03  0.27136238897E+03  0.12509000000E+03 0.  0.
<mgrwt>
<rscale>  2 0.45313923E+03</rscale>
<asrwt>0</asrwt>
<pdfrwt beam="1">  1       21 0.10666305E-01 0.45313923E+03</pdfrwt>
<pdfrwt beam="2">  1       21 0.10408101E+00 0.45313923E+03</pdfrwt>
<totfact> 0.49451706E+04</totfact>
</mgrwt>
</event>
<event>
 7    0  0.4770865E-002  0.4537506E+03  0.7546771E-02  0.1026609E+00
         21   -1    0    0  502  501  0.00000000000E+00  0.00000000000E+00  0.11714516226E+03  0.11714516226E+03  0.00000000000E+00 0.  1.
         21   -1    0    0  501  502 -0.00000000000E+00 -0.00000000000E+00 -0.43938986111E+03  0.43938986111E+03  0.00000000000E+00 0.  1.
      99926    2    1    2    0    0  0.00000000000E+00  0.00000000000E+00 -0.32224469885E+03  0.55653502337E+03  0.45375057719E+03 0.  0.
      99925    2    3    3    0    0 -0.84058199905E+02 -0.29684508733E+02 -0.11992503047E+03  0.30251197846E+03  0.26302952904E+03 0.  0.
         25    1    3    3    0    0  0.84058199905E+02  0.29684508733E+02 -0.20231966839E+03  0.25402304491E+03  0.12509000000E+03 0.  0.
         25    1    4    4    0    0 -0.53306986666E+02  0.31298960795E+01 -0.98350081149E+02  0.16784420645E+03  0.12509000000E+03 0.  0.
         25    1    4    4    0    0 -0.30751213239E+02 -0.32814404813E+02 -0.21574949317E+02  0.13466777201E+03  0.12509000000E+03 0.  0.
<mgrwt>
<rscale>  2 0.45375058E+03</rscale>
<asrwt>0</asrwt>
<pdfrwt beam="1">  1       21 0.17227230E-01 0.45375058E+03</pdfrwt>
<pdfrwt beam="2">  1       21 0.64616156E-01 0.45375058E+03</pdfrwt>
<totfact> 0.62047714E+04</totfact>
</mgrwt>
</event>
<event>
 7    0  0.4770865E-002  0.4520882E+03  0.7546771E-02  0.1027101E+00
         21   -1    0    0  502  501  0.00000000000E+00  0.00000000000E+00  0.21965380301E+02  0.21965380301E+02  0.00000000000E+00 0.  1.
         21   -1    0    0  501  502 -0.00000000000E+00 -0.00000000000E+00 -0.23262034662E+04  0.23262034662E+04  0.00000000000E+00 0.  1.
      99926    2    1    2    0    0  0.00000000000E+00  0.35527136788E-14 -0.23042380859E+04  0.23481688465E+04  0.45208823826E+03 0.  0.
      99925    2    3    3    0    0  0.37817406238E+02  0.20428083465E+02 -0.92459989103E+03  0.96220473454E+03  0.26287930665E+03 0.  0.
         25    1    4    4    0    0 -0.73691140320E+01 -0.12340612274E+02 -0.36591702574E+03  0.38697464049E+03  0.12509000000E+03 0.  0.
         25    1    4    4    0    0  0.45186520270E+02  0.32768695739E+02 -0.55868286529E+03  0.57523009405E+03  0.12509000000E+03 0.  0.
         25    1    3    3    0    0 -0.37817406238E+02 -0.20428083465E+02 -0.13796381948E+04  0.13859641119E+04  0.12509000000E+03 0.  0.
<mgrwt>
<rscale>  2 0.45208824E+03</rscale>
<asrwt>0</asrwt>
<pdfrwt beam="1">  1       21 0.32302068E-02 0.45208824E+03</pdfrwt>
<pdfrwt beam="2">  1       21 0.34208834E+00 0.45208824E+03</pdfrwt>
<totfact> 0.90150763E+03</totfact>
</mgrwt>
</event>
<event>
 7    0  0.4770865E-002  0.4406183E+03  0.7546771E-02  0.1030557E+00
         21   -1    0    0  502  501  0.00000000000E+00  0.00000000000E+00  0.86043298127E+03  0.86043298127E+03  0.00000000000E+00 0. -1.
         21   -1    0    0  501  502 -0.00000000000E+00 -0.00000000000E+00 -0.56408940982E+02  0.56408940982E+02  0.00000000000E+00 0. -1.
      99926    2    1    2    0    0  0.00000000000E+00  0.00000000000E+00  0.80402404029E+03  0.91684192225E+03  0.44061826226E+03 0.  0.
      99925    2    3    3    0    0 -0.67414505657E+02  0.11424465238E+02  0.66090925593E+03  0.71484047775E+03  0.26366765079E+03 0.  0.
         25    1    4    4    0    0 -0.76393413096E+02  0.45768836894E+01  0.34427769941E+03  0.37420788854E+03  0.12509000000E+03 0.  0.
         25    1    3    3    0    0  0.67414505657E+02 -0.11424465238E+02  0.14311478435E+03  0.20200144450E+03  0.12509000000E+03 0.  0.
         25    1    4    4    0    0  0.89789074383E+01  0.68475815485E+01  0.31663155652E+03  0.34063258922E+03  0.12509000000E+03 0.  0.
<mgrwt>
<rscale>  2 0.44061826E+03</rscale>
<asrwt>0</asrwt>
<pdfrwt beam="1">  1       21 0.12653425E+00 0.44061826E+03</pdfrwt>
<pdfrwt beam="2">  1       21 0.82954330E-02 0.44061826E+03</pdfrwt>
<totfact> 0.47652919E+04</totfact>
</mgrwt>
</event>
<event>
 7    0  0.4770865E-002  0.4536934E+03  0.7546771E-02  0.1026626E+00
         21   -1    0    0  502  501  0.00000000000E+00  0.00000000000E+00  0.20954817590E+04  0.20954817590E+04  0.00000000000E+00 0. -1.
         21   -1    0    0  501  502 -0.00000000000E+00 -0.00000000000E+00 -0.24557328036E+02  0.24557328036E+02  0.00000000000E+00 0. -1.
      99926    2    1    2    0    0 -0.71054273576E-14  0.00000000000E+00  0.20709244310E+04  0.21200390870E+04  0.45369343371E+03 0.  0.
      99925    2    3    3    0    0  0.57190618338E+02  0.65455152808E+02  0.97593512200E+03  0.10145056236E+04  0.26309153194E+03 0.  0.
         25    1    4    4    0    0  0.43878313754E+02  0.30567931879E+02  0.35903896991E+03  0.38394816694E+03  0.12509000000E+03 0.  0.
         25    1    4    4    0    0  0.13312304584E+02  0.34887220928E+02  0.61689615209E+03  0.63055745670E+03  0.12509000000E+03 0.  0.
         25    1    3    3    0    0 -0.57190618338E+02 -0.65455152808E+02  0.10949893090E+04  0.11055334634E+04  0.12509000000E+03 0.  0.
<mgrwt>
<rscale>  2 0.45369343E+03</rscale>
<asrwt>0</asrwt>
<pdfrwt beam="1">  1       21 0.30815896E+00 0.45369343E+03</pdfrwt>
<pdfrwt beam="2">  1       21 0.36113732E-02 0.45369343E+03</pdfrwt>
<totfact> 0.11968124E+04</totfact>
</mgrwt>
</event>
<event>
 7    0  0.4770865E-002  0.4565342E+03  0.7546771E-02  0.1025791E+00
         21   -1    0    0  502  501  0.00000000000E+00  0.00000000000E+00  0.25872438653E+03  0.25872438653E+03  0.00000000000E+00 0. -1.
         21   -1    0    0  501  502 -0.00000000000E+00 -0.00000000000E+00 -0.20139529166E+03  0.20139529166E+03  0.00000000000E+00 0. -1.
      99926    2    1    2    0    0  0.00000000000E+00 -0.71054273576E-14  0.57329094871E+02  0.46011967820E+03  0.45653421903E+03 0.  0.
      99925    2    3    3    0    0  0.25134310387E+02  0.59598008677E+02  0.13162294194E+03  0.30090052103E+03  0.26274106743E+03 0.  0.
         25    1    4    4    0    0  0.10940019612E+02  0.70705332470E+02  0.66078846055E+02  0.15853343516E+03  0.12509000000E+03 0.  0.
         25    1    3    3    0    0 -0.25134310387E+02 -0.59598008677E+02 -0.74293847070E+02  0.15921915717E+03  0.12509000000E+03 0.  0.
         25    1    4    4    0    0  0.14194290775E+02 -0.11107323793E+02  0.65544095886E+02  0.14236708587E+03  0.12509000000E+03 0.  0.
<mgrwt>
<rscale>  2 0.45653422E+03</rscale>
<asrwt>0</asrwt>
<pdfrwt beam="1">  1       21 0.38047704E-01 0.45653422E+03</pdfrwt>
<pdfrwt beam="2">  1       21 0.29616955E-01 0.45653422E+03</pdfrwt>
<totfact> 0.67344068E+04</totfact>
</mgrwt>
</event>
<event>
 6    0  0.4770865E-002  0.4582391E+03  0.7546771E-02  0.1025293E+00
         21   -1    0    0  502  501  0.00000000000E+00  0.00000000000E+00  0.69342482847E+02  0.69342482847E+02  0.00000000000E+00 0. -1.
         21   -1    0    0  501  502 -0.00000000000E+00 -0.00000000000E+00 -0.75705062725E+03  0.75705062725E+03  0.00000000000E+00 0. -1.
      99926    2    1    2    0    0  0.00000000000E+00  0.00000000000E+00 -0.68770814441E+03  0.82639311010E+03  0.45823910848E+03 0.  0.
         25    1    3    3    0    0 -0.67195077857E+02 -0.27858629494E+02 -0.29961437187E+03  0.33272745853E+03  0.12509000000E+03 0.  0.
         25    1    3    3    0    0  0.76655335380E+02  0.82413786501E+02 -0.21784009972E+03  0.27526330993E+03  0.12509000000E+03 0.  0.
         25    1    3    3    0    0 -0.94602575233E+01 -0.54555157007E+02 -0.17025367282E+03  0.21840234165E+03  0.12509000000E+03 0.  0.
<mgrwt>
<rscale>  2 0.45823911E+03</rscale>
<asrwt>0</asrwt>
<pdfrwt beam="1">  1       21 0.10197424E-01 0.45823911E+03</pdfrwt>
<pdfrwt beam="2">  1       21 0.11133098E+00 0.45823911E+03</pdfrwt>
<totfact> 0.45350930E+04</totfact>
</mgrwt>
</event>
<event>
 7    0  0.4770865E-002  0.4412674E+03  0.7546771E-02  0.1030359E+00
         21   -1    0    0  502  501  0.00000000000E+00  0.00000000000E+00  0.73219108749E+02  0.73219108749E+02  0.00000000000E+00 0. -1.
         21   -1    0    0  501  502 -0.00000000000E+00 -0.00000000000E+00 -0.66484312929E+03  0.66484312929E+03  0.00000000000E+00 0. -1.
      99926    2    1    2    0    0  0.00000000000E+00  0.00000000000E+00 -0.59162402054E+03  0.73806223804E+03  0.44126736287E+03 0.  0.
      99925    2    3    3    0    0 -0.43787596086E+02  0.42716570075E+02 -0.50893294290E+03  0.57611353829E+03  0.26296769707E+03 0.  0.
         25    1    3    3    0    0  0.43787596086E+02 -0.42716570075E+02 -0.82691077645E+02  0.16194869975E+03  0.12509000000E+03 0.  0.
         25    1    4    4    0    0 -0.42860202857E+02  0.56960393689E+02 -0.26323180008E+03  0.30003328500E+03  0.12509000000E+03 0.  0.
         25    1    4    4    0    0 -0.92739322873E+00 -0.14243823614E+02 -0.24570114282E+03  0.27608025328E+03  0.12509000000E+03 0.  0.
<mgrwt>
<rscale>  2 0.44126736E+03</rscale>
<asrwt>0</asrwt>
<pdfrwt beam="1">  1       21 0.10767515E-01 0.44126736E+03</pdfrwt>
<pdfrwt beam="2">  1       21 0.97771053E-01 0.44126736E+03</pdfrwt>
<totfact> 0.56769933E+04</totfact>
</mgrwt>
</event>
<event>
 7    0  0.4770865E-002  0.4585973E+03  0.7546771E-02  0.1025189E+00
         21   -1    0    0  502  501  0.00000000000E+00  0.00000000000E+00  0.16156398349E+04  0.16156398349E+04  0.00000000000E+00 0. -1.
         21   -1    0    0  501  502 -0.00000000000E+00 -0.00000000000E+00 -0.32543068683E+02  0.32543068683E+02  0.00000000000E+00 0. -1.
      99926    2    1    2    0    0 -0.71054273576E-14  0.00000000000E+00  0.15830967663E+04  0.16481829036E+04  0.45859733150E+03 0.  0.
      99925    2    3    3    0    0  0.37471529362E+02 -0.10994285878E+03  0.96145709191E+03  0.10035318813E+04  0.26303032063E+03 0.  0.
         25    1    4    4    0    0  0.15663721444E+02 -0.50996939584E+02  0.33352273230E+03  0.36018184445E+03  0.12509000000E+03 0.  0.
         25    1    3    3    0    0 -0.37471529362E+02  0.10994285878E+03  0.62163967435E+03  0.64465102229E+03  0.12509000000E+03 0.  0.
         25    1    4    4    0    0  0.21807807919E+02 -0.58945919194E+02  0.62793435962E+03  0.64335003689E+03  0.12509000000E+03 0.  0.
<mgrwt>
<rscale>  2 0.45859733E+03</rscale>
<asrwt>0</asrwt>
<pdfrwt beam="1">  1       21 0.23759404E+00 0.45859733E+03</pdfrwt>
<pdfrwt beam="2">  1       21 0.47857465E-02 0.45859733E+03</pdfrwt>
<totfact> 0.19803610E+04</totfact>
</mgrwt>
</event>
<event>
 7    0  0.4770865E-002  0.4611538E+03  0.7546771E-02  0.1024447E+00
         21   -1    0    0  502  501  0.00000000000E+00  0.00000000000E+00  0.32280013352E+03  0.32280013352E+03  0.00000000000E+00 0. -1.
         21   -1    0    0  501  502 -0.00000000000E+00 -0.00000000000E+00 -0.16470160402E+03  0.16470160402E+03  0.00000000000E+00 0. -1.
      99926    2    1    2    0    0  0.35527136788E-14  0.00000000000E+00  0.15809852950E+03  0.48750173754E+03  0.46115376945E+03 0.  0.
      99925    2    3    3    0    0  0.57470120655E+01  0.11319688719E+03  0.13641319063E+03  0.31731265023E+03  0.26312011706E+03 0.  0.
         25    1    3    3    0    0 -0.57470120655E+01 -0.11319688719E+03  0.21685338870E+02  0.17018908731E+03  0.12509000000E+03 0.  0.
         25    1    4    4    0    0  0.27055560562E+02  0.44036712953E+02  0.99996165791E+02  0.16827946018E+03  0.12509000000E+03 0.  0.
         25    1    4    4    0    0 -0.21308548497E+02  0.69160174236E+02  0.36417024841E+02  0.14903319005E+03  0.12509000000E+03 0.  0.
<mgrwt>
<rscale>  2 0.46115377E+03</rscale>
<asrwt>0</asrwt>
<pdfrwt beam="1">  1       21 0.47470608E-01 0.46115377E+03</pdfrwt>
<pdfrwt beam="2">  1       21 0.24220824E-01 0.46115377E+03</pdfrwt>
<totfact> 0.63022588E+04</totfact>
</mgrwt>
</event>
<event>
 7    0  0.4770865E-002  0.4567663E+03  0.7546771E-02  0.1025723E+00
         21   -1    0    0  502  501  0.00000000000E+00  0.00000000000E+00  0.24033460304E+03  0.24033460304E+03  0.00000000000E+00 0. -1.
         21   -1    0    0  501  502 -0.00000000000E+00 -0.00000000000E+00 -0.21702600362E+03  0.21702600362E+03  0.00000000000E+00 0. -1.
      99926    2    1    2    0    0 -0.14210854715E-13  0.00000000000E+00  0.23308599418E+02  0.45736060666E+03  0.45676627910E+03 0.  0.
      99925    2    3    3    0    0 -0.69618665254E+02  0.25179569736E+02 -0.73128667046E+02  0.28292315728E+03  0.26309112813E+03 0.  0.
         25    1    4    4    0    0 -0.69278128090E+02  0.61602062442E+01 -0.15739478589E+02  0.14398835529E+03  0.12509000000E+03 0.  0.
         25    1    4    4    0    0 -0.34053716389E+00  0.19019363492E+02 -0.57389188457E+02  0.13893480199E+03  0.12509000000E+03 0.  0.
         25    1    3    3    0    0  0.69618665254E+02 -0.25179569736E+02  0.96437266464E+02  0.17443744938E+03  0.12509000000E+03 0.  0.
<mgrwt>
<rscale>  2 0.45676628E+03</rscale>
<asrwt>0</asrwt>
<pdfrwt beam="1">  1       21 0.35343324E-01 0.45676628E+03</pdfrwt>
<pdfrwt beam="2">  1       21 0.31915588E-01 0.45676628E+03</pdfrwt>
<totfact> 0.67418093E+04</totfact>
</mgrwt>
</event>
<event>
 7    0  0.4770865E-002  0.4553616E+03  0.7546771E-02  0.1026135E+00
         21   -1    0    0  502  501  0.00000000000E+00  0.00000000000E+00  0.43328459214E+03  0.43328459214E+03  0.00000000000E+00 0.  1.
         21   -1    0    0  501  502 -0.00000000000E+00 -0.00000000000E+00 -0.11964088937E+03  0.11964088937E+03  0.00000000000E+00 0.  1.
      99926    2    1    2    0    0  0.00000000000E+00  0.00000000000E+00  0.31364370276E+03  0.55292548151E+03  0.45536163192E+03 0.  0.
      99925    2    3    3    0    0 -0.95720379530E+02  0.53449723563E+02  0.15750848690E+03  0.32479179759E+03  0.26203344125E+03 0.  0.
         25    1    4    4    0    0 -0.82901207815E+02  0.21185982047E+02  0.62574531765E+02  0.16396504572E+03  0.12509000000E+03 0.  0.
         25    1    3    3    0    0  0.95720379530E+02 -0.53449723563E+02  0.15613521586E+03  0.22813368392E+03  0.12509000000E+03 0.  0.
         25    1    4    4    0    0 -0.12819171715E+02  0.32263741517E+02  0.94933955136E+02  0.16082675187E+03  0.12509000000E+03 0.  0.
<mgrwt>
<rscale>  2 0.45536163E+03</rscale>
<asrwt>0</asrwt>
<pdfrwt beam="1">  1       21 0.63718322E-01 0.45536163E+03</pdfrwt>
<pdfrwt beam="2">  1       21 0.17594249E-01 0.45536163E+03</pdfrwt>
<totfact> 0.61497475E+04</totfact>
</mgrwt>
</event>
<event>
 7    0  0.4770865E-002  0.4574819E+03  0.7546771E-02  0.1025514E+00
         21   -1    0    0  502  501  0.00000000000E+00  0.00000000000E+00  0.46898721422E+03  0.46898721422E+03  0.00000000000E+00 0.  1.
         21   -1    0    0  501  502 -0.00000000000E+00 -0.00000000000E+00 -0.11156469912E+03  0.11156469912E+03  0.00000000000E+00 0.  1.
      99926    2    1    2    0    0  0.00000000000E+00  0.14210854715E-13  0.35742251510E+03  0.58055191335E+03  0.45748187919E+03 0.  0.
      99925    2    3    3    0    0  0.33278753968E+02  0.10669038741E+03  0.26140880048E+03  0.38727373112E+03  0.26297541256E+03 0.  0.
         25    1    3    3    0    0 -0.33278753968E+02 -0.10669038741E+03  0.96013714620E+02  0.19327818223E+03  0.12509000000E+03 0.  0.
         25    1    4    4    0    0 -0.69666915724E+01  0.40324769172E+02  0.16601123880E+03  0.21185339579E+03  0.12509000000E+03 0.  0.
         25    1    4    4    0    0  0.40245445540E+02  0.66365618236E+02  0.95397561679E+02  0.17542033532E+03  0.12509000000E+03 0.  0.
<mgrwt>
<rscale>  2 0.45748188E+03</rscale>
<asrwt>0</asrwt>
<pdfrwt beam="1">  1       21 0.68968707E-01 0.45748188E+03</pdfrwt>
<pdfrwt beam="2">  1       21 0.16406574E-01 0.45748188E+03</pdfrwt>
<totfact> 0.58730746E+04</totfact>
</mgrwt>
</event>
<event>
 7    0  0.4770865E-002  0.4538655E+03  0.7546771E-02  0.1026576E+00
         21   -1    0    0  502  501  0.00000000000E+00  0.00000000000E+00  0.15336850996E+03  0.15336850996E+03  0.00000000000E+00 0. -1.
         21   -1    0    0  501  502 -0.00000000000E+00 -0.00000000000E+00 -0.33578263707E+03  0.33578263707E+03  0.00000000000E+00 0. -1.
      99926    2    1    2    0    0 -0.14210854715E-13  0.00000000000E+00 -0.18241412711E+03  0.48915114703E+03  0.45386554272E+03 0.  0.
      99925    2    3    3    0    0  0.82731627576E+02 -0.55850508336E+02 -0.60060587247E+02  0.28770215025E+03  0.26306168789E+03 0.  0.
         25    1    4    4    0    0  0.14118993285E+02 -0.42831191648E+02 -0.56270843271E+02  0.14438757859E+03  0.12509000000E+03 0.  0.
         25    1    4    4    0    0  0.68612634291E+02 -0.13019316688E+02 -0.37897439759E+01  0.14331457166E+03  0.12509000000E+03 0.  0.
         25    1    3    3    0    0 -0.82731627576E+02  0.55850508336E+02 -0.12235353987E+03  0.20144899677E+03  0.12509000000E+03 0.  0.
<mgrwt>
<rscale>  2 0.45386554E+03</rscale>
<asrwt>0</asrwt>
<pdfrwt beam="1">  1       21 0.22554192E-01 0.45386554E+03</pdfrwt>
<pdfrwt beam="2">  1       21 0.49379800E-01 0.45386554E+03</pdfrwt>
<totfact> 0.66637882E+04</totfact>
</mgrwt>
</event>
<event>
 7    0  0.4770865E-002  0.4584930E+03  0.7546771E-02  0.1025219E+00
         21   -1    0    0  502  501  0.00000000000E+00  0.00000000000E+00  0.11053945142E+03  0.11053945142E+03  0.00000000000E+00 0. -1.
         21   -1    0    0  501  502 -0.00000000000E+00 -0.00000000000E+00 -0.47543166977E+03  0.47543166977E+03  0.00000000000E+00 0. -1.
      99926    2    1    2    0    0  0.00000000000E+00 -0.71054273576E-14 -0.36489221835E+03  0.58597112118E+03  0.45849299215E+03 0.  0.
      99925    2    3    3    0    0 -0.35780775078E+02 -0.41286143825E+02 -0.35979760770E+03  0.44937583322E+03  0.26362759990E+03 0.  0.
         25    1    4    4    0    0 -0.30974613226E+02 -0.12222092925E+01 -0.23559189433E+03  0.26853671859E+03  0.12509000000E+03 0.  0.
         25    1    3    3    0    0  0.35780775078E+02  0.41286143825E+02 -0.50946106442E+01  0.13659528797E+03  0.12509000000E+03 0.  0.
         25    1    4    4    0    0 -0.48061618518E+01 -0.40063934532E+02 -0.12420571338E+03  0.18083911462E+03  0.12509000000E+03 0.  0.
<mgrwt>
<rscale>  2 0.45849299E+03</rscale>
<asrwt>0</asrwt>
<pdfrwt beam="1">  1       21 0.16255802E-01 0.45849299E+03</pdfrwt>
<pdfrwt beam="2">  1       21 0.69916420E-01 0.45849299E+03</pdfrwt>
<totfact> 0.57933970E+04</totfact>
</mgrwt>
</event>
<event>
 7    0  0.4770865E-002  0.4533001E+03  0.7546771E-02  0.1026742E+00
         21   -1    0    0  502  501  0.00000000000E+00  0.00000000000E+00  0.11423824667E+03  0.11423824667E+03  0.00000000000E+00 0. -1.
         21   -1    0    0  501  502 -0.00000000000E+00 -0.00000000000E+00 -0.44967638463E+03  0.44967638463E+03  0.00000000000E+00 0. -1.
      99926    2    1    2    0    0  0.00000000000E+00 -0.14210854715E-13 -0.33543813796E+03  0.56391463130E+03  0.45330008493E+03 0.  0.
      99925    2    3    3    0    0 -0.59861236801E+02 -0.92219841805E+02 -0.18815290776E+03  0.34158983729E+03  0.26304796778E+03 0.  0.
         25    1    4    4    0    0 -0.66696117214E+02 -0.54342456900E+02 -0.12300045277E+03  0.19539215479E+03  0.12509000000E+03 0.  0.
         25    1    4    4    0    0  0.68348804129E+01 -0.37877384905E+02 -0.65152454989E+02  0.14619768250E+03  0.12509000000E+03 0.  0.
         25    1    3    3    0    0  0.59861236801E+02  0.92219841805E+02 -0.14728523020E+03  0.22232479401E+03  0.12509000000E+03 0.  0.
<mgrwt>
<rscale>  2 0.45330008E+03</rscale>
<asrwt>0</asrwt>
<pdfrwt beam="1">  1       21 0.16799742E-01 0.45330008E+03</pdfrwt>
<pdfrwt beam="2">  1       21 0.66128879E-01 0.45330008E+03</pdfrwt>
<totfact> 0.61782751E+04</totfact>
</mgrwt>
</event>
<event>
 7    0  0.4770865E-002  0.4543347E+03  0.7546771E-02  0.1026437E+00
         21   -1    0    0  502  501  0.00000000000E+00  0.00000000000E+00  0.27794551642E+03  0.27794551642E+03  0.00000000000E+00 0. -1.
         21   -1    0    0  501  502 -0.00000000000E+00 -0.00000000000E+00 -0.18566588280E+03  0.18566588280E+03  0.00000000000E+00 0. -1.
      99926    2    1    2    0    0  0.00000000000E+00  0.00000000000E+00  0.92279633620E+02  0.46361139922E+03  0.45433467698E+03 0.  0.
      99925    2    3    3    0    0 -0.33699704931E+02 -0.10605964466E+03  0.41241469913E+02  0.28857791502E+03  0.26304379076E+03 0.  0.
         25    1    3    3    0    0  0.33699704931E+02  0.10605964466E+03  0.51038163708E+02  0.17503348421E+03  0.12509000000E+03 0.  0.
         25    1    4    4    0    0  0.21075777363E+02 -0.43983136661E+02  0.33477944590E+02  0.13837263305E+03  0.12509000000E+03 0.  0.
         25    1    4    4    0    0 -0.54775482294E+02 -0.62076508003E+02  0.77635253229E+01  0.15020528197E+03  0.12509000000E+03 0.  0.
<mgrwt>
<rscale>  2 0.45433468E+03</rscale>
<asrwt>0</asrwt>
<pdfrwt beam="1">  1       21 0.40874341E-01 0.45433468E+03</pdfrwt>
<pdfrwt beam="2">  1       21 0.27303806E-01 0.45433468E+03</pdfrwt>
<totfact> 0.68273830E+04</totfact>
</mgrwt>
</event>
<event>
 7    0  0.4770865E-002  0.4123916E+03  0.7546771E-02  0.1039571E+00
         21   -1    0    0  502  501  0.00000000000E+00  0.00000000000E+00  0.42485303912E+02  0.42485303912E+02  0.00000000000E+00 0.  1.
         21   -1    0    0  501  502 -0.00000000000E+00 -0.00000000000E+00 -0.10007392358E+04  0.10007392358E+04  0.00000000000E+00 0.  1.
      99926    2    1    2    0    0  0.35527136788E-14  0.71054273576E-14 -0.95825393193E+03  0.10432245398E+04  0.41239161277E+03 0.  0.
      99925    2    3    3    0    0  0.23168917883E+02  0.47931356455E+02 -0.53343564978E+03  0.59718385255E+03  0.26313636695E+03 0.  0.
         25    1    4    4    0    0 -0.26315420474E+01  0.15388026804E+02 -0.34430703892E+03  0.36665864442E+03  0.12509000000E+03 0.  0.
         25    1    4    4    0    0  0.25800459930E+02  0.32543329651E+02 -0.18912861086E+03  0.23052520813E+03  0.12509000000E+03 0.  0.
         25    1    3    3    0    0 -0.23168917883E+02 -0.47931356455E+02 -0.42481828215E+03  0.44604068720E+03  0.12509000000E+03 0.  0.
<mgrwt>
<rscale>  2 0.41239161E+03</rscale>
<asrwt>0</asrwt>
<pdfrwt beam="1">  1       21 0.62478400E-02 0.41239161E+03</pdfrwt>
<pdfrwt beam="2">  1       21 0.14716751E+00 0.41239161E+03</pdfrwt>
<totfact> 0.53112799E+04</totfact>
</mgrwt>
</event>
<event>
 7    0  0.4770865E-002  0.4647331E+03  0.7546771E-02  0.1023417E+00
         21   -1    0    0  502  501  0.00000000000E+00  0.00000000000E+00  0.69696617533E+02  0.69696617533E+02  0.00000000000E+00 0. -1.
         21   -1    0    0  501  502 -0.00000000000E+00 -0.00000000000E+00 -0.77470336527E+03  0.77470336527E+03  0.00000000000E+00 0. -1.
      99926    2    1    2    0    0  0.00000000000E+00 -0.26645352591E-14 -0.70500674774E+03  0.84439998281E+03  0.46473305951E+03 0.  0.
      99925    2    3    3    0    0  0.11419216715E+03 -0.49272720953E+01 -0.51779529126E+03  0.59189301937E+03  0.26298527273E+03 0.  0.
         25    1    4    4    0    0  0.41513818117E+02  0.32957492670E+02 -0.27517805404E+03  0.30688770413E+03  0.12509000000E+03 0.  0.
         25    1    3    3    0    0 -0.11419216715E+03  0.49272720953E+01 -0.18721145648E+03  0.25250696344E+03  0.12509000000E+03 0.  0.
         25    1    4    4    0    0  0.72678349031E+02 -0.37884764765E+02 -0.24261723722E+03  0.28500531524E+03  0.12509000000E+03 0.  0.
<mgrwt>
<rscale>  2 0.46473306E+03</rscale>
<asrwt>0</asrwt>
<pdfrwt beam="1">  1       21 0.10249502E-01 0.46473306E+03</pdfrwt>
<pdfrwt beam="2">  1       21 0.11392697E+00 0.46473306E+03</pdfrwt>
<totfact> 0.42362403E+04</totfact>
</mgrwt>
</event>
<event>
 7    0  0.4770865E-002  0.4505429E+03  0.7546771E-02  0.1027560E+00
         21   -1    0    0  502  501  0.00000000000E+00  0.00000000000E+00  0.71645136595E+03  0.71645136595E+03  0.00000000000E+00 0.  1.
         21   -1    0    0  501  502 -0.00000000000E+00 -0.00000000000E+00 -0.70831347421E+02  0.70831347421E+02  0.00000000000E+00 0.  1.
      99926    2    1    2    0    0  0.00000000000E+00  0.00000000000E+00  0.64562001853E+03  0.78728271337E+03  0.45054285306E+03 0.  0.
      99925    2    3    3    0    0 -0.56055723662E+01  0.22009825909E+02  0.22093155333E+03  0.34397282689E+03  0.26266080695E+03 0.  0.
         25    1    4    4    0    0  0.13113059944E+02 -0.25721235244E+02  0.11166224381E+03  0.17014552323E+03  0.12509000000E+03 0.  0.
         25    1    3    3    0    0  0.56055723662E+01 -0.22009825909E+02  0.42468846520E+03  0.44330988648E+03  0.12509000000E+03 0.  0.
         25    1    4    4    0    0 -0.18718632310E+02  0.47731061153E+02  0.10926930952E+03  0.17382730366E+03  0.12509000000E+03 0.  0.
<mgrwt>
<rscale>  2 0.45054285E+03</rscale>
<asrwt>0</asrwt>
<pdfrwt beam="1">  1       21 0.10536049E+00 0.45054285E+03</pdfrwt>
<pdfrwt beam="2">  1       21 0.10416375E-01 0.45054285E+03</pdfrwt>
<totfact> 0.50116455E+04</totfact>
</mgrwt>
</event>
<event>
 7    0  0.4770865E-002  0.4622242E+03  0.7546771E-02  0.1024138E+00
         21   -1    0    0  502  501  0.00000000000E+00  0.00000000000E+00  0.47164584363E+03  0.47164584363E+03  0.00000000000E+00 0.  1.
         21   -1    0    0  501  502 -0.00000000000E+00 -0.00000000000E+00 -0.11324769585E+03  0.11324769585E+03  0.00000000000E+00 0.  1.
      99926    2    1    2    0    0  0.14210854715E-13 -0.88817841970E-15  0.35839814778E+03  0.58489353949E+03  0.46222420988E+03 0.  0.
      99925    2    3    3    0    0 -0.80768550431E+02  0.40420455750E+01  0.33602002217E+03  0.43426756073E+03  0.26294288758E+03 0.  0.
         25    1    4    4    0    0 -0.38175429954E+02  0.17277651950E+02  0.22655234267E+03  0.26216283638E+03  0.12509000000E+03 0.  0.
         25    1    4    4    0    0 -0.42593120477E+02 -0.13235606375E+02  0.10946767950E+03  0.17210472435E+03  0.12509000000E+03 0.  0.
         25    1    3    3    0    0  0.80768550431E+02 -0.40420455750E+01  0.22378125608E+02  0.15062597876E+03  0.12509000000E+03 0.  0.
<mgrwt>
<rscale>  2 0.46222421E+03</rscale>
<asrwt>0</asrwt>
<pdfrwt beam="1">  1       21 0.69359682E-01 0.46222421E+03</pdfrwt>
<pdfrwt beam="2">  1       21 0.16654073E-01 0.46222421E+03</pdfrwt>
<totfact> 0.56331411E+04</totfact>
</mgrwt>
</event>
<event>
 7    0  0.4770865E-002  0.4926451E+03  0.7546771E-02  0.1015717E+00
         21   -1    0    0  502  501  0.00000000000E+00  0.00000000000E+00  0.34736460466E+03  0.34736460466E+03  0.00000000000E+00 0. -1.
         21   -1    0    0  501  502 -0.00000000000E+00 -0.00000000000E+00 -0.17467180728E+03  0.17467180728E+03  0.00000000000E+00 0. -1.
      99926    2    1    2    0    0  0.00000000000E+00  0.00000000000E+00  0.17269279738E+03  0.52203641195E+03  0.49264511886E+03 0.  0.
      99925    2    3    3    0    0 -0.11803073151E+03  0.85178427779E+02  0.11226757969E+03  0.32082673730E+03  0.26294327863E+03 0.  0.
         25    1    4    4    0    0 -0.33217672333E+02  0.15087205631E+02  0.24706267762E+02  0.13262332109E+03  0.12509000000E+03 0.  0.
         25    1    3    3    0    0  0.11803073151E+03 -0.85178427779E+02  0.60425217690E+02  0.20120967465E+03  0.12509000000E+03 0.  0.
         25    1    4    4    0    0 -0.84813059173E+02  0.70091222148E+02  0.87561311929E+02  0.18820341622E+03  0.12509000000E+03 0.  0.
<mgrwt>
<rscale>  2 0.49264512E+03</rscale>
<asrwt>0</asrwt>
<pdfrwt beam="1">  1       21 0.51083030E-01 0.49264512E+03</pdfrwt>
<pdfrwt beam="2">  1       21 0.25687030E-01 0.49264512E+03</pdfrwt>
<totfact> 0.47790927E+04</totfact>
</mgrwt>
</event>
<event>
 7    0  0.4770865E-002  0.4559058E+03  0.7546771E-02  0.1025975E+00
         21   -1    0    0  502  501  0.00000000000E+00  0.00000000000E+00  0.54406868186E+03  0.54406868186E+03  0.00000000000E+00 0. -1.
         21   -1    0    0  501  502 -0.00000000000E+00 -0.00000000000E+00 -0.95507270551E+02  0.95507270551E+02  0.00000000000E+00 0. -1.
      99926    2    1    2    0    0 -0.35527136788E-14  0.35527136788E-14  0.44856141131E+03  0.63957595241E+03  0.45590575691E+03 0.  0.
      99925    2    3    3    0    0 -0.12466181378E+02  0.27494208486E+02  0.12780562058E+03  0.29397050893E+03  0.26300769246E+03 0.  0.
         25    1    4    4    0    0  0.22951633674E+02 -0.13601270724E+02  0.70740121541E+02  0.14616239239E+03  0.12509000000E+03 0.  0.
         25    1    3    3    0    0  0.12466181378E+02 -0.27494208486E+02  0.32075579073E+03  0.34560544348E+03  0.12509000000E+03 0.  0.
         25    1    4    4    0    0 -0.35417815053E+02  0.41095479210E+02  0.57065499043E+02  0.14780811654E+03  0.12509000000E+03 0.  0.
<mgrwt>
<rscale>  2 0.45590576E+03</rscale>
<asrwt>0</asrwt>
<pdfrwt beam="1">  1       21 0.80010099E-01 0.45590576E+03</pdfrwt>
<pdfrwt beam="2">  1       21 0.14045187E-01 0.45590576E+03</pdfrwt>
<totfact> 0.55905365E+04</totfact>
</mgrwt>
</event>
<event>
 7    0  0.4770865E-002  0.4536202E+03  0.7546771E-02  0.1026648E+00
         21   -1    0    0  502  501  0.00000000000E+00  0.00000000000E+00  0.59463348672E+02  0.59463348672E+02  0.00000000000E+00 0. -1.
         21   -1    0    0  501  502 -0.00000000000E+00 -0.00000000000E+00 -0.86511814408E+03  0.86511814408E+03  0.00000000000E+00 0. -1.
      99926    2    1    2    0    0  0.00000000000E+00  0.00000000000E+00 -0.80565479541E+03  0.92458149275E+03  0.45362020168E+03 0.  0.
      99925    2    3    3    0    0 -0.73705712338E+02  0.82768647468E+02 -0.53999565802E+03  0.61072568762E+03  0.26288281383E+03 0.  0.
         25    1    4    4    0    0 -0.53814899282E+02  0.55116901567E+02 -0.21096853141E+03  0.25707809236E+03  0.12509000000E+03 0.  0.
         25    1    4    4    0    0 -0.19890813055E+02  0.27651745902E+02 -0.32902712661E+03  0.35364759527E+03  0.12509000000E+03 0.  0.
         25    1    3    3    0    0  0.73705712338E+02 -0.82768647468E+02 -0.26565913739E+03  0.31385580513E+03  0.12509000000E+03 0.  0.
<mgrwt>
<rscale>  2 0.45362020E+03</rscale>
<asrwt>0</asrwt>
<pdfrwt beam="1">  1       21 0.87446104E-02 0.45362020E+03</pdfrwt>
<pdfrwt beam="2">  1       21 0.12722325E+00 0.45362020E+03</pdfrwt>
<totfact> 0.42646051E+04</totfact>
</mgrwt>
</event>
<event>
 7    0  0.4770865E-002  0.4534580E+03  0.7546771E-02  0.1026696E+00
         21   -1    0    0  502  501  0.00000000000E+00  0.00000000000E+00  0.10904791979E+03  0.10904791979E+03  0.00000000000E+00 0. -1.
         21   -1    0    0  501  502 -0.00000000000E+00 -0.00000000000E+00 -0.47140785262E+03  0.47140785262E+03  0.00000000000E+00 0. -1.
      99926    2    1    2    0    0  0.00000000000E+00 -0.14210854715E-13 -0.36235993283E+03  0.58045577241E+03  0.45345802761E+03 0.  0.
      99925    2    3    3    0    0  0.45245975535E+02  0.66597972123E+02 -0.32844511564E+03  0.42787723159E+03  0.26214546178E+03 0.  0.
         25    1    4    4    0    0 -0.10658689942E+02  0.20129170338E+02 -0.12560267656E+03  0.17872417751E+03  0.12509000000E+03 0.  0.
         25    1    3    3    0    0 -0.45245975535E+02 -0.66597972123E+02 -0.33914817187E+02  0.15257854082E+03  0.12509000000E+03 0.  0.
         25    1    4    4    0    0  0.55904665477E+02  0.46468801786E+02 -0.20284243909E+03  0.24915305408E+03  0.12509000000E+03 0.  0.
<mgrwt>
<rscale>  2 0.45345803E+03</rscale>
<asrwt>0</asrwt>
<pdfrwt beam="1">  1       21 0.16036459E-01 0.45345803E+03</pdfrwt>
<pdfrwt beam="2">  1       21 0.69324683E-01 0.45345803E+03</pdfrwt>
<totfact> 0.60633444E+04</totfact>
</mgrwt>
</event>
<event>
 6    0  0.4770865E-002  0.4548184E+03  0.7546771E-02  0.1026295E+00
         21   -1    0    0  502  501  0.00000000000E+00  0.00000000000E+00  0.11672534246E+03  0.11672534246E+03  0.00000000000E+00 0. -1.
         21   -1    0    0  501  502 -0.00000000000E+00 -0.00000000000E+00 -0.44304806151E+03  0.44304806151E+03  0.00000000000E+00 0. -1.
      99926    2    1    2    0    0 -0.14210854715E-13  0.26645352591E-14 -0.32632271906E+03  0.55977340397E+03  0.45481836685E+03 0.  0.
         25    1    3    3    0    0  0.58893614569E+02 -0.20442724871E+02 -0.19214457016E+03  0.23759925669E+03  0.12509000000E+03 0.  0.
         25    1    3    3    0    0 -0.76856944640E+02  0.42882244835E+01 -0.14866104333E+02  0.14762753119E+03  0.12509000000E+03 0.  0.
         25    1    3    3    0    0  0.17963330072E+02  0.16154500388E+02 -0.11931204456E+03  0.17454661609E+03  0.12509000000E+03 0.  0.
<mgrwt>
<rscale>  2 0.45481837E+03</rscale>
<asrwt>0</asrwt>
<pdfrwt beam="1">  1       21 0.17165492E-01 0.45481837E+03</pdfrwt>
<pdfrwt beam="2">  1       21 0.65154126E-01 0.45481837E+03</pdfrwt>
<totfact> 0.61313303E+04</totfact>
</mgrwt>
</event>
<event>
 7    0  0.4770865E-002  0.4717269E+03  0.7546771E-02  0.1021434E+00
         21   -1    0    0  502  501  0.00000000000E+00  0.00000000000E+00  0.16156135067E+03  0.16156135067E+03  0.00000000000E+00 0. -1.
         21   -1    0    0  501  502 -0.00000000000E+00 -0.00000000000E+00 -0.34433706954E+03  0.34433706954E+03  0.00000000000E+00 0. -1.
      99926    2    1    2    0    0  0.00000000000E+00 -0.35527136788E-14 -0.18277571887E+03  0.50589842021E+03  0.47172687878E+03 0.  0.
      99925    2    3    3    0    0 -0.11584458644E+03  0.25329291485E+02 -0.61054813299E+02  0.29488887501E+03  0.26300231399E+03 0.  0.
         25    1    4    4    0    0 -0.21753468672E+02  0.32929112556E+02 -0.18207663290E+02  0.13242570353E+03  0.12509000000E+03 0.  0.
         25    1    3    3    0    0  0.11584458644E+03 -0.25329291485E+02 -0.12172090557E+03  0.21100954521E+03  0.12509000000E+03 0.  0.
         25    1    4    4    0    0 -0.94091117767E+02 -0.75998210708E+01 -0.42847150009E+02  0.16246317148E+03  0.12509000000E+03 0.  0.
<mgrwt>
<rscale>  2 0.47172688E+03</rscale>
<asrwt>0</asrwt>
<pdfrwt beam="1">  1       21 0.23759023E-01 0.47172688E+03</pdfrwt>
<pdfrwt beam="2">  1       21 0.50637803E-01 0.47172688E+03</pdfrwt>
<totfact> 0.56916827E+04</totfact>
</mgrwt>
</event>
<event>
 7    0  0.4770865E-002  0.4540904E+03  0.7546771E-02  0.1026509E+00
         21   -1    0    0  502  501  0.00000000000E+00  0.00000000000E+00  0.34317031264E+03  0.34317031264E+03  0.00000000000E+00 0.  1.
         21   -1    0    0  501  502 -0.00000000000E+00 -0.00000000000E+00 -0.15021558794E+03  0.15021558794E+03  0.00000000000E+00 0.  1.
      99926    2    1    2    0    0  0.00000000000E+00  0.17763568394E-14  0.19295472470E+03  0.49338590058E+03  0.45409043274E+03 0.  0.
      99925    2    3    3    0    0 -0.14747045432E+02 -0.13154598066E+02  0.12108089081E+01  0.26359522161E+03  0.26285063439E+03 0.  0.
         25    1    4    4    0    0 -0.74782653490E+01 -0.26625568748E+02  0.35598602787E+02  0.13296470954E+03  0.12509000000E+03 0.  0.
         25    1    4    4    0    0 -0.72687800833E+01  0.13470970681E+02 -0.34387793879E+02  0.13063051207E+03  0.12509000000E+03 0.  0.
         25    1    3    3    0    0  0.14747045432E+02  0.13154598066E+02  0.19174391579E+03  0.22979067897E+03  0.12509000000E+03 0.  0.
<mgrwt>
<rscale>  2 0.45409043E+03</rscale>
<asrwt>0</asrwt>
<pdfrwt beam="1">  1       21 0.50466223E-01 0.45409043E+03</pdfrwt>
<pdfrwt beam="2">  1       21 0.22090528E-01 0.45409043E+03</pdfrwt>
<totfact> 0.66214685E+04</totfact>
</mgrwt>
</event>
<event>
 7    0  0.4770865E-002  0.4514739E+03  0.7546771E-02  0.1027283E+00
         21   -1    0    0  502  501  0.00000000000E+00  0.00000000000E+00  0.19492558873E+04  0.19492558873E+04  0.00000000000E+00 0.  1.
         21   -1    0    0  501  502 -0.00000000000E+00 -0.00000000000E+00 -0.26141856699E+02  0.26141856699E+02  0.00000000000E+00 0.  1.
      99926    2    1    2    0    0  0.00000000000E+00 -0.14210854715E-13  0.19231140306E+04  0.19753977440E+04  0.45147388884E+03 0.  0.
      99925    2    3    3    0    0 -0.46575323447E+02  0.90404667733E+02  0.10334705406E+04  0.10712653908E+04  0.26307017036E+03 0.  0.
         25    1    3    3    0    0  0.46575323447E+02 -0.90404667733E+02  0.88964348994E+03  0.90413235314E+03  0.12509000000E+03 0.  0.
         25    1    4    4    0    0  0.90178652693E+00  0.91655733003E+01  0.44669301585E+03  0.46396872682E+03  0.12509000000E+03 0.  0.
         25    1    4    4    0    0 -0.47477109974E+02  0.81239094432E+02  0.58677752478E+03  0.60729666402E+03  0.12509000000E+03 0.  0.
<mgrwt>
<rscale>  2 0.45147389E+03</rscale>
<asrwt>0</asrwt>
<pdfrwt beam="1">  1       21 0.28665518E+00 0.45147389E+03</pdfrwt>
<pdfrwt beam="2">  1       21 0.38443920E-02 0.45147389E+03</pdfrwt>
<totfact> 0.14508713E+04</totfact>
</mgrwt>
</event>
<event>
 7    0  0.4770865E-002  0.4841262E+03  0.7546771E-02  0.1018007E+00
         21   -1    0    0  502  501  0.00000000000E+00  0.00000000000E+00  0.22656209217E+03  0.22656209217E+03  0.00000000000E+00 0. -1.
         21   -1    0    0  501  502 -0.00000000000E+00 -0.00000000000E+00 -0.25862470895E+03  0.25862470895E+03  0.00000000000E+00 0. -1.
      99926    2    1    2    0    0  0.14210854715E-13  0.00000000000E+00 -0.32062616773E+02  0.48518680112E+03  0.48412624447E+03 0.  0.
      99925    2    3    3    0    0 -0.12042554543E+03 -0.67325126039E+02 -0.33742236911E+02  0.29894686498E+03  0.26305076495E+03 0.  0.
         25    1    4    4    0    0 -0.31382053982E+02 -0.68231430709E+01  0.56674626891E+01  0.12927109819E+03  0.12509000000E+03 0.  0.
         25    1    4    4    0    0 -0.89043491453E+02 -0.60501982969E+02 -0.39409699600E+02  0.16967576679E+03  0.12509000000E+03 0.  0.
         25    1    3    3    0    0  0.12042554543E+03  0.67325126039E+02  0.16796201379E+01  0.18623993614E+03  0.12509000000E+03 0.  0.
<mgrwt>
<rscale>  2 0.48412624E+03</rscale>
<asrwt>0</asrwt>
<pdfrwt beam="1">  1       21 0.33317955E-01 0.48412624E+03</pdfrwt>
<pdfrwt beam="2">  1       21 0.38033045E-01 0.48412624E+03</pdfrwt>
<totfact> 0.52967133E+04</totfact>
</mgrwt>
</event>
<event>
 7    0  0.4770865E-002  0.4410253E+03  0.7546771E-02  0.1030433E+00
         21   -1    0    0  502  501  0.00000000000E+00  0.00000000000E+00  0.60818713073E+03  0.60818713073E+03  0.00000000000E+00 0. -1.
         21   -1    0    0  501  502 -0.00000000000E+00 -0.00000000000E+00 -0.79952102282E+02  0.79952102282E+02  0.00000000000E+00 0. -1.
      99926    2    1    2    0    0  0.00000000000E+00 -0.14210854715E-13  0.52823502845E+03  0.68813923301E+03  0.44102534931E+03 0.  0.
      99925    2    3    3    0    0  0.28792917145E+02  0.85360950369E+02  0.40250926264E+03  0.48921713717E+03  0.26306686767E+03 0.  0.
         25    1    3    3    0    0 -0.28792917145E+02 -0.85360950369E+02  0.12572576581E+03  0.19892209584E+03  0.12509000000E+03 0.  0.
         25    1    4    4    0    0  0.52608050904E+02  0.35755881537E+02  0.18244273944E+03  0.23017156940E+03  0.12509000000E+03 0.  0.
         25    1    4    4    0    0 -0.23815133759E+02  0.49605068832E+02  0.22006652320E+03  0.25904556778E+03  0.12509000000E+03 0.  0.
<mgrwt>
<rscale>  2 0.44102535E+03</rscale>
<asrwt>0</asrwt>
<pdfrwt beam="1">  1       21 0.89439281E-01 0.44102535E+03</pdfrwt>
<pdfrwt beam="2">  1       21 0.11757662E-01 0.44102535E+03</pdfrwt>
<totfact> 0.59871396E+04</totfact>
</mgrwt>
</event>
<event>
 7    0  0.4770865E-002  0.4649564E+03  0.7546771E-02  0.1023353E+00
         21   -1    0    0  502  501  0.00000000000E+00  0.00000000000E+00  0.23434227219E+03  0.23434227219E+03  0.00000000000E+00 0. -1.
         21   -1    0    0  501  502 -0.00000000000E+00 -0.00000000000E+00 -0.23062899632E+03  0.23062899632E+03  0.00000000000E+00 0. -1.
      99926    2    1    2    0    0  0.17763568394E-14  0.71054273576E-14  0.37132758664E+01  0.46497126852E+03  0.46495644111E+03 0.  0.
      99925    2    3    3    0    0  0.13652315265E+02  0.36292438454E+02 -0.11368816412E+03  0.28909024904E+03  0.26295369674E+03 0.  0.
         25    1    4    4    0    0  0.43961237831E+01 -0.54430195939E+01 -0.19545978037E+02  0.12680104780E+03  0.12509000000E+03 0.  0.
         25    1    3    3    0    0 -0.13652315265E+02 -0.36292438454E+02  0.11740143998E+03  0.17588101947E+03  0.12509000000E+03 0.  0.
         25    1    4    4    0    0  0.92561914815E+01  0.41735458048E+02 -0.94142186078E+02  0.16228920124E+03  0.12509000000E+03 0.  0.
<mgrwt>
<rscale>  2 0.46495644E+03</rscale>
<asrwt>0</asrwt>
<pdfrwt beam="1">  1       21 0.34462099E-01 0.46495644E+03</pdfrwt>
<pdfrwt beam="2">  1       21 0.33916029E-01 0.46495644E+03</pdfrwt>
<totfact> 0.62691091E+04</totfact>
</mgrwt>
</event>
<event>
 7    0  0.4770865E-002  0.4562710E+03  0.7546771E-02  0.1025868E+00
         21   -1    0    0  502  501  0.00000000000E+00  0.00000000000E+00  0.26045287522E+03  0.26045287522E+03  0.00000000000E+00 0.  1.
         21   -1    0    0  501  502 -0.00000000000E+00 -0.00000000000E+00 -0.19982812732E+03  0.19982812732E+03  0.00000000000E+00 0.  1.
      99926    2    1    2    0    0  0.00000000000E+00 -0.17763568394E-14  0.60624747902E+02  0.46028100255E+03  0.45627101732E+03 0.  0.
      99925    2    3    3    0    0 -0.43211930515E+01  0.12130749347E+02 -0.76559543034E+02  0.27418192794E+03  0.26296109635E+03 0.  0.
         25    1    4    4    0    0  0.59803078246E+01  0.42568611402E+02 -0.54972978315E+02  0.14323891651E+03  0.12509000000E+03 0.  0.
         25    1    3    3    0    0  0.43211930515E+01 -0.12130749347E+02  0.13718429094E+03  0.18609907460E+03  0.12509000000E+03 0.  0.
         25    1    4    4    0    0 -0.10301500876E+02 -0.30437862055E+02 -0.21586564719E+02  0.13094301143E+03  0.12509000000E+03 0.  0.
<mgrwt>
<rscale>  2 0.45627102E+03</rscale>
<asrwt>0</asrwt>
<pdfrwt beam="1">  1       21 0.38301893E-01 0.45627102E+03</pdfrwt>
<pdfrwt beam="2">  1       21 0.29386489E-01 0.45627102E+03</pdfrwt>
<totfact> 0.67473569E+04</totfact>
</mgrwt>
</event>
<event>
 7    0  0.4770865E-002  0.4593083E+03  0.7546771E-02  0.1024982E+00
         21   -1    0    0  502  501  0.00000000000E+00  0.00000000000E+00  0.87895021954E+02  0.87895021954E+02  0.00000000000E+00 0. -1.
         21   -1    0    0  501  502 -0.00000000000E+00 -0.00000000000E+00 -0.60004560065E+03  0.60004560065E+03  0.00000000000E+00 0. -1.
      99926    2    1    2    0    0  0.00000000000E+00  0.00000000000E+00 -0.51215057870E+03  0.68794062260E+03  0.45930826791E+03 0.  0.
      99925    2    3    3    0    0  0.37263657569E+02 -0.36652054141E+02 -0.47807274408E+03  0.54815235357E+03  0.26303136855E+03 0.  0.
         25    1    4    4    0    0  0.10728193765E+02 -0.84000234891E+01 -0.15565688259E+03  0.20015550887E+03  0.12509000000E+03 0.  0.
         25    1    3    3    0    0 -0.37263657569E+02  0.36652054141E+02 -0.34077834619E+02  0.13978826904E+03  0.12509000000E+03 0.  0.
         25    1    4    4    0    0  0.26535463804E+02 -0.28252030652E+02 -0.32241586149E+03  0.34799684469E+03  0.12509000000E+03 0.  0.
<mgrwt>
<rscale>  2 0.45930827E+03</rscale>
<asrwt>0</asrwt>
<pdfrwt beam="1">  1       21 0.12925739E-01 0.45930827E+03</pdfrwt>
<pdfrwt beam="2">  1       21 0.88241995E-01 0.45930827E+03</pdfrwt>
<totfact> 0.51783869E+04</totfact>
</mgrwt>
</event>
<event>
 7    0  0.4770865E-002  0.4442594E+03  0.7546771E-02  0.1029448E+00
         21   -1    0    0  502  501  0.00000000000E+00  0.00000000000E+00  0.10326884021E+04  0.10326884021E+04  0.00000000000E+00 0.  1.
         21   -1    0    0  501  502 -0.00000000000E+00 -0.00000000000E+00 -0.47779763045E+02  0.47779763045E+02  0.00000000000E+00 0.  1.
      99926    2    1    2    0    0  0.00000000000E+00  0.00000000000E+00  0.98490863901E+03  0.10804681651E+04  0.44425941588E+03 0.  0.
      99925    2    3    3    0    0 -0.80146445197E+02  0.31018071065E+02  0.48860866456E+03  0.56148189732E+03  0.26294090690E+03 0.  0.
         25    1    4    4    0    0 -0.10596700308E+02 -0.91467850873E+01  0.18989149909E+03  0.22782063836E+03  0.12509000000E+03 0.  0.
         25    1    3    3    0    0  0.80146445197E+02 -0.31018071065E+02  0.49629997445E+03  0.51898626779E+03  0.12509000000E+03 0.  0.
         25    1    4    4    0    0 -0.69549744889E+02  0.40164856152E+02  0.29871716547E+03  0.33366125896E+03  0.12509000000E+03 0.  0.
<mgrwt>
<rscale>  2 0.44425942E+03</rscale>
<asrwt>0</asrwt>
<pdfrwt beam="1">  1       21 0.15186593E+00 0.44425942E+03</pdfrwt>
<pdfrwt beam="2">  1       21 0.70264364E-02 0.44425942E+03</pdfrwt>
<totfact> 0.39376797E+04</totfact>
</mgrwt>
</event>
<event>
 7    0  0.4770865E-002  0.4296767E+03  0.7546771E-02  0.1033962E+00
         21   -1    0    0  502  501  0.00000000000E+00  0.00000000000E+00  0.16697606741E+04  0.16697606741E+04  0.00000000000E+00 0.  1.
         21   -1    0    0  501  502 -0.00000000000E+00 -0.00000000000E+00 -0.27641990928E+02  0.27641990928E+02  0.00000000000E+00 0.  1.
      99926    2    1    2    0    0 -0.71054273576E-14  0.00000000000E+00  0.16421186832E+04  0.16974026651E+04  0.42967666638E+03 0.  0.
      99925    2    3    3    0    0  0.62578077447E+02 -0.58469564780E+02  0.98799959037E+03  0.10259460384E+04  0.26284477804E+03 0.  0.
         25    1    4    4    0    0  0.28836165510E+02 -0.22530326114E+02  0.33955769353E+03  0.36371152768E+03  0.12509000000E+03 0.  0.
         25    1    3    3    0    0 -0.62578077447E+02  0.58469564780E+02  0.65411909285E+03  0.67145662668E+03  0.12509000000E+03 0.  0.
         25    1    4    4    0    0  0.33741911938E+02 -0.35939238667E+02  0.64844189684E+03  0.66223451071E+03  0.12509000000E+03 0.  0.
<mgrwt>
<rscale>  2 0.42967667E+03</rscale>
<asrwt>0</asrwt>
<pdfrwt beam="1">  1       21 0.24555297E+00 0.42967667E+03</pdfrwt>
<pdfrwt beam="2">  1       21 0.40649998E-02 0.42967667E+03</pdfrwt>
<totfact> 0.23631157E+04</totfact>
</mgrwt>
</event>
<event>
 7    0  0.4770865E-002  0.4547837E+03  0.7546771E-02  0.1026305E+00
         21   -1    0    0  502  501  0.00000000000E+00  0.00000000000E+00  0.14644741459E+04  0.14644741459E+04  0.00000000000E+00 0.  1.
         21   -1    0    0  501  502 -0.00000000000E+00 -0.00000000000E+00 -0.35307589666E+02  0.35307589666E+02  0.00000000000E+00 0.  1.
      99926    2    1    2    0    0 -0.71054273576E-14  0.00000000000E+00  0.14291665562E+04  0.14997817356E+04  0.45478369461E+03 0.  0.
      99925    2    3    3    0    0 -0.44462588850E+02  0.64284214126E+02  0.62918591190E+03  0.68631635744E+03  0.26276576788E+03 0.  0.
         25    1    4    4    0    0 -0.27716211047E+01  0.42683955739E+02  0.39697773172E+03  0.41841179422E+03  0.12509000000E+03 0.  0.
         25    1    3    3    0    0  0.44462588850E+02 -0.64284214126E+02  0.79998064434E+03  0.81346537813E+03  0.12509000000E+03 0.  0.
         25    1    4    4    0    0 -0.41690967746E+02  0.21600258387E+02  0.23220818018E+03  0.26790456322E+03  0.12509000000E+03 0.  0.
<mgrwt>
<rscale>  2 0.45478369E+03</rscale>
<asrwt>0</asrwt>
<pdfrwt beam="1">  1       21 0.21536380E+00 0.45478369E+03</pdfrwt>
<pdfrwt beam="2">  1       21 0.51922936E-02 0.45478369E+03</pdfrwt>
<totfact> 0.23824478E+04</totfact>
</mgrwt>
</event>
<event>
 7    0  0.4770865E-002  0.4521177E+03  0.7546771E-02  0.1027092E+00
         21   -1    0    0  502  501  0.00000000000E+00  0.00000000000E+00  0.22814219778E+04  0.22814219778E+04  0.00000000000E+00 0. -1.
         21   -1    0    0  501  502 -0.00000000000E+00 -0.00000000000E+00 -0.22399453705E+02  0.22399453705E+02  0.00000000000E+00 0. -1.
      99926    2    1    2    0    0  0.00000000000E+00  0.00000000000E+00  0.22590225241E+04  0.23038214315E+04  0.45211771022E+03 0.  0.
      99925    2    3    3    0    0  0.83781461280E+02  0.46450120998E+02  0.11459159889E+04  0.11796192194E+04  0.26306102349E+03 0.  0.
         25    1    4    4    0    0  0.45742818905E+02  0.13353235192E+02  0.40558387099E+03  0.42710244542E+03  0.12509000000E+03 0.  0.
         25    1    3    3    0    0 -0.83781461280E+02 -0.46450120998E+02  0.11131065351E+04  0.11242022121E+04  0.12509000000E+03 0.  0.
         25    1    4    4    0    0  0.38038642376E+02  0.33096885806E+02  0.74033211794E+03  0.75251677398E+03  0.12509000000E+03 0.  0.
<mgrwt>
<rscale>  2 0.45211771E+03</rscale>
<asrwt>0</asrwt>
<pdfrwt beam="1">  1       21 0.33550307E+00 0.45211771E+03</pdfrwt>
<pdfrwt beam="2">  1       21 0.32940389E-02 0.45211771E+03</pdfrwt>
<totfact> 0.95657845E+03</totfact>
</mgrwt>
</event>
<event>
 7    0  0.4770865E-002  0.4526495E+03  0.7546771E-02  0.1026935E+00
         21   -1    0    0  502  501  0.00000000000E+00  0.00000000000E+00  0.39068216596E+03  0.39068216596E+03  0.00000000000E+00 0.  1.
         21   -1    0    0  501  502 -0.00000000000E+00 -0.00000000000E+00 -0.13111143658E+03  0.13111143658E+03  0.00000000000E+00 0.  1.
      99926    2    1    2    0    0 -0.71054273576E-14  0.71054273576E-14  0.25957072938E+03  0.52179360254E+03  0.45264953342E+03 0.  0.
      99925    2    3    3    0    0  0.62215656247E+02 -0.38884457691E+02  0.25980574169E+03  0.37677514764E+03  0.26282636765E+03 0.  0.
         25    1    4    4    0    0  0.41142612011E+02 -0.51112587337E+01  0.18022461479E+03  0.22326499808E+03  0.12509000000E+03 0.  0.
         25    1    3    3    0    0 -0.62215656247E+02  0.38884457691E+02 -0.23501230218E+00  0.14501845490E+03  0.12509000000E+03 0.  0.
         25    1    4    4    0    0  0.21073044237E+02 -0.33773198957E+02  0.79581126894E+02  0.15351014956E+03  0.12509000000E+03 0.  0.
<mgrwt>
<rscale>  2 0.45264953E+03</rscale>
<asrwt>0</asrwt>
<pdfrwt beam="1">  1       21 0.57453259E-01 0.45264953E+03</pdfrwt>
<pdfrwt beam="2">  1       21 0.19281094E-01 0.45264953E+03</pdfrwt>
<totfact> 0.64967604E+04</totfact>
</mgrwt>
</event>
<event>
 7    0  0.4770865E-002  0.4599925E+03  0.7546771E-02  0.1024783E+00
         21   -1    0    0  502  501  0.00000000000E+00  0.00000000000E+00  0.16938568998E+04  0.16938568998E+04  0.00000000000E+00 0.  1.
         21   -1    0    0  501  502 -0.00000000000E+00 -0.00000000000E+00 -0.31229485365E+02  0.31229485365E+02  0.00000000000E+00 0.  1.
      99926    2    1    2    0    0 -0.14210854715E-13  0.00000000000E+00  0.16626274144E+04  0.17250863851E+04  0.45999251847E+03 0.  0.
      99925    2    3    3    0    0  0.93592079078E+02 -0.69188489754E+02  0.97247366754E+03  0.10140967742E+04  0.26294620951E+03 0.  0.
         25    1    4    4    0    0  0.79911248052E+02 -0.32330245627E+02  0.43158242488E+03  0.45753901463E+03  0.12509000000E+03 0.  0.
         25    1    3    3    0    0 -0.93592079078E+02  0.69188489754E+02  0.69015374687E+03  0.71098961090E+03  0.12509000000E+03 0.  0.
         25    1    4    4    0    0  0.13680831026E+02 -0.36858244127E+02  0.54089124266E+03  0.55655775961E+03  0.12509000000E+03 0.  0.
<mgrwt>
<rscale>  2 0.45999252E+03</rscale>
<asrwt>0</asrwt>
<pdfrwt beam="1">  1       21 0.24909654E+00 0.45999252E+03</pdfrwt>
<pdfrwt beam="2">  1       21 0.45925725E-02 0.45999252E+03</pdfrwt>
<totfact> 0.18035112E+04</totfact>
</mgrwt>
</event>
<event>
 7    0  0.4770865E-002  0.4533343E+03  0.7546771E-02  0.1026732E+00
         21   -1    0    0  502  501  0.00000000000E+00  0.00000000000E+00  0.18035274633E+04  0.18035274633E+04  0.00000000000E+00 0. -1.
         21   -1    0    0  501  502 -0.00000000000E+00 -0.00000000000E+00 -0.28487510716E+02  0.28487510716E+02  0.00000000000E+00 0. -1.
      99926    2    1    2    0    0  0.14210854715E-13  0.00000000000E+00  0.17750399525E+04  0.18320149740E+04  0.45333434874E+03 0.  0.
      99925    2    3    3    0    0 -0.10089272946E+03 -0.13465265201E+02  0.13032912784E+04  0.13334620923E+04  0.26304436675E+03 0.  0.
         25    1    3    3    0    0  0.10089272946E+03  0.13465265201E+02  0.47174867412E+03  0.49855288171E+03  0.12509000000E+03 0.  0.
         25    1    4    4    0    0 -0.58361782985E+02  0.29174600105E+02  0.57494293980E+03  0.59200012426E+03  0.12509000000E+03 0.  0.
         25    1    4    4    0    0 -0.42530946471E+02 -0.42639865306E+02  0.72834833863E+03  0.74146196801E+03  0.12509000000E+03 0.  0.
<mgrwt>
<rscale>  2 0.45333435E+03</rscale>
<asrwt>0</asrwt>
<pdfrwt beam="1">  1       21 0.26522455E+00 0.45333435E+03</pdfrwt>
<pdfrwt beam="2">  1       21 0.41893410E-02 0.45333435E+03</pdfrwt>
<totfact> 0.16869368E+04</totfact>
</mgrwt>
</event>
<event>
 7    0  0.4770865E-002  0.4575154E+03  0.7546771E-02  0.1025504E+00
         21   -1    0    0  502  501  0.00000000000E+00  0.00000000000E+00  0.10577257671E+04  0.10577257671E+04  0.00000000000E+00 0. -1.
         21   -1    0    0  501  502 -0.00000000000E+00 -0.00000000000E+00 -0.49474146398E+02  0.49474146398E+02  0.00000000000E+00 0. -1.
      99926    2    1    2    0    0  0.00000000000E+00  0.14210854715E-13  0.10082516207E+04  0.11071999135E+04  0.45751537438E+03 0.  0.
      99925    2    3    3    0    0 -0.89643147504E+01 -0.83260901450E+02  0.82585325745E+03  0.87070592273E+03  0.26283543214E+03 0.  0.
         25    1    4    4    0    0 -0.20832366606E+02 -0.60910465441E+02  0.33091493798E+03  0.35957791447E+03  0.12509000000E+03 0.  0.
         25    1    4    4    0    0  0.11868051855E+02 -0.22350436008E+02  0.49493831947E+03  0.51112800826E+03  0.12509000000E+03 0.  0.
         25    1    3    3    0    0  0.89643147504E+01  0.83260901450E+02  0.18239836323E+03  0.23649399074E+03  0.12509000000E+03 0.  0.
<mgrwt>
<rscale>  2 0.45751537E+03</rscale>
<asrwt>0</asrwt>
<pdfrwt beam="1">  1       21 0.15554789E+00 0.45751537E+03</pdfrwt>
<pdfrwt beam="2">  1       21 0.72756104E-02 0.45751537E+03</pdfrwt>
<totfact> 0.34560953E+04</totfact>
</mgrwt>
</event>
<event>
 7    0  0.4770865E-002  0.4598100E+03  0.7546771E-02  0.1024836E+00
         21   -1    0    0  502  501  0.00000000000E+00  0.00000000000E+00  0.48227560471E+03  0.48227560471E+03  0.00000000000E+00 0. -1.
         21   -1    0    0  501  502 -0.00000000000E+00 -0.00000000000E+00 -0.10959770827E+03  0.10959770827E+03  0.00000000000E+00 0. -1.
      99926    2    1    2    0    0  0.00000000000E+00  0.00000000000E+00  0.37267789644E+03  0.59187331298E+03  0.45980996523E+03 0.  0.
      99925    2    3    3    0    0 -0.33439826414E+02  0.49418964935E+02  0.36396391903E+03  0.45300683903E+03  0.26303042746E+03 0.  0.
         25    1    4    4    0    0 -0.15581867712E+02  0.63556570068E+02  0.21436634951E+03  0.25667620088E+03  0.12509000000E+03 0.  0.
         25    1    4    4    0    0 -0.17857958703E+02 -0.14137605133E+02  0.14959756952E+03  0.19633063815E+03  0.12509000000E+03 0.  0.
         25    1    3    3    0    0  0.33439826414E+02 -0.49418964935E+02  0.87139774143E+01  0.13886647395E+03  0.12509000000E+03 0.  0.
<mgrwt>
<rscale>  2 0.45980997E+03</rscale>
<asrwt>0</asrwt>
<pdfrwt beam="1">  1       21 0.70922882E-01 0.45980997E+03</pdfrwt>
<pdfrwt beam="2">  1       21 0.16117310E-01 0.45980997E+03</pdfrwt>
<totfact> 0.56983988E+04</totfact>
</mgrwt>
</event>
<event>
 7    0  0.4770865E-002  0.4445287E+03  0.7546771E-02  0.1029366E+00
         21   -1    0    0  502  501  0.00000000000E+00  0.00000000000E+00  0.72463760699E+03  0.72463760699E+03  0.00000000000E+00 0. -1.
         21   -1    0    0  501  502 -0.00000000000E+00 -0.00000000000E+00 -0.68173985516E+02  0.68173985516E+02  0.00000000000E+00 0. -1.
      99926    2    1    2    0    0 -0.71054273576E-14  0.00000000000E+00  0.65646362147E+03  0.79281159250E+03  0.44452866599E+03 0.  0.
      99925    2    3    3    0    0 -0.54535641805E+02 -0.82714309059E+02  0.36709687765E+03  0.46236278606E+03  0.26306545802E+03 0.  0.
         25    1    4    4    0    0 -0.20602714985E+02 -0.16706891657E+02  0.11847558436E+03  0.17432029223E+03  0.12509000000E+03 0.  0.
         25    1    3    3    0    0  0.54535641805E+02  0.82714309059E+02  0.28936674383E+03  0.33044880645E+03  0.12509000000E+03 0.  0.
         25    1    4    4    0    0 -0.33932926820E+02 -0.66007417402E+02  0.24862129328E+03  0.28804249382E+03  0.12509000000E+03 0.  0.
<mgrwt>
<rscale>  2 0.44452867E+03</rscale>
<asrwt>0</asrwt>
<pdfrwt beam="1">  1       21 0.10656435E+00 0.44452867E+03</pdfrwt>
<pdfrwt beam="2">  1       21 0.10025587E-01 0.44452867E+03</pdfrwt>
<totfact> 0.52280438E+04</totfact>
</mgrwt>
</event>
<event>
 7    0  0.4770865E-002  0.4365047E+03  0.7546771E-02  0.1031825E+00
         21   -1    0    0  502  501  0.00000000000E+00  0.00000000000E+00  0.28430363943E+03  0.28430363943E+03  0.00000000000E+00 0.  1.
         21   -1    0    0  501  502 -0.00000000000E+00 -0.00000000000E+00 -0.16754654603E+03  0.16754654603E+03  0.00000000000E+00 0.  1.
      99926    2    1    2    0    0  0.00000000000E+00  0.00000000000E+00  0.11675709341E+03  0.45185018546E+03  0.43650472075E+03 0.  0.
      99925    2    3    3    0    0  0.29884351461E+02  0.32861718382E+02  0.16163610198E+03  0.31172666670E+03  0.26281993507E+03 0.  0.
         25    1    3    3    0    0 -0.29884351461E+02 -0.32861718382E+02 -0.44879008579E+02  0.14012351876E+03  0.12509000000E+03 0.  0.
         25    1    4    4    0    0  0.31858952240E+02  0.53122981294E+02  0.78326862610E+02  0.16006139286E+03  0.12509000000E+03 0.  0.
         25    1    4    4    0    0 -0.19746007790E+01 -0.20261262911E+02  0.83309239374E+02  0.15166527384E+03  0.12509000000E+03 0.  0.
<mgrwt>
<rscale>  2 0.43650472E+03</rscale>
<asrwt>0</asrwt>
<pdfrwt beam="1">  1       21 0.41809359E-01 0.43650472E+03</pdfrwt>
<pdfrwt beam="2">  1       21 0.24639198E-01 0.43650472E+03</pdfrwt>
<totfact> 0.79904599E+04</totfact>
</mgrwt>
</event>
<event>
 7    0  0.4770865E-002  0.5235869E+03  0.7546771E-02  0.1007799E+00
         21   -1    0    0  502  501  0.00000000000E+00  0.00000000000E+00  0.14094092649E+03  0.14094092649E+03  0.00000000000E+00 0. -1.
         21   -1    0    0  501  502 -0.00000000000E+00 -0.00000000000E+00 -0.48627328937E+03  0.48627328937E+03  0.00000000000E+00 0. -1.
      99926    2    1    2    0    0  0.00000000000E+00  0.00000000000E+00 -0.34533236289E+03  0.62721421586E+03  0.52358689032E+03 0.  0.
      99925    2    3    3    0    0 -0.15027533039E+03 -0.62958960582E+02 -0.15103020768E+03  0.34446460709E+03  0.26324748101E+03 0.  0.
         25    1    4    4    0    0 -0.62859311652E+02 -0.64822625115E+02 -0.98594239451E+02  0.18308904375E+03  0.12509000000E+03 0.  0.
         25    1    4    4    0    0 -0.87416018741E+02  0.18636645322E+01 -0.52435968231E+02  0.16137556334E+03  0.12509000000E+03 0.  0.
         25    1    3    3    0    0  0.15027533039E+03  0.62958960582E+02 -0.19430215520E+03  0.28274960877E+03  0.12509000000E+03 0.  0.
<mgrwt>
<rscale>  2 0.52358689E+03</rscale>
<asrwt>0</asrwt>
<pdfrwt beam="1">  1       21 0.20726607E-01 0.52358689E+03</pdfrwt>
<pdfrwt beam="2">  1       21 0.71510776E-01 0.52358689E+03</pdfrwt>
<totfact> 0.34308405E+04</totfact>
</mgrwt>
</event>
<event>
 7    0  0.4770865E-002  0.4593076E+03  0.7546771E-02  0.1024982E+00
         21   -1    0    0  502  501  0.00000000000E+00  0.00000000000E+00  0.39620258431E+02  0.39620258431E+02  0.00000000000E+00 0. -1.
         21   -1    0    0  501  502 -0.00000000000E+00 -0.00000000000E+00 -0.13311590360E+04  0.13311590360E+04  0.00000000000E+00 0. -1.
      99926    2    1    2    0    0  0.00000000000E+00  0.14210854715E-13 -0.12915387776E+04  0.13707792944E+04  0.45930758765E+03 0.  0.
      99925    2    3    3    0    0 -0.25114840977E+02  0.11427199180E+03 -0.82684302933E+03  0.87552331023E+03  0.26302628817E+03 0.  0.
         25    1    4    4    0    0  0.16035170850E+01  0.75681305474E+02 -0.32827276548E+03  0.35936158381E+03  0.12509000000E+03 0.  0.
         25    1    4    4    0    0 -0.26718358062E+02  0.38590686331E+02 -0.49857026384E+03  0.51616172642E+03  0.12509000000E+03 0.  0.
         25    1    3    3    0    0  0.25114840977E+02 -0.11427199180E+03 -0.46469574823E+03  0.49525598418E+03  0.12509000000E+03 0.  0.
<mgrwt>
<rscale>  2 0.45930759E+03</rscale>
<asrwt>0</asrwt>
<pdfrwt beam="1">  1       21 0.58265085E-02 0.45930759E+03</pdfrwt>
<pdfrwt beam="2">  1       21 0.19575868E+00 0.45930759E+03</pdfrwt>
<totfact> 0.26231908E+04</totfact>
</mgrwt>
</event>
<event>
 7    0  0.4770865E-002  0.4535528E+03  0.7546771E-02  0.1026668E+00
         21   -1    0    0  502  501  0.00000000000E+00  0.00000000000E+00  0.16622842176E+03  0.16622842176E+03  0.00000000000E+00 0.  1.
         21   -1    0    0  501  502 -0.00000000000E+00 -0.00000000000E+00 -0.30937870960E+03  0.30937870960E+03  0.00000000000E+00 0.  1.
      99926    2    1    2    0    0  0.71054273576E-14 -0.14210854715E-13 -0.14315028784E+03  0.47560713136E+03  0.45355279570E+03 0.  0.
      99925    2    3    3    0    0  0.42868174422E+02 -0.94393952050E+02 -0.46541570367E+02  0.28658689182E+03  0.26309319685E+03 0.  0.
         25    1    4    4    0    0  0.36573659644E+02 -0.65115584172E+02  0.10109662284E+02  0.14603898539E+03  0.12509000000E+03 0.  0.
         25    1    3    3    0    0 -0.42868174422E+02  0.94393952050E+02 -0.96608717472E+02  0.18902023953E+03  0.12509000000E+03 0.  0.
         25    1    4    4    0    0  0.62945147772E+01 -0.29278367878E+02 -0.56651232651E+02  0.14054790643E+03  0.12509000000E+03 0.  0.
<mgrwt>
<rscale>  2 0.45355280E+03</rscale>
<asrwt>0</asrwt>
<pdfrwt beam="1">  1       21 0.24445357E-01 0.45355280E+03</pdfrwt>
<pdfrwt beam="2">  1       21 0.45496868E-01 0.45355280E+03</pdfrwt>
<totfact> 0.67796624E+04</totfact>
</mgrwt>
</event>
<event>
 7    0  0.4770865E-002  0.4543793E+03  0.7546771E-02  0.1026424E+00
         21   -1    0    0  502  501  0.00000000000E+00  0.00000000000E+00  0.69994062688E+02  0.69994062688E+02  0.00000000000E+00 0. -1.
         21   -1    0    0  501  502 -0.00000000000E+00 -0.00000000000E+00 -0.73742170517E+03  0.73742170517E+03  0.00000000000E+00 0. -1.
      99926    2    1    2    0    0  0.00000000000E+00  0.00000000000E+00 -0.66742764248E+03  0.80741576785E+03  0.45437931757E+03 0.  0.
      99925    2    3    3    0    0  0.30682829095E+02 -0.16048354056E+02 -0.22991669678E+03  0.35105809960E+03  0.26302303353E+03 0.  0.
         25    1    3    3    0    0 -0.30682829095E+02  0.16048354056E+02 -0.43751094570E+03  0.45635766826E+03  0.12509000000E+03 0.  0.
         25    1    4    4    0    0 -0.70938971098E+01 -0.38635839892E+02 -0.13339482389E+03  0.18704207719E+03  0.12509000000E+03 0.  0.
         25    1    4    4    0    0  0.37776726205E+02  0.22587485836E+02 -0.96521872891E+02  0.16401602240E+03  0.12509000000E+03 0.  0.
<mgrwt>
<rscale>  2 0.45437932E+03</rscale>
<asrwt>0</asrwt>
<pdfrwt beam="1">  1       21 0.10293245E-01 0.45437932E+03</pdfrwt>
<pdfrwt beam="2">  1       21 0.10844436E+00 0.45437932E+03</pdfrwt>
<totfact> 0.47639824E+04</totfact>
</mgrwt>
</event>
<event>
 7    0  0.4770865E-002  0.4728993E+03  0.7546771E-02  0.1021105E+00
         21   -1    0    0  502  501  0.00000000000E+00  0.00000000000E+00  0.10996612227E+03  0.10996612227E+03  0.00000000000E+00 0. -1.
         21   -1    0    0  501  502 -0.00000000000E+00 -0.00000000000E+00 -0.50841502367E+03  0.50841502367E+03  0.00000000000E+00 0. -1.
      99926    2    1    2    0    0  0.14210854715E-13  0.00000000000E+00 -0.39844890140E+03  0.61838114593E+03  0.47289926477E+03 0.  0.
      99925    2    3    3    0    0 -0.97861828711E+02  0.10557657252E+02 -0.13675456870E+03  0.31208091166E+03  0.26268666072E+03 0.  0.
         25    1    4    4    0    0 -0.69705212663E+02  0.30360471442E+02 -0.99847172432E+02  0.17719351241E+03  0.12509000000E+03 0.  0.
         25    1    4    4    0    0 -0.28156616048E+02 -0.19802814190E+02 -0.36907396267E+02  0.13488739925E+03  0.12509000000E+03 0.  0.
         25    1    3    3    0    0  0.97861828711E+02 -0.10557657252E+02 -0.26169433270E+03  0.30630023427E+03  0.12509000000E+03 0.  0.
<mgrwt>
<rscale>  2 0.47289926E+03</rscale>
<asrwt>0</asrwt>
<pdfrwt beam="1">  1       21 0.16171489E-01 0.47289926E+03</pdfrwt>
<pdfrwt beam="2">  1       21 0.74766914E-01 0.47289926E+03</pdfrwt>
<totfact> 0.50094678E+04</totfact>
</mgrwt>
</event>
<event>
 7    0  0.5665460E-002  0.4229004E+03  0.7546771E-02  0.1036126E+00
         21   -1    0    0  502  501  0.00000000000E+00  0.00000000000E+00  0.33615061279E+03  0.33615061279E+03  0.00000000000E+00 0. -1.
         21   -1    0    0  501  502 -0.00000000000E+00 -0.00000000000E+00 -0.13300939543E+03  0.13300939543E+03  0.00000000000E+00 0. -1.
      99926    2    1    2    0    0  0.00000000000E+00  0.00000000000E+00  0.20314121735E+03  0.46916000822E+03  0.42290041278E+03 0.  0.
      99925    2    3    3    0    0  0.36206142373E+02  0.64348487725E+02  0.98053198923E+02  0.28987639956E+03  0.26260671085E+03 0.  0.
         25    1    3    3    0    0 -0.36206142373E+02 -0.64348487725E+02  0.10508801843E+03  0.17928360866E+03  0.12509000000E+03 0.  0.
         25    1    4    4    0    0 -0.63484298935E+01 -0.12466502183E+01  0.46561189477E+02  0.13363124322E+03  0.12509000000E+03 0.  0.
         25    1    4    4    0    0  0.42554572266E+02  0.65595137943E+02  0.51492009446E+02  0.15624515634E+03  0.12509000000E+03 0.  0.
<mgrwt>
<rscale>  2 0.42290041E+03</rscale>
<asrwt>0</asrwt>
<pdfrwt beam="1">  1       21 0.49433914E-01 0.42290041E+03</pdfrwt>
<pdfrwt beam="2">  1       21 0.19560205E-01 0.42290041E+03</pdfrwt>
<totfact> 0.87833937E+04</totfact>
</mgrwt>
</event>
<event>
 7    0  0.4770865E-002  0.4490689E+03  0.7546771E-02  0.1028000E+00
         21   -1    0    0  502  501  0.00000000000E+00  0.00000000000E+00  0.37001217482E+02  0.37001217482E+02  0.00000000000E+00 0. -1.
         21   -1    0    0  501  502 -0.00000000000E+00 -0.00000000000E+00 -0.13625423491E+04  0.13625423491E+04  0.00000000000E+00 0. -1.
      99926    2    1    2    0    0  0.35527136788E-14 -0.35527136788E-14 -0.13255411316E+04  0.13995435665E+04  0.44906892917E+03 0.  0.
      99925    2    3    3    0    0 -0.22730900674E+02  0.27142177522E+02 -0.52237085254E+03  0.58591994540E+03  0.26301612725E+03 0.  0.
         25    1    3    3    0    0  0.22730900674E+02 -0.27142177522E+02 -0.80317027903E+03  0.81362362113E+03  0.12509000000E+03 0.  0.
         25    1    4    4    0    0 -0.11403211124E+02  0.25681245921E+02 -0.34918658933E+03  0.37197895355E+03  0.12509000000E+03 0.  0.
         25    1    4    4    0    0 -0.11327689550E+02  0.14609316008E+01 -0.17318426321E+03  0.21394099185E+03  0.12509000000E+03 0.  0.
<mgrwt>
<rscale>  2 0.44906893E+03</rscale>
<asrwt>0</asrwt>
<pdfrwt beam="1">  1       21 0.54413558E-02 0.44906893E+03</pdfrwt>
<pdfrwt beam="2">  1       21 0.20037386E+00 0.44906893E+03</pdfrwt>
<totfact> 0.27594294E+04</totfact>
</mgrwt>
</event>
<event>
 7    0  0.4770865E-002  0.4554886E+03  0.7546771E-02  0.1026098E+00
         21   -1    0    0  502  501  0.00000000000E+00  0.00000000000E+00  0.33945463321E+03  0.33945463321E+03  0.00000000000E+00 0. -1.
         21   -1    0    0  501  502 -0.00000000000E+00 -0.00000000000E+00 -0.15279644398E+03  0.15279644398E+03  0.00000000000E+00 0. -1.
      99926    2    1    2    0    0  0.14210854715E-13  0.35527136788E-14  0.18665818923E+03  0.49225107719E+03  0.45548857657E+03 0.  0.
      99925    2    3    3    0    0  0.94625289624E+02  0.23843346077E+02  0.18035466990E+03  0.33347547124E+03  0.26297458504E+03 0.  0.
         25    1    4    4    0    0  0.33470822913E+02 -0.25709871197E+02  0.73494901601E+02  0.15109699575E+03  0.12509000000E+03 0.  0.
         25    1    3    3    0    0 -0.94625289624E+02 -0.23843346077E+02  0.63035193290E+01  0.15877560595E+03  0.12509000000E+03 0.  0.
         25    1    4    4    0    0  0.61154466711E+02  0.49553217274E+02  0.10685976830E+03  0.18237847549E+03  0.12509000000E+03 0.  0.
<mgrwt>
<rscale>  2 0.45548858E+03</rscale>
<asrwt>0</asrwt>
<pdfrwt beam="1">  1       21 0.49919799E-01 0.45548858E+03</pdfrwt>
<pdfrwt beam="2">  1       21 0.22470065E-01 0.45548858E+03</pdfrwt>
<totfact> 0.65563875E+04</totfact>
</mgrwt>
</event>
<event>
 7    0  0.4770865E-002  0.4527097E+03  0.7546771E-02  0.1026917E+00
         21   -1    0    0  502  501  0.00000000000E+00  0.00000000000E+00  0.21150571956E+03  0.21150571956E+03  0.00000000000E+00 0.  1.
         21   -1    0    0  501  502 -0.00000000000E+00 -0.00000000000E+00 -0.24224650715E+03  0.24224650715E+03  0.00000000000E+00 0.  1.
      99926    2    1    2    0    0  0.00000000000E+00  0.00000000000E+00 -0.30740787594E+02  0.45375222671E+03  0.45270971629E+03 0.  0.
      99925    2    3    3    0    0 -0.44611992638E+02 -0.12516887544E+02 -0.12005468641E+03  0.29321754827E+03  0.26347011315E+03 0.  0.
         25    1    4    4    0    0 -0.17061810649E+02 -0.27085029658E+02 -0.21391407387E+02  0.13088087952E+03  0.12509000000E+03 0.  0.
         25    1    3    3    0    0  0.44611992638E+02  0.12516887544E+02  0.89313898819E+02  0.16053467844E+03  0.12509000000E+03 0.  0.
         25    1    4    4    0    0 -0.27550181989E+02  0.14568142114E+02 -0.98663279027E+02  0.16233666875E+03  0.12509000000E+03 0.  0.
<mgrwt>
<rscale>  2 0.45270972E+03</rscale>
<asrwt>0</asrwt>
<pdfrwt beam="1">  1       21 0.31103782E-01 0.45270972E+03</pdfrwt>
<pdfrwt beam="2">  1       21 0.35624486E-01 0.45270972E+03</pdfrwt>
<totfact> 0.69906069E+04</totfact>
</mgrwt>
</event>
<event>
 7    0  0.4770865E-002  0.4599914E+03  0.7546771E-02  0.1024784E+00
         21   -1    0    0  502  501  0.00000000000E+00  0.00000000000E+00  0.25888632448E+03  0.25888632448E+03  0.00000000000E+00 0.  1.
         21   -1    0    0  501  502 -0.00000000000E+00 -0.00000000000E+00 -0.20432919094E+03  0.20432919094E+03  0.00000000000E+00 0.  1.
      99926    2    1    2    0    0  0.00000000000E+00  0.00000000000E+00  0.54557133542E+02  0.46321551542E+03  0.45999144873E+03 0.  0.
      99925    2    3    3    0    0 -0.54383529029E+02  0.58353784340E+02  0.12159676622E+03  0.30041332617E+03  0.26286814300E+03 0.  0.
         25    1    3    3    0    0  0.54383529029E+02 -0.58353784340E+02 -0.67039632680E+02  0.16280218926E+03  0.12509000000E+03 0.  0.
         25    1    4    4    0    0 -0.73295517101E+01  0.64092968392E+02  0.56774218336E+02  0.15176445860E+03  0.12509000000E+03 0.  0.
         25    1    4    4    0    0 -0.47053977319E+02 -0.57391840527E+01  0.64822547885E+02  0.14864886757E+03  0.12509000000E+03 0.  0.
<mgrwt>
<rscale>  2 0.45999145E+03</rscale>
<asrwt>0</asrwt>
<pdfrwt beam="1">  1       21 0.38071518E-01 0.45999145E+03</pdfrwt>
<pdfrwt beam="2">  1       21 0.30048410E-01 0.45999145E+03</pdfrwt>
<totfact> 0.65308133E+04</totfact>
</mgrwt>
</event>
<event>
 7    0  0.4770865E-002  0.4530205E+03  0.7546771E-02  0.1026825E+00
         21   -1    0    0  502  501  0.00000000000E+00  0.00000000000E+00  0.89608854917E+02  0.89608854917E+02  0.00000000000E+00 0. -1.
         21   -1    0    0  501  502 -0.00000000000E+00 -0.00000000000E+00 -0.57256491768E+03  0.57256491768E+03  0.00000000000E+00 0. -1.
      99926    2    1    2    0    0  0.00000000000E+00  0.00000000000E+00 -0.48295606277E+03  0.66217377260E+03  0.45302047035E+03 0.  0.
      99925    2    3    3    0    0 -0.37052646140E+02 -0.91621735778E+02 -0.22972085657E+03  0.36293637719E+03  0.26302794698E+03 0.  0.
         25    1    4    4    0    0 -0.58345582311E+02 -0.57887725373E+02 -0.12082906417E+03  0.19235999213E+03  0.12509000000E+03 0.  0.
         25    1    3    3    0    0  0.37052646140E+02  0.91621735778E+02 -0.25323520620E+03  0.29923739541E+03  0.12509000000E+03 0.  0.
         25    1    4    4    0    0  0.21292936171E+02 -0.33734010405E+02 -0.10889179240E+03  0.17057638506E+03  0.12509000000E+03 0.  0.
<mgrwt>
<rscale>  2 0.45302047E+03</rscale>
<asrwt>0</asrwt>
<pdfrwt beam="1">  1       21 0.13177773E-01 0.45302047E+03</pdfrwt>
<pdfrwt beam="2">  1       21 0.84200724E-01 0.45302047E+03</pdfrwt>
<totfact> 0.55871866E+04</totfact>
</mgrwt>
</event>
<event>
 7    0  0.4770865E-002  0.4600606E+03  0.7546771E-02  0.1024764E+00
         21   -1    0    0  502  501  0.00000000000E+00  0.00000000000E+00  0.89241791427E+02  0.89241791427E+02  0.00000000000E+00 0.  1.
         21   -1    0    0  501  502 -0.00000000000E+00 -0.00000000000E+00 -0.59292781914E+03  0.59292781914E+03  0.00000000000E+00 0.  1.
      99926    2    1    2    0    0  0.00000000000E+00  0.00000000000E+00 -0.50368602771E+03  0.68216961056E+03  0.46006060804E+03 0.  0.
      99925    2    3    3    0    0  0.47450566553E+02  0.67461472810E+02 -0.19075601981E+03  0.33521816652E+03  0.26302234409E+03 0.  0.
         25    1    4    4    0    0  0.30298827840E+02  0.87956023628E+01 -0.13053676361E+03  0.18352857092E+03  0.12509000000E+03 0.  0.
         25    1    3    3    0    0 -0.47450566553E+02 -0.67461472810E+02 -0.31293000791E+03  0.34695144405E+03  0.12509000000E+03 0.  0.
         25    1    4    4    0    0  0.17151738713E+02  0.58665870447E+02 -0.60219256199E+02  0.15168959560E+03  0.12509000000E+03 0.  0.
<mgrwt>
<rscale>  2 0.46006061E+03</rscale>
<asrwt>0</asrwt>
<pdfrwt beam="1">  1       21 0.13123793E-01 0.46006061E+03</pdfrwt>
<pdfrwt beam="2">  1       21 0.87195269E-01 0.46006061E+03</pdfrwt>
<totfact> 0.51786445E+04</totfact>
</mgrwt>
</event>
<event>
 7    0  0.4770865E-002  0.4521247E+03  0.7546771E-02  0.1027090E+00
         21   -1    0    0  502  501  0.00000000000E+00  0.00000000000E+00  0.97777532401E+03  0.97777532401E+03  0.00000000000E+00 0. -1.
         21   -1    0    0  501  502 -0.00000000000E+00 -0.00000000000E+00 -0.52265767585E+02  0.52265767585E+02  0.00000000000E+00 0. -1.
      99926    2    1    2    0    0 -0.17763568394E-14 -0.13322676296E-14  0.92550955642E+03  0.10300410916E+04  0.45212466350E+03 0.  0.
      99925    2    3    3    0    0 -0.92757204613E+01  0.27348759692E+01  0.33321624184E+03  0.42460538309E+03  0.26298887616E+03 0.  0.
         25    1    4    4    0    0 -0.55929611588E+01 -0.37197692871E+02  0.18624559636E+03  0.22748599921E+03  0.12509000000E+03 0.  0.
         25    1    4    4    0    0 -0.36827593025E+01  0.39932568840E+02  0.14697064548E+03  0.19711938388E+03  0.12509000000E+03 0.  0.
         25    1    3    3    0    0  0.92757204613E+01 -0.27348759692E+01  0.59229331458E+03  0.60543570850E+03  0.12509000000E+03 0.  0.
<mgrwt>
<rscale>  2 0.45212466E+03</rscale>
<asrwt>0</asrwt>
<pdfrwt beam="1">  1       21 0.14379048E+00 0.45212466E+03</pdfrwt>
<pdfrwt beam="2">  1       21 0.76861429E-02 0.45212466E+03</pdfrwt>
<totfact> 0.38883921E+04</totfact>
</mgrwt>
</event>
<event>
 7    0  0.4770865E-002  0.4499742E+03  0.7546771E-02  0.1027730E+00
         21   -1    0    0  502  501  0.00000000000E+00  0.00000000000E+00  0.58852145528E+03  0.58852145528E+03  0.00000000000E+00 0.  1.
         21   -1    0    0  501  502 -0.00000000000E+00 -0.00000000000E+00 -0.86010775220E+02  0.86010775220E+02  0.00000000000E+00 0.  1.
      99926    2    1    2    0    0  0.00000000000E+00  0.00000000000E+00  0.50251068005E+03  0.67453223050E+03  0.44997416193E+03 0.  0.
      99925    2    3    3    0    0  0.75644692874E+02  0.13594401187E+02  0.20319026170E+03  0.34114484584E+03  0.26303345052E+03 0.  0.
         25    1    4    4    0    0  0.24239031830E+02  0.37424742392E+02  0.71239328843E+02  0.15070067047E+03  0.12509000000E+03 0.  0.
         25    1    4    4    0    0  0.51405661044E+02 -0.23830341206E+02  0.13195093286E+03  0.19044417537E+03  0.12509000000E+03 0.  0.
         25    1    3    3    0    0 -0.75644692874E+02 -0.13594401187E+02  0.29932041835E+03  0.33338738465E+03  0.12509000000E+03 0.  0.
<mgrwt>
<rscale>  2 0.44997416E+03</rscale>
<asrwt>0</asrwt>
<pdfrwt beam="1">  1       21 0.86547271E-01 0.44997416E+03</pdfrwt>
<pdfrwt beam="2">  1       21 0.12648644E-01 0.44997416E+03</pdfrwt>
<totfact> 0.56512089E+04</totfact>
</mgrwt>
</event>
<event>
 7    0  0.4770865E-002  0.4561124E+03  0.7546771E-02  0.1025915E+00
         21   -1    0    0  502  501  0.00000000000E+00  0.00000000000E+00  0.16124517100E+03  0.16124517100E+03  0.00000000000E+00 0.  1.
         21   -1    0    0  501  502 -0.00000000000E+00 -0.00000000000E+00 -0.32254995800E+03  0.32254995800E+03  0.00000000000E+00 0.  1.
      99926    2    1    2    0    0  0.00000000000E+00  0.00000000000E+00 -0.16130478701E+03  0.48379512900E+03  0.45611236832E+03 0.  0.
      99925    2    3    3    0    0 -0.37162545481E+02  0.50003772785E+02 -0.20284089004E+03  0.33800696749E+03  0.26310235902E+03 0.  0.
         25    1    4    4    0    0 -0.53640883597E+02  0.47561555697E+02 -0.10936995167E+03  0.18096613054E+03  0.12509000000E+03 0.  0.
         25    1    4    4    0    0  0.16478338116E+02  0.24422170872E+01 -0.93470938372E+02  0.15704083695E+03  0.12509000000E+03 0.  0.
         25    1    3    3    0    0  0.37162545481E+02 -0.50003772785E+02  0.41536103037E+02  0.14578816150E+03  0.12509000000E+03 0.  0.
<mgrwt>
<rscale>  2 0.45611237E+03</rscale>
<asrwt>0</asrwt>
<pdfrwt beam="1">  1       21 0.23712525E-01 0.45611237E+03</pdfrwt>
<pdfrwt beam="2">  1       21 0.47433817E-01 0.45611237E+03</pdfrwt>
<totfact> 0.65841556E+04</totfact>
</mgrwt>
</event>
<event>
 7    0  0.4770865E-002  0.4511433E+03  0.7546771E-02  0.1027382E+00
         21   -1    0    0  502  501  0.00000000000E+00  0.00000000000E+00  0.83081103776E+02  0.83081103776E+02  0.00000000000E+00 0. -1.
         21   -1    0    0  501  502 -0.00000000000E+00 -0.00000000000E+00 -0.61244444090E+03  0.61244444090E+03  0.00000000000E+00 0. -1.
      99926    2    1    2    0    0 -0.88817841970E-15  0.00000000000E+00 -0.52936333712E+03  0.69552554468E+03  0.45114325952E+03 0.  0.
      99925    2    3    3    0    0  0.47597811230E+01  0.10799698697E+03 -0.30700768598E+03  0.41844153502E+03  0.26297070991E+03 0.  0.
         25    1    4    4    0    0 -0.10923544034E+02  0.86001619071E+02 -0.20189728788E+03  0.25283517408E+03  0.12509000000E+03 0.  0.
         25    1    4    4    0    0  0.15683325157E+02  0.21995367898E+02 -0.10511039810E+03  0.16560636095E+03  0.12509000000E+03 0.  0.
         25    1    3    3    0    0 -0.47597811230E+01 -0.10799698697E+03 -0.22235565114E+03  0.27708400965E+03  0.12509000000E+03 0.  0.
<mgrwt>
<rscale>  2 0.45114326E+03</rscale>
<asrwt>0</asrwt>
<pdfrwt beam="1">  1       21 0.12217809E-01 0.45114326E+03</pdfrwt>
<pdfrwt beam="2">  1       21 0.90065358E-01 0.45114326E+03</pdfrwt>
<totfact> 0.54790932E+04</totfact>
</mgrwt>
</event>
<event>
 7    0  0.4770865E-002  0.4565872E+03  0.7546771E-02  0.1025776E+00
         21   -1    0    0  502  501  0.00000000000E+00  0.00000000000E+00  0.96281019024E+03  0.96281019024E+03  0.00000000000E+00 0. -1.
         21   -1    0    0  501  502 -0.00000000000E+00 -0.00000000000E+00 -0.54131104552E+02  0.54131104552E+02  0.00000000000E+00 0. -1.
      99926    2    1    2    0    0  0.00000000000E+00  0.00000000000E+00  0.90867908569E+03  0.10169412948E+04  0.45658724937E+03 0.  0.
      99925    2    3    3    0    0 -0.36916483295E+02  0.35670215042E+02  0.34258744286E+03  0.43492544693E+03  0.26298060271E+03 0.  0.
         25    1    3    3    0    0  0.36916483295E+02 -0.35670215042E+02  0.56609164283E+03  0.58201584786E+03  0.12509000000E+03 0.  0.
         25    1    4    4    0    0 -0.54438096934E+02  0.31289535968E+02  0.20356494614E+03  0.24703994992E+03  0.12509000000E+03 0.  0.
         25    1    4    4    0    0  0.17521613639E+02  0.43806790738E+01  0.13902249672E+03  0.18788549701E+03  0.12509000000E+03 0.  0.
<mgrwt>
<rscale>  2 0.45658725E+03</rscale>
<asrwt>0</asrwt>
<pdfrwt beam="1">  1       21 0.14158972E+00 0.45658725E+03</pdfrwt>
<pdfrwt beam="2">  1       21 0.79604571E-02 0.45658725E+03</pdfrwt>
<totfact> 0.38040594E+04</totfact>
</mgrwt>
</event>
<event>
 7    0  0.4770865E-002  0.4501490E+03  0.7546771E-02  0.1027678E+00
         21   -1    0    0  502  501  0.00000000000E+00  0.00000000000E+00  0.16172414087E+03  0.16172414087E+03  0.00000000000E+00 0.  1.
         21   -1    0    0  501  502 -0.00000000000E+00 -0.00000000000E+00 -0.31324031649E+03  0.31324031649E+03  0.00000000000E+00 0.  1.
      99926    2    1    2    0    0 -0.88817841970E-15  0.00000000000E+00 -0.15151617562E+03  0.47496445736E+03  0.45014895788E+03 0.  0.
      99925    2    3    3    0    0  0.52300417953E+01  0.72333699007E+02 -0.10616081686E+02  0.27307373959E+03  0.26305331915E+03 0.  0.
         25    1    4    4    0    0 -0.60526873364E+01  0.62857420483E+02 -0.35798625018E+02  0.14462620782E+03  0.12509000000E+03 0.  0.
         25    1    4    4    0    0  0.11282729132E+02  0.94762785239E+01  0.25182543332E+02  0.12844753178E+03  0.12509000000E+03 0.  0.
         25    1    3    3    0    0 -0.52300417953E+01 -0.72333699007E+02 -0.14090009393E+03  0.20189071777E+03  0.12509000000E+03 0.  0.
<mgrwt>
<rscale>  2 0.45014896E+03</rscale>
<asrwt>0</asrwt>
<pdfrwt beam="1">  1       21 0.23782962E-01 0.45014896E+03</pdfrwt>
<pdfrwt beam="2">  1       21 0.46064752E-01 0.45014896E+03</pdfrwt>
<totfact> 0.69714215E+04</totfact>
</mgrwt>
</event>
<event>
 7    0  0.4770865E-002  0.4547662E+03  0.7546771E-02  0.1026310E+00
         21   -1    0    0  502  501  0.00000000000E+00  0.00000000000E+00  0.67263034439E+02  0.67263034439E+02  0.00000000000E+00 0. -1.
         21   -1    0    0  501  502 -0.00000000000E+00 -0.00000000000E+00 -0.76866998079E+03  0.76866998079E+03  0.00000000000E+00 0. -1.
      99926    2    1    2    0    0 -0.14210854715E-13  0.17763568394E-14 -0.70140694636E+03  0.83593301523E+03  0.45476620539E+03 0.  0.
      99925    2    3    3    0    0  0.70784299480E+02  0.91176918198E+01 -0.60244698089E+03  0.66119283033E+03  0.26294494620E+03 0.  0.
         25    1    4    4    0    0  0.70623912221E+02 -0.20124493701E+01 -0.27048746198E+03  0.30627236590E+03  0.12509000000E+03 0.  0.
         25    1    3    3    0    0 -0.70784299480E+02 -0.91176918198E+01 -0.98959965465E+02  0.17474018491E+03  0.12509000000E+03 0.  0.
         25    1    4    4    0    0  0.16038725901E+00  0.11130141190E+02 -0.33195951892E+03  0.35492046442E+03  0.12509000000E+03 0.  0.
<mgrwt>
<rscale>  2 0.45476621E+03</rscale>
<asrwt>0</asrwt>
<pdfrwt beam="1">  1       21 0.98916236E-02 0.45476621E+03</pdfrwt>
<pdfrwt beam="2">  1       21 0.11303969E+00 0.45476621E+03</pdfrwt>
<totfact> 0.46159963E+04</totfact>
</mgrwt>
</event>
<event>
 7    0  0.4770865E-002  0.4541013E+03  0.7546771E-02  0.1026506E+00
         21   -1    0    0  502  501  0.00000000000E+00  0.00000000000E+00  0.12362866401E+03  0.12362866401E+03  0.00000000000E+00 0. -1.
         21   -1    0    0  501  502 -0.00000000000E+00 -0.00000000000E+00 -0.41699072837E+03  0.41699072837E+03  0.00000000000E+00 0. -1.
      99926    2    1    2    0    0  0.14210854715E-13 -0.14210854715E-13 -0.29336206436E+03  0.54061939239E+03  0.45410133959E+03 0.  0.
      99925    2    3    3    0    0  0.67385061857E+02 -0.71463503521E+02 -0.11998467583E+03  0.30534294679E+03  0.26304032737E+03 0.  0.
         25    1    4    4    0    0  0.13484164126E+02 -0.45801211235E+02 -0.22209075047E+02  0.13572149700E+03  0.12509000000E+03 0.  0.
         25    1    3    3    0    0 -0.67385061857E+02  0.71463503521E+02 -0.17337738854E+03  0.23527644560E+03  0.12509000000E+03 0.  0.
         25    1    4    4    0    0  0.53900897731E+02 -0.25662292286E+02 -0.97775600781E+02  0.16962144979E+03  0.12509000000E+03 0.  0.
<mgrwt>
<rscale>  2 0.45410134E+03</rscale>
<asrwt>0</asrwt>
<pdfrwt beam="1">  1       21 0.18180686E-01 0.45410134E+03</pdfrwt>
<pdfrwt beam="2">  1       21 0.61322165E-01 0.45410134E+03</pdfrwt>
<totfact> 0.62937083E+04</totfact>
</mgrwt>
</event>
<event>
 7    0  0.4770865E-002  0.4584382E+03  0.7546771E-02  0.1025235E+00
         21   -1    0    0  502  501  0.00000000000E+00  0.00000000000E+00  0.14533001057E+03  0.14533001057E+03  0.00000000000E+00 0. -1.
         21   -1    0    0  501  502 -0.00000000000E+00 -0.00000000000E+00 -0.36153158782E+03  0.36153158782E+03  0.00000000000E+00 0. -1.
      99926    2    1    2    0    0 -0.71054273576E-14  0.14210854715E-13 -0.21620157725E+03  0.50686159839E+03  0.45843817240E+03 0.  0.
      99925    2    3    3    0    0 -0.28244335939E+02  0.99668174312E+02 -0.77024149171E+02  0.29297061664E+03  0.26299729120E+03 0.  0.
         25    1    4    4    0    0 -0.23729223406E+02  0.82764472552E+02 -0.67864079198E+02  0.16633122168E+03  0.12509000000E+03 0.  0.
         25    1    3    3    0    0  0.28244335939E+02 -0.99668174312E+02 -0.13917742808E+03  0.21389098174E+03  0.12509000000E+03 0.  0.
         25    1    4    4    0    0 -0.45151125328E+01  0.16903701759E+02 -0.91600699732E+01  0.12663939496E+03  0.12509000000E+03 0.  0.
<mgrwt>
<rscale>  2 0.45843817E+03</rscale>
<asrwt>0</asrwt>
<pdfrwt beam="1">  1       21 0.21372061E-01 0.45843817E+03</pdfrwt>
<pdfrwt beam="2">  1       21 0.53166409E-01 0.45843817E+03</pdfrwt>
<totfact> 0.63052901E+04</totfact>
</mgrwt>
</event>
<event>
 7    0  0.4770865E-002  0.4548058E+03  0.7546771E-02  0.1026299E+00
         21   -1    0    0  502  501  0.00000000000E+00  0.00000000000E+00  0.39046492816E+03  0.39046492816E+03  0.00000000000E+00 0. -1.
         21   -1    0    0  501  502 -0.00000000000E+00 -0.00000000000E+00 -0.13243720405E+03  0.13243720405E+03  0.00000000000E+00 0. -1.
      99926    2    1    2    0    0  0.00000000000E+00  0.00000000000E+00  0.25802772411E+03  0.52290213222E+03  0.45480581952E+03 0.  0.
      99925    2    3    3    0    0 -0.35671837806E+02 -0.95338232456E+02  0.21932839749E+03  0.35704977450E+03  0.26271227025E+03 0.  0.
         25    1    3    3    0    0  0.35671837806E+02  0.95338232456E+02  0.38699326615E+02  0.16585235772E+03  0.12509000000E+03 0.  0.
         25    1    4    4    0    0  0.12889194501E+02 -0.34137732044E+02  0.73309912001E+02  0.14951042566E+03  0.12509000000E+03 0.  0.
         25    1    4    4    0    0 -0.48561032307E+02 -0.61200500412E+02  0.14601848549E+03  0.20753934884E+03  0.12509000000E+03 0.  0.
<mgrwt>
<rscale>  2 0.45480582E+03</rscale>
<asrwt>0</asrwt>
<pdfrwt beam="1">  1       21 0.57421313E-01 0.45480582E+03</pdfrwt>
<pdfrwt beam="2">  1       21 0.19476060E-01 0.45480582E+03</pdfrwt>
<totfact> 0.63787659E+04</totfact>
</mgrwt>
</event>
<event>
 7    0  0.4770865E-002  0.4517707E+03  0.7546771E-02  0.1027195E+00
         21   -1    0    0  502  501  0.00000000000E+00  0.00000000000E+00  0.34995601891E+03  0.34995601891E+03  0.00000000000E+00 0.  1.
         21   -1    0    0  501  502 -0.00000000000E+00 -0.00000000000E+00 -0.14580174993E+03  0.14580174993E+03  0.00000000000E+00 0.  1.
      99926    2    1    2    0    0  0.00000000000E+00  0.00000000000E+00  0.20415426898E+03  0.49575776885E+03  0.45177073813E+03 0.  0.
      99925    2    3    3    0    0  0.33991635313E+02 -0.41389475784E+02  0.23276836477E+02  0.26941141110E+03  0.26300604050E+03 0.  0.
         25    1    4    4    0    0  0.53223732426E+02 -0.17846021403E+02 -0.65690929051E+01  0.13726582697E+03  0.12509000000E+03 0.  0.
         25    1    4    4    0    0 -0.19232097113E+02 -0.23543454381E+02  0.29845929382E+02  0.13214558413E+03  0.12509000000E+03 0.  0.
         25    1    3    3    0    0 -0.33991635313E+02  0.41389475784E+02  0.18087743250E+03  0.22634635775E+03  0.12509000000E+03 0.  0.
<mgrwt>
<rscale>  2 0.45177074E+03</rscale>
<asrwt>0</asrwt>
<pdfrwt beam="1">  1       21 0.51464120E-01 0.45177074E+03</pdfrwt>
<pdfrwt beam="2">  1       21 0.21441434E-01 0.45177074E+03</pdfrwt>
<totfact> 0.67277919E+04</totfact>
</mgrwt>
</event>
<event>
 7    0  0.4770865E-002  0.4643599E+03  0.7546771E-02  0.1023524E+00
         21   -1    0    0  502  501  0.00000000000E+00  0.00000000000E+00  0.43910221090E+02  0.43910221090E+02  0.00000000000E+00 0.  1.
         21   -1    0    0  501  502 -0.00000000000E+00 -0.00000000000E+00 -0.12276759246E+04  0.12276759246E+04  0.00000000000E+00 0.  1.
      99926    2    1    2    0    0  0.00000000000E+00  0.00000000000E+00 -0.11837657035E+04  0.12715861457E+04  0.46435986594E+03 0.  0.
      99925    2    3    3    0    0  0.76930676166E+02 -0.94326354126E+02 -0.75830539922E+03  0.81171685052E+03  0.26275725851E+03 0.  0.
         25    1    3    3    0    0 -0.76930676166E+02  0.94326354126E+02 -0.42546030425E+03  0.45986929514E+03  0.12509000000E+03 0.  0.
         25    1    4    4    0    0  0.40386804762E+02 -0.74254899444E+02 -0.31664272348E+03  0.35079197044E+03  0.12509000000E+03 0.  0.
         25    1    4    4    0    0  0.36543871403E+02 -0.20071454681E+02 -0.44166267574E+03  0.46092488008E+03  0.12509000000E+03 0.  0.
<mgrwt>
<rscale>  2 0.46435987E+03</rscale>
<asrwt>0</asrwt>
<pdfrwt beam="1">  1       21 0.64573859E-02 0.46435987E+03</pdfrwt>
<pdfrwt beam="2">  1       21 0.18054056E+00 0.46435987E+03</pdfrwt>
<totfact> 0.27865284E+04</totfact>
</mgrwt>
</event>
<event>
 7    0  0.4770865E-002  0.4635408E+03  0.7546771E-02  0.1023759E+00
         21   -1    0    0  502  501  0.00000000000E+00  0.00000000000E+00  0.44336157765E+02  0.44336157765E+02  0.00000000000E+00 0. -1.
         21   -1    0    0  501  502 -0.00000000000E+00 -0.00000000000E+00 -0.12115961475E+04  0.12115961475E+04  0.00000000000E+00 0. -1.
      99926    2    1    2    0    0  0.13322676296E-14  0.14210854715E-13 -0.11672599898E+04  0.12559323053E+04  0.46354079840E+03 0.  0.
      99925    2    3    3    0    0 -0.39608855514E+01 -0.78127704212E+02 -0.97938414321E+03  0.10170506011E+04  0.26282883871E+03 0.  0.
         25    1    3    3    0    0  0.39608855514E+01  0.78127704212E+02 -0.18787584657E+03  0.23888170421E+03  0.12509000000E+03 0.  0.
         25    1    4    4    0    0 -0.29900465024E+02 -0.21402483468E+02 -0.56031609580E+03  0.57528578935E+03  0.12509000000E+03 0.  0.
         25    1    4    4    0    0  0.25939579473E+02 -0.56725220744E+02 -0.41906804741E+03  0.44176481176E+03  0.12509000000E+03 0.  0.
<mgrwt>
<rscale>  2 0.46354080E+03</rscale>
<asrwt>0</asrwt>
<pdfrwt beam="1">  1       21 0.65200226E-02 0.46354080E+03</pdfrwt>
<pdfrwt beam="2">  1       21 0.17817592E+00 0.46354080E+03</pdfrwt>
<totfact> 0.28480749E+04</totfact>
</mgrwt>
</event>
<event>
 7    0  0.4770865E-002  0.4506102E+03  0.7546771E-02  0.1027540E+00
         21   -1    0    0  502  501  0.00000000000E+00  0.00000000000E+00  0.86157376461E+02  0.86157376461E+02  0.00000000000E+00 0. -1.
         21   -1    0    0  501  502 -0.00000000000E+00 -0.00000000000E+00 -0.58918212881E+03  0.58918212881E+03  0.00000000000E+00 0. -1.
      99926    2    1    2    0    0  0.14210854715E-13  0.71054273576E-14 -0.50302475235E+03  0.67533950527E+03  0.45061019285E+03 0.  0.
      99925    2    3    3    0    0  0.97720894560E+02 -0.47726325924E+02 -0.32797595676E+03  0.43426531678E+03  0.26304174901E+03 0.  0.
         25    1    4    4    0    0  0.26382479589E+02 -0.40189509294E+02 -0.11239794613E+03  0.17490579830E+03  0.12509000000E+03 0.  0.
         25    1    3    3    0    0 -0.97720894560E+02  0.47726325924E+02 -0.17504879559E+03  0.24107418849E+03  0.12509000000E+03 0.  0.
         25    1    4    4    0    0  0.71338414971E+02 -0.75368166309E+01 -0.21557801063E+03  0.25935951848E+03  0.12509000000E+03 0.  0.
<mgrwt>
<rscale>  2 0.45061019E+03</rscale>
<asrwt>0</asrwt>
<pdfrwt beam="1">  1       21 0.12670202E-01 0.45061019E+03</pdfrwt>
<pdfrwt beam="2">  1       21 0.86644433E-01 0.45061019E+03</pdfrwt>
<totfact> 0.56180208E+04</totfact>
</mgrwt>
</event>
<event>
 7    0  0.4770865E-002  0.4664654E+03  0.7546771E-02  0.1022923E+00
         21   -1    0    0  502  501  0.00000000000E+00  0.00000000000E+00  0.13040980785E+04  0.13040980785E+04  0.00000000000E+00 0.  1.
         21   -1    0    0  501  502 -0.00000000000E+00 -0.00000000000E+00 -0.41712733884E+02  0.41712733884E+02  0.00000000000E+00 0.  1.
      99926    2    1    2    0    0  0.00000000000E+00  0.14210854715E-13  0.12623853447E+04  0.13458108124E+04  0.46646541612E+03 0.  0.
      99925    2    3    3    0    0 -0.69916625724E+02 -0.82711921162E+02  0.61400389746E+03  0.67665043880E+03  0.26291716144E+03 0.  0.
         25    1    4    4    0    0 -0.52544435613E+02 -0.74294139646E+02  0.38654531739E+03  0.41634760404E+03  0.12509000000E+03 0.  0.
         25    1    3    3    0    0  0.69916625724E+02  0.82711921162E+02  0.64838144720E+03  0.66916037362E+03  0.12509000000E+03 0.  0.
         25    1    4    4    0    0 -0.17372190112E+02 -0.84177815158E+01  0.22745858007E+03  0.26030283476E+03  0.12509000000E+03 0.  0.
<mgrwt>
<rscale>  2 0.46646542E+03</rscale>
<asrwt>0</asrwt>
<pdfrwt beam="1">  1       21 0.19177910E+00 0.46646542E+03</pdfrwt>
<pdfrwt beam="2">  1       21 0.61342264E-02 0.46646542E+03</pdfrwt>
<totfact> 0.25465942E+04</totfact>
</mgrwt>
</event>
<event>
 7    0  0.4770865E-002  0.4491221E+03  0.7546771E-02  0.1027984E+00
         21   -1    0    0  502  501  0.00000000000E+00  0.00000000000E+00  0.10580939102E+03  0.10580939102E+03  0.00000000000E+00 0. -1.
         21   -1    0    0  501  502 -0.00000000000E+00 -0.00000000000E+00 -0.47658966771E+03  0.47658966771E+03  0.00000000000E+00 0. -1.
      99926    2    1    2    0    0  0.00000000000E+00  0.00000000000E+00 -0.37078027669E+03  0.58239905873E+03  0.44912208810E+03 0.  0.
      99925    2    3    3    0    0  0.75638434756E+02 -0.63085274321E+02 -0.17509670165E+03  0.33012838209E+03  0.26196367894E+03 0.  0.
         25    1    3    3    0    0 -0.75638434756E+02  0.63085274321E+02 -0.19568357504E+03  0.25227067663E+03  0.12509000000E+03 0.  0.
         25    1    4    4    0    0  0.65652154569E+02 -0.34229382387E+02 -0.12584900854E+03  0.19226891862E+03  0.12509000000E+03 0.  0.
         25    1    4    4    0    0  0.99862801867E+01 -0.28855891934E+02 -0.49247693112E+02  0.13785946347E+03  0.12509000000E+03 0.  0.
<mgrwt>
<rscale>  2 0.44912209E+03</rscale>
<asrwt>0</asrwt>
<pdfrwt beam="1">  1       21 0.15560205E-01 0.44912209E+03</pdfrwt>
<pdfrwt beam="2">  1       21 0.70086715E-01 0.44912209E+03</pdfrwt>
<totfact> 0.62634939E+04</totfact>
</mgrwt>
</event>
<event>
 7    0  0.4770865E-002  0.4498446E+03  0.7546771E-02  0.1027768E+00
         21   -1    0    0  502  501  0.00000000000E+00  0.00000000000E+00  0.91327531732E+02  0.91327531732E+02  0.00000000000E+00 0. -1.
         21   -1    0    0  501  502 -0.00000000000E+00 -0.00000000000E+00 -0.55394074173E+03  0.55394074173E+03  0.00000000000E+00 0. -1.
      99926    2    1    2    0    0  0.00000000000E+00  0.00000000000E+00 -0.46261321000E+03  0.64526827346E+03  0.44984459836E+03 0.  0.
      99925    2    3    3    0    0 -0.31979689736E+02  0.81462489213E+02 -0.38439919080E+03  0.47373466567E+03  0.26268414086E+03 0.  0.
         25    1    4    4    0    0 -0.47314079542E+02  0.45277251160E+02 -0.15627359911E+03  0.21061243428E+03  0.12509000000E+03 0.  0.
         25    1    3    3    0    0  0.31979689736E+02 -0.81462489213E+02 -0.78214019195E+02  0.17153360779E+03  0.12509000000E+03 0.  0.
         25    1    4    4    0    0  0.15334389806E+02  0.36185238053E+02 -0.22812559169E+03  0.26312223138E+03  0.12509000000E+03 0.  0.
<mgrwt>
<rscale>  2 0.44984460E+03</rscale>
<asrwt>0</asrwt>
<pdfrwt beam="1">  1       21 0.13430519E-01 0.44984460E+03</pdfrwt>
<pdfrwt beam="2">  1       21 0.81461873E-01 0.44984460E+03</pdfrwt>
<totfact> 0.58310768E+04</totfact>
</mgrwt>
</event>
<event>
 7    0  0.4770865E-002  0.4535711E+03  0.7546771E-02  0.1026662E+00
         21   -1    0    0  502  501  0.00000000000E+00  0.00000000000E+00  0.72766444595E+02  0.72766444595E+02  0.00000000000E+00 0.  1.
         21   -1    0    0  501  502 -0.00000000000E+00 -0.00000000000E+00 -0.70680511479E+03  0.70680511479E+03  0.00000000000E+00 0.  1.
      99926    2    1    2    0    0  0.00000000000E+00 -0.14210854715E-13 -0.63403867020E+03  0.77957155939E+03  0.45357114205E+03 0.  0.
      99925    2    3    3    0    0  0.11894401707E+02 -0.10695661592E+03 -0.45195112571E+03  0.53383882563E+03  0.26295033227E+03 0.  0.
         25    1    4    4    0    0  0.21666318968E+02 -0.94007609559E+02 -0.25380759322E+03  0.29895260913E+03  0.12509000000E+03 0.  0.
         25    1    3    3    0    0 -0.11894401707E+02  0.10695661592E+03 -0.18208754449E+03  0.24573273376E+03  0.12509000000E+03 0.  0.
         25    1    4    4    0    0 -0.97719172617E+01 -0.12949006365E+02 -0.19814353249E+03  0.23488621650E+03  0.12509000000E+03 0.  0.
<mgrwt>
<rscale>  2 0.45357114E+03</rscale>
<asrwt>0</asrwt>
<pdfrwt beam="1">  1       21 0.10700948E-01 0.45357114E+03</pdfrwt>
<pdfrwt beam="2">  1       21 0.10394193E+00 0.45357114E+03</pdfrwt>
<totfact> 0.49319640E+04</totfact>
</mgrwt>
</event>
<event>
 7    0  0.4770865E-002  0.4477231E+03  0.7546771E-02  0.1028403E+00
         21   -1    0    0  502  501  0.00000000000E+00  0.00000000000E+00  0.56192004221E+03  0.56192004221E+03  0.00000000000E+00 0. -1.
         21   -1    0    0  501  502 -0.00000000000E+00 -0.00000000000E+00 -0.89183502014E+02  0.89183502014E+02  0.00000000000E+00 0. -1.
      99926    2    1    2    0    0  0.00000000000E+00  0.00000000000E+00  0.47273654019E+03  0.65110354422E+03  0.44772311629E+03 0.  0.
      99925    2    3    3    0    0  0.10033484188E+03  0.74108560933E+01  0.24782279973E+03  0.37477819245E+03  0.26252724085E+03 0.  0.
         25    1    4    4    0    0  0.30749609412E+02 -0.68742928258E+01  0.16267645948E+03  0.20761486688E+03  0.12509000000E+03 0.  0.
         25    1    4    4    0    0  0.69585232469E+02  0.14285148919E+02  0.85146340255E+02  0.16716332557E+03  0.12509000000E+03 0.  0.
         25    1    3    3    0    0 -0.10033484188E+03 -0.74108560933E+01  0.22491374046E+03  0.27632535177E+03  0.12509000000E+03 0.  0.
<mgrwt>
<rscale>  2 0.44772312E+03</rscale>
<asrwt>0</asrwt>
<pdfrwt beam="1">  1       21 0.82635298E-01 0.44772312E+03</pdfrwt>
<pdfrwt beam="2">  1       21 0.13115221E-01 0.44772312E+03</pdfrwt>
<totfact> 0.58949567E+04</totfact>
</mgrwt>
</event>
<event>
 7    0  0.4770865E-002  0.4604357E+03  0.7546771E-02  0.1024655E+00
         21   -1    0    0  502  501  0.00000000000E+00  0.00000000000E+00  0.66213896599E+02  0.66213896599E+02  0.00000000000E+00 0. -1.
         21   -1    0    0  501  502 -0.00000000000E+00 -0.00000000000E+00 -0.80044010661E+03  0.80044010661E+03  0.00000000000E+00 0. -1.
      99926    2    1    2    0    0  0.14210854715E-13 -0.17763568394E-14 -0.73422621001E+03  0.86665400321E+03  0.46043569998E+03 0.  0.
      99925    2    3    3    0    0 -0.73137884510E+02 -0.14421035863E+02 -0.28710452930E+03  0.39641744371E+03  0.26298414878E+03 0.  0.
         25    1    3    3    0    0  0.73137884510E+02  0.14421035863E+02 -0.44712168071E+03  0.47023655950E+03  0.12509000000E+03 0.  0.
         25    1    4    4    0    0 -0.57752460788E+02 -0.42002249122E+02 -0.14228955478E+03  0.20246817320E+03  0.12509000000E+03 0.  0.
         25    1    4    4    0    0 -0.15385423722E+02  0.27581213260E+02 -0.14481497452E+03  0.19394927051E+03  0.12509000000E+03 0.  0.
<mgrwt>
<rscale>  2 0.46043570E+03</rscale>
<asrwt>0</asrwt>
<pdfrwt beam="1">  1       21 0.97373384E-02 0.46043570E+03</pdfrwt>
<pdfrwt beam="2">  1       21 0.11771177E+00 0.46043570E+03</pdfrwt>
<totfact> 0.42847154E+04</totfact>
</mgrwt>
</event>
<event>
 7    0  0.4770865E-002  0.4820053E+03  0.7546771E-02  0.1018586E+00
         21   -1    0    0  502  501  0.00000000000E+00  0.00000000000E+00  0.21320641782E+03  0.21320641782E+03  0.00000000000E+00 0.  1.
         21   -1    0    0  501  502 -0.00000000000E+00 -0.00000000000E+00 -0.27242269903E+03  0.27242269903E+03  0.00000000000E+00 0.  1.
      99926    2    1    2    0    0  0.00000000000E+00  0.00000000000E+00 -0.59216281212E+02  0.48562911685E+03  0.48200526052E+03 0.  0.
      99925    2    3    3    0    0  0.55955727643E+02 -0.11096584767E+03 -0.94465719911E+02  0.30581117049E+03  0.26296812916E+03 0.  0.
         25    1    4    4    0    0  0.58608670609E+01 -0.40657020035E+02 -0.77754691026E+02  0.15290730237E+03  0.12509000000E+03 0.  0.
         25    1    4    4    0    0  0.50094860582E+02 -0.70308827630E+02 -0.16711028885E+02  0.15290386812E+03  0.12509000000E+03 0.  0.
         25    1    3    3    0    0 -0.55955727643E+02  0.11096584767E+03  0.35249438699E+02  0.17981794636E+03  0.12509000000E+03 0.  0.
<mgrwt>
<rscale>  2 0.48200526E+03</rscale>
<asrwt>0</asrwt>
<pdfrwt beam="1">  1       21 0.31353885E-01 0.48200526E+03</pdfrwt>
<pdfrwt beam="2">  1       21 0.40062161E-01 0.48200526E+03</pdfrwt>
<totfact> 0.53796091E+04</totfact>
</mgrwt>
</event>
<event>
 7    0  0.4770865E-002  0.4544423E+03  0.7546771E-02  0.1026406E+00
         21   -1    0    0  502  501  0.00000000000E+00  0.00000000000E+00  0.29803553607E+03  0.29803553607E+03  0.00000000000E+00 0.  1.
         21   -1    0    0  501  502 -0.00000000000E+00 -0.00000000000E+00 -0.17323256879E+03  0.17323256879E+03  0.00000000000E+00 0.  1.
      99926    2    1    2    0    0  0.00000000000E+00 -0.14210854715E-13  0.12480296727E+03  0.47126810486E+03  0.45444234620E+03 0.  0.
      99925    2    3    3    0    0  0.24494872115E+02 -0.10998049214E+03  0.85653770318E+02  0.29842171313E+03  0.26272274946E+03 0.  0.
         25    1    3    3    0    0 -0.24494872115E+02  0.10998049214E+03  0.39149196955E+02  0.17284639173E+03  0.12509000000E+03 0.  0.
         25    1    4    4    0    0  0.34456146625E+02 -0.28803443043E+02  0.63630142964E+02  0.14735388548E+03  0.12509000000E+03 0.  0.
         25    1    4    4    0    0 -0.99612745100E+01 -0.81177049097E+02  0.22023627354E+02  0.15106782765E+03  0.12509000000E+03 0.  0.
<mgrwt>
<rscale>  2 0.45444235E+03</rscale>
<asrwt>0</asrwt>
<pdfrwt beam="1">  1       21 0.43828755E-01 0.45444235E+03</pdfrwt>
<pdfrwt beam="2">  1       21 0.25475378E-01 0.45444235E+03</pdfrwt>
<totfact> 0.67640289E+04</totfact>
</mgrwt>
</event>
<event>
 7    0  0.4770865E-002  0.4563088E+03  0.7546771E-02  0.1025857E+00
         21   -1    0    0  502  501  0.00000000000E+00  0.00000000000E+00  0.18229557508E+03  0.18229557508E+03  0.00000000000E+00 0. -1.
         21   -1    0    0  501  502 -0.00000000000E+00 -0.00000000000E+00 -0.28554956636E+03  0.28554956636E+03  0.00000000000E+00 0. -1.
      99926    2    1    2    0    0  0.00000000000E+00  0.00000000000E+00 -0.10325399128E+03  0.46784514144E+03  0.45630876570E+03 0.  0.
      99925    2    3    3    0    0  0.47225704661E+02 -0.10197456756E+03 -0.87539898653E+02  0.29895606418E+03  0.26283533789E+03 0.  0.
         25    1    4    4    0    0  0.38149073959E+02 -0.19692964156E+02 -0.17485765235E+02  0.13340324122E+03  0.12509000000E+03 0.  0.
         25    1    3    3    0    0 -0.47225704661E+02  0.10197456756E+03 -0.15714092629E+02  0.16888907725E+03  0.12509000000E+03 0.  0.
         25    1    4    4    0    0  0.90766307020E+01 -0.82281603400E+02 -0.70054133418E+02  0.16555282297E+03  0.12509000000E+03 0.  0.
<mgrwt>
<rscale>  2 0.45630877E+03</rscale>
<asrwt>0</asrwt>
<pdfrwt beam="1">  1       21 0.26808173E-01 0.45630877E+03</pdfrwt>
<pdfrwt beam="2">  1       21 0.41992583E-01 0.45630877E+03</pdfrwt>
<totfact> 0.66899421E+04</totfact>
</mgrwt>
</event>
<event>
 7    0  0.4770865E-002  0.4743506E+03  0.7546771E-02  0.1020699E+00
         21   -1    0    0  502  501  0.00000000000E+00  0.00000000000E+00  0.20309653434E+03  0.20309653434E+03  0.00000000000E+00 0. -1.
         21   -1    0    0  501  502 -0.00000000000E+00 -0.00000000000E+00 -0.27697239891E+03  0.27697239891E+03  0.00000000000E+00 0. -1.
      99926    2    1    2    0    0  0.00000000000E+00  0.00000000000E+00 -0.73875864571E+02  0.48006893325E+03  0.47435064805E+03 0.  0.
      99925    2    3    3    0    0  0.76271377334E+02 -0.97519891327E+02 -0.41494953795E+01  0.29076302508E+03  0.26305601350E+03 0.  0.
         25    1    3    3    0    0 -0.76271377334E+02  0.97519891327E+02 -0.69726369191E+02  0.18930590816E+03  0.12509000000E+03 0.  0.
         25    1    4    4    0    0  0.13196169254E+02 -0.78162852591E+02 -0.15413308164E+02  0.14889139860E+03  0.12509000000E+03 0.  0.
         25    1    4    4    0    0  0.63075208080E+02 -0.19357038736E+02  0.11263812785E+02  0.14187162648E+03  0.12509000000E+03 0.  0.
<mgrwt>
<rscale>  2 0.47435065E+03</rscale>
<asrwt>0</asrwt>
<pdfrwt beam="1">  1       21 0.29867138E-01 0.47435065E+03</pdfrwt>
<pdfrwt beam="2">  1       21 0.40731235E-01 0.47435065E+03</pdfrwt>
<totfact> 0.57361378E+04</totfact>
</mgrwt>
</event>
<event>
 7    0  0.4770865E-002  0.4509538E+03  0.7546771E-02  0.1027438E+00
         21   -1    0    0  502  501  0.00000000000E+00  0.00000000000E+00  0.49486192002E+03  0.49486192002E+03  0.00000000000E+00 0. -1.
         21   -1    0    0  501  502 -0.00000000000E+00 -0.00000000000E+00 -0.10273538415E+03  0.10273538415E+03  0.00000000000E+00 0. -1.
      99926    2    1    2    0    0  0.00000000000E+00  0.00000000000E+00  0.39212653587E+03  0.59759730417E+03  0.45095378678E+03 0.  0.
      99925    2    3    3    0    0  0.50832629864E+02 -0.90225951557E+02  0.29422515164E+03  0.40797434214E+03  0.26296377201E+03 0.  0.
         25    1    3    3    0    0 -0.50832629864E+02  0.90225951557E+02  0.97901384231E+02  0.18962296203E+03  0.12509000000E+03 0.  0.
         25    1    4    4    0    0  0.54862589514E+02 -0.19912775123E+02  0.16165740675E+03  0.21257245259E+03  0.12509000000E+03 0.  0.
         25    1    4    4    0    0 -0.40299596496E+01 -0.70313176434E+02  0.13256774489E+03  0.19540188955E+03  0.12509000000E+03 0.  0.
<mgrwt>
<rscale>  2 0.45095379E+03</rscale>
<asrwt>0</asrwt>
<pdfrwt beam="1">  1       21 0.72773811E-01 0.45095379E+03</pdfrwt>
<pdfrwt beam="2">  1       21 0.15108145E-01 0.45095379E+03</pdfrwt>
<totfact> 0.60745370E+04</totfact>
</mgrwt>
</event>
<event>
 7    0  0.4770865E-002  0.4463666E+03  0.7546771E-02  0.1028811E+00
         21   -1    0    0  502  501  0.00000000000E+00  0.00000000000E+00  0.10135711548E+03  0.10135711548E+03  0.00000000000E+00 0. -1.
         21   -1    0    0  501  502 -0.00000000000E+00 -0.00000000000E+00 -0.49143838017E+03  0.49143838017E+03  0.00000000000E+00 0. -1.
      99926    2    1    2    0    0 -0.14210854715E-13  0.00000000000E+00 -0.39008126469E+03  0.59279549564E+03  0.44636656079E+03 0.  0.
      99925    2    3    3    0    0 -0.79409949199E+02 -0.47205299043E+02 -0.31335055889E+03  0.41939022005E+03  0.26299297258E+03 0.  0.
         25    1    4    4    0    0 -0.74506992148E+02 -0.43070671053E+02 -0.14879974872E+03  0.21259173997E+03  0.12509000000E+03 0.  0.
         25    1    4    4    0    0 -0.49029570506E+01 -0.41346279902E+01 -0.16455081018E+03  0.20679848009E+03  0.12509000000E+03 0.  0.
         25    1    3    3    0    0  0.79409949199E+02  0.47205299043E+02 -0.76730705799E+02  0.17340527559E+03  0.12509000000E+03 0.  0.
<mgrwt>
<rscale>  2 0.44636656E+03</rscale>
<asrwt>0</asrwt>
<pdfrwt beam="1">  1       21 0.14905458E-01 0.44636656E+03</pdfrwt>
<pdfrwt beam="2">  1       21 0.72270350E-01 0.44636656E+03</pdfrwt>
<totfact> 0.63335765E+04</totfact>
</mgrwt>
</event>
<event>
 7    0  0.4770865E-002  0.4450768E+03  0.7546771E-02  0.1029200E+00
         21   -1    0    0  502  501  0.00000000000E+00  0.00000000000E+00  0.19650885060E+03  0.19650885060E+03  0.00000000000E+00 0.  1.
         21   -1    0    0  501  502 -0.00000000000E+00 -0.00000000000E+00 -0.25201578915E+03  0.25201578915E+03  0.00000000000E+00 0.  1.
      99926    2    1    2    0    0 -0.44408920985E-15  0.00000000000E+00 -0.55506938550E+02  0.44852463975E+03  0.44507677117E+03 0.  0.
      99925    2    3    3    0    0  0.35776618126E+01  0.67391680876E+02  0.44173423129E+02  0.27492129612E+03  0.26282311434E+03 0.  0.
         25    1    3    3    0    0 -0.35776618126E+01 -0.67391680876E+02 -0.99680361679E+02  0.17360334363E+03  0.12509000000E+03 0.  0.
         25    1    4    4    0    0  0.30192162668E+02  0.45613107201E+02  0.49123993441E+02  0.14509582029E+03  0.12509000000E+03 0.  0.
         25    1    4    4    0    0 -0.26614500855E+02  0.21778573675E+02 -0.49505703120E+01  0.12982547583E+03  0.12509000000E+03 0.  0.
<mgrwt>
<rscale>  2 0.44507677E+03</rscale>
<asrwt>0</asrwt>
<pdfrwt beam="1">  1       21 0.28898360E-01 0.44507677E+03</pdfrwt>
<pdfrwt beam="2">  1       21 0.37061145E-01 0.44507677E+03</pdfrwt>
<totfact> 0.74769131E+04</totfact>
</mgrwt>
</event>
<event>
 7    0  0.4770865E-002  0.4552481E+03  0.7546771E-02  0.1026168E+00
         21   -1    0    0  502  501  0.00000000000E+00  0.00000000000E+00  0.46854353583E+03  0.46854353583E+03  0.00000000000E+00 0. -1.
         21   -1    0    0  501  502 -0.00000000000E+00 -0.00000000000E+00 -0.11058249696E+03  0.11058249696E+03  0.00000000000E+00 0. -1.
      99926    2    1    2    0    0  0.71054273576E-14  0.71054273576E-14  0.35796103887E+03  0.57912603279E+03  0.45524812631E+03 0.  0.
      99925    2    3    3    0    0 -0.46325470394E+02 -0.60978670130E+02  0.33152374376E+03  0.43009286168E+03  0.26307304988E+03 0.  0.
         25    1    4    4    0    0 -0.10714577970E+02 -0.15188103070E+02  0.21559678393E+03  0.24994991897E+03  0.12509000000E+03 0.  0.
         25    1    4    4    0    0 -0.35610892424E+02 -0.45790567060E+02  0.11592695984E+03  0.18014294271E+03  0.12509000000E+03 0.  0.
         25    1    3    3    0    0  0.46325470394E+02  0.60978670130E+02  0.26437295108E+02  0.14903317111E+03  0.12509000000E+03 0.  0.
<mgrwt>
<rscale>  2 0.45524813E+03</rscale>
<asrwt>0</asrwt>
<pdfrwt beam="1">  1       21 0.68903460E-01 0.45524813E+03</pdfrwt>
<pdfrwt beam="2">  1       21 0.16262132E-01 0.45524813E+03</pdfrwt>
<totfact> 0.59864349E+04</totfact>
</mgrwt>
</event>
<event>
 7    0  0.4770865E-002  0.4563985E+03  0.7546771E-02  0.1025831E+00
         21   -1    0    0  502  501  0.00000000000E+00  0.00000000000E+00  0.63662016781E+03  0.63662016781E+03  0.00000000000E+00 0. -1.
         21   -1    0    0  501  502 -0.00000000000E+00 -0.00000000000E+00 -0.81799014847E+02  0.81799014847E+02  0.00000000000E+00 0. -1.
      99926    2    1    2    0    0  0.00000000000E+00  0.00000000000E+00  0.55482115297E+03  0.71841918266E+03  0.45639852129E+03 0.  0.
      99925    2    3    3    0    0 -0.33060621962E+02 -0.10933819242E+03  0.33694284897E+03  0.44243674028E+03  0.26300559051E+03 0.  0.
         25    1    3    3    0    0  0.33060621962E+02  0.10933819242E+03  0.21787830400E+03  0.27598244238E+03  0.12509000000E+03 0.  0.
         25    1    4    4    0    0 -0.91140617035E+01 -0.30500718305E+02  0.20799337228E+03  0.24478993229E+03  0.12509000000E+03 0.  0.
         25    1    4    4    0    0 -0.23946560259E+02 -0.78837474114E+02  0.12894947668E+03  0.19764680799E+03  0.12509000000E+03 0.  0.
<mgrwt>
<rscale>  2 0.45639852E+03</rscale>
<asrwt>0</asrwt>
<pdfrwt beam="1">  1       21 0.93620611E-01 0.45639852E+03</pdfrwt>
<pdfrwt beam="2">  1       21 0.12029267E-01 0.45639852E+03</pdfrwt>
<totfact> 0.51347148E+04</totfact>
</mgrwt>
</event>
<event>
 7    0  0.4770865E-002  0.4538250E+03  0.7546771E-02  0.1026588E+00
         21   -1    0    0  502  501  0.00000000000E+00  0.00000000000E+00  0.11088378585E+03  0.11088378585E+03  0.00000000000E+00 0. -1.
         21   -1    0    0  501  502 -0.00000000000E+00 -0.00000000000E+00 -0.46435351386E+03  0.46435351386E+03  0.00000000000E+00 0. -1.
      99926    2    1    2    0    0  0.00000000000E+00  0.00000000000E+00 -0.35346972801E+03  0.57523729971E+03  0.45382496885E+03 0.  0.
      99925    2    3    3    0    0  0.29997385566E+02  0.75075680947E+02 -0.12426498471E+03  0.30189040753E+03  0.26298256733E+03 0.  0.
         25    1    4    4    0    0 -0.23488487806E+02  0.47995469352E+02 -0.69561432049E+02  0.15277949819E+03  0.12509000000E+03 0.  0.
         25    1    4    4    0    0  0.53485873373E+02  0.27080211596E+02 -0.54703552658E+02  0.14911090934E+03  0.12509000000E+03 0.  0.
         25    1    3    3    0    0 -0.29997385566E+02 -0.75075680947E+02 -0.22920474331E+03  0.27334689218E+03  0.12509000000E+03 0.  0.
<mgrwt>
<rscale>  2 0.45382497E+03</rscale>
<asrwt>0</asrwt>
<pdfrwt beam="1">  1       21 0.16306439E-01 0.45382497E+03</pdfrwt>
<pdfrwt beam="2">  1       21 0.68287281E-01 0.45382497E+03</pdfrwt>
<totfact> 0.60791794E+04</totfact>
</mgrwt>
</event>
<event>
 7    0  0.4770865E-002  0.4600048E+03  0.7546771E-02  0.1024780E+00
         21   -1    0    0  502  501  0.00000000000E+00  0.00000000000E+00  0.11236843609E+03  0.11236843609E+03  0.00000000000E+00 0.  1.
         21   -1    0    0  501  502 -0.00000000000E+00 -0.00000000000E+00 -0.47078263381E+03  0.47078263381E+03  0.00000000000E+00 0.  1.
      99926    2    1    2    0    0 -0.44408920985E-15  0.00000000000E+00 -0.35841419772E+03  0.58315106991E+03  0.46000481868E+03 0.  0.
      99925    2    3    3    0    0 -0.38872933879E+01  0.93566560491E+01 -0.37329114616E+03  0.45677271038E+03  0.26304442796E+03 0.  0.
         25    1    3    3    0    0  0.38872933879E+01 -0.93566560491E+01  0.14876948444E+02  0.12637835953E+03  0.12509000000E+03 0.  0.
         25    1    4    4    0    0  0.80436273492E+01 -0.31425646736E+02 -0.15721428709E+03  0.20350948719E+03  0.12509000000E+03 0.  0.
         25    1    4    4    0    0 -0.11930920737E+02  0.40782302785E+02 -0.21607685908E+03  0.25326322319E+03  0.12509000000E+03 0.  0.
<mgrwt>
<rscale>  2 0.46000482E+03</rscale>
<asrwt>0</asrwt>
<pdfrwt beam="1">  1       21 0.16524770E-01 0.46000482E+03</pdfrwt>
<pdfrwt beam="2">  1       21 0.69232740E-01 0.46000482E+03</pdfrwt>
<totfact> 0.57421758E+04</totfact>
</mgrwt>
</event>
<event>
 7    0  0.4770865E-002  0.4501335E+03  0.7546771E-02  0.1027682E+00
         21   -1    0    0  502  501  0.00000000000E+00  0.00000000000E+00  0.12770856907E+03  0.12770856907E+03  0.00000000000E+00 0.  1.
         21   -1    0    0  501  502 -0.00000000000E+00 -0.00000000000E+00 -0.39664567756E+03  0.39664567756E+03  0.00000000000E+00 0.  1.
      99926    2    1    2    0    0  0.00000000000E+00  0.14210854715E-13 -0.26893710849E+03  0.52435424663E+03  0.45013354422E+03 0.  0.
      99925    2    3    3    0    0  0.48787416381E+02 -0.74849438532E+02 -0.24163468217E+03  0.36822743590E+03  0.26309974244E+03 0.  0.
         25    1    3    3    0    0 -0.48787416381E+02  0.74849438532E+02 -0.27302426325E+02  0.15612681073E+03  0.12509000000E+03 0.  0.
         25    1    4    4    0    0  0.63945534851E+02 -0.34806092971E+02 -0.14109460072E+03  0.20212790502E+03  0.12509000000E+03 0.  0.
         25    1    4    4    0    0 -0.15158118470E+02 -0.40043345561E+02 -0.10054008145E+03  0.16609953088E+03  0.12509000000E+03 0.  0.
<mgrwt>
<rscale>  2 0.45013354E+03</rscale>
<asrwt>0</asrwt>
<pdfrwt beam="1">  1       21 0.18780672E-01 0.45013354E+03</pdfrwt>
<pdfrwt beam="2">  1       21 0.58330246E-01 0.45013354E+03</pdfrwt>
<totfact> 0.66103709E+04</totfact>
</mgrwt>
</event>
<event>
 7    0  0.4770865E-002  0.4198365E+03  0.7546771E-02  0.1037120E+00
         21   -1    0    0  502  501  0.00000000000E+00  0.00000000000E+00  0.60082702739E+03  0.60082702739E+03  0.00000000000E+00 0. -1.
         21   -1    0    0  501  502 -0.00000000000E+00 -0.00000000000E+00 -0.73341681515E+02  0.73341681515E+02  0.00000000000E+00 0. -1.
      99926    2    1    2    0    0  0.00000000000E+00  0.00000000000E+00  0.52748534587E+03  0.67416870890E+03  0.41983646573E+03 0.  0.
      99925    2    3    3    0    0  0.61342320273E+02  0.18045930341E+02  0.40877409265E+03  0.49024370897E+03  0.26297167054E+03 0.  0.
         25    1    3    3    0    0 -0.61342320273E+02 -0.18045930341E+02  0.11871125322E+03  0.18392499993E+03  0.12509000000E+03 0.  0.
         25    1    4    4    0    0  0.40537633637E+02 -0.97930529333E+01  0.14336533074E+03  0.19478277589E+03  0.12509000000E+03 0.  0.
         25    1    4    4    0    0  0.20804686635E+02  0.27838983275E+02  0.26540876192E+03  0.29546093308E+03  0.12509000000E+03 0.  0.
<mgrwt>
<rscale>  2 0.41983647E+03</rscale>
<asrwt>0</asrwt>
<pdfrwt beam="1">  1       21 0.88356913E-01 0.41983647E+03</pdfrwt>
<pdfrwt beam="2">  1       21 0.10785542E-01 0.41983647E+03</pdfrwt>
<totfact> 0.72386279E+04</totfact>
</mgrwt>
</event>
<event>
 7    0  0.4770865E-002  0.4673912E+03  0.7546771E-02  0.1022659E+00
         21   -1    0    0  502  501  0.00000000000E+00  0.00000000000E+00  0.21644979691E+03  0.21644979691E+03  0.00000000000E+00 0. -1.
         21   -1    0    0  501  502 -0.00000000000E+00 -0.00000000000E+00 -0.25231549297E+03  0.25231549297E+03  0.00000000000E+00 0. -1.
      99926    2    1    2    0    0  0.00000000000E+00  0.00000000000E+00 -0.35865696067E+02  0.46876528988E+03  0.46739121605E+03 0.  0.
      99925    2    3    3    0    0 -0.36914543708E+02  0.11245436497E+03  0.16020713758E+02  0.28890874882E+03  0.26306450566E+03 0.  0.
         25    1    3    3    0    0  0.36914543708E+02 -0.11245436497E+03 -0.51886409824E+02  0.17985654106E+03  0.12509000000E+03 0.  0.
         25    1    4    4    0    0  0.85008460243E+01  0.83733531782E+02 -0.65347136847E+01  0.15090983835E+03  0.12509000000E+03 0.  0.
         25    1    4    4    0    0 -0.45415389733E+02  0.28720833188E+02  0.22555427442E+02  0.13799891047E+03  0.12509000000E+03 0.  0.
<mgrwt>
<rscale>  2 0.46739122E+03</rscale>
<asrwt>0</asrwt>
<pdfrwt beam="1">  1       21 0.31830853E-01 0.46739122E+03</pdfrwt>
<pdfrwt beam="2">  1       21 0.37105219E-01 0.46739122E+03</pdfrwt>
<totfact> 0.61264212E+04</totfact>
</mgrwt>
</event>
<event>
 7    0  0.4770865E-002  0.4624308E+03  0.7546771E-02  0.1024079E+00
         21   -1    0    0  502  501  0.00000000000E+00  0.00000000000E+00  0.30814341777E+03  0.30814341777E+03  0.00000000000E+00 0.  1.
         21   -1    0    0  501  502 -0.00000000000E+00 -0.00000000000E+00 -0.17349246803E+03  0.17349246803E+03  0.00000000000E+00 0.  1.
      99926    2    1    2    0    0  0.00000000000E+00  0.00000000000E+00  0.13465094973E+03  0.48163588580E+03  0.46243080372E+03 0.  0.
      99925    2    3    3    0    0 -0.70849157971E+02 -0.69331841322E+02  0.13931179594E+02  0.28151772468E+03  0.26311906837E+03 0.  0.
         25    1    3    3    0    0  0.70849157971E+02  0.69331841322E+02  0.12071977014E+03  0.20011816112E+03  0.12509000000E+03 0.  0.
         25    1    4    4    0    0 -0.14922382276E+02 -0.68999472085E+02  0.15634185496E+02  0.14448370322E+03  0.12509000000E+03 0.  0.
         25    1    4    4    0    0 -0.55926775695E+02 -0.33236923717E+00 -0.17030059022E+01  0.13703402146E+03  0.12509000000E+03 0.  0.
<mgrwt>
<rscale>  2 0.46243080E+03</rscale>
<asrwt>0</asrwt>
<pdfrwt beam="1">  1       21 0.45315208E-01 0.46243080E+03</pdfrwt>
<pdfrwt beam="2">  1       21 0.25513598E-01 0.46243080E+03</pdfrwt>
<totfact> 0.62795307E+04</totfact>
</mgrwt>
</event>
<event>
 7    0  0.4770865E-002  0.4570130E+03  0.7546771E-02  0.1025651E+00
         21   -1    0    0  502  501  0.00000000000E+00  0.00000000000E+00  0.80027479116E+02  0.80027479116E+02  0.00000000000E+00 0.  1.
         21   -1    0    0  501  502 -0.00000000000E+00 -0.00000000000E+00 -0.65246603215E+03  0.65246603215E+03  0.00000000000E+00 0.  1.
      99926    2    1    2    0    0  0.17763568394E-14  0.00000000000E+00 -0.57243855303E+03  0.73249351126E+03  0.45701296157E+03 0.  0.
      99925    2    3    3    0    0  0.12326398392E+02  0.11439374200E+03 -0.36309861189E+03  0.46284821209E+03  0.26296387048E+03 0.  0.
         25    1    3    3    0    0 -0.12326398392E+02 -0.11439374200E+03 -0.20933994114E+03  0.26964529917E+03  0.12509000000E+03 0.  0.
         25    1    4    4    0    0  0.25327789325E+02  0.18717734647E+02 -0.16055307421E+03  0.20595302435E+03  0.12509000000E+03 0.  0.
         25    1    4    4    0    0 -0.13001390932E+02  0.95676007357E+02 -0.20254553768E+03  0.25689518774E+03  0.12509000000E+03 0.  0.
<mgrwt>
<rscale>  2 0.45701296E+03</rscale>
<asrwt>0</asrwt>
<pdfrwt beam="1">  1       21 0.11768747E-01 0.45701296E+03</pdfrwt>
<pdfrwt beam="2">  1       21 0.95950885E-01 0.45701296E+03</pdfrwt>
<totfact> 0.50372018E+04</totfact>
</mgrwt>
</event>
<event>
 7    0  0.4770865E-002  0.4469090E+03  0.7546771E-02  0.1028648E+00
         21   -1    0    0  502  501  0.00000000000E+00  0.00000000000E+00  0.21509193844E+03  0.21509193844E+03  0.00000000000E+00 0.  1.
         21   -1    0    0  501  502 -0.00000000000E+00 -0.00000000000E+00 -0.23214223840E+03  0.23214223840E+03  0.00000000000E+00 0.  1.
      99926    2    1    2    0    0  0.00000000000E+00  0.00000000000E+00 -0.17050299955E+02  0.44723417684E+03  0.44690904691E+03 0.  0.
      99925    2    3    3    0    0  0.34038012830E+02  0.92865071458E+02  0.25762379149E+02  0.28211924291E+03  0.26295448129E+03 0.  0.
         25    1    4    4    0    0  0.39696122758E+02  0.14130018500E+02  0.10618703444E+00  0.13199605661E+03  0.12509000000E+03 0.  0.
         25    1    3    3    0    0 -0.34038012830E+02 -0.92865071458E+02 -0.42812679105E+02  0.16511493393E+03  0.12509000000E+03 0.  0.
         25    1    4    4    0    0 -0.56581099288E+01  0.78735052958E+02  0.25656192115E+02  0.15012318630E+03  0.12509000000E+03 0.  0.
<mgrwt>
<rscale>  2 0.44690905E+03</rscale>
<asrwt>0</asrwt>
<pdfrwt beam="1">  1       21 0.31631168E-01 0.44690905E+03</pdfrwt>
<pdfrwt beam="2">  1       21 0.34138564E-01 0.44690905E+03</pdfrwt>
<totfact> 0.73766890E+04</totfact>
</mgrwt>
</event>
<event>
 7    0  0.4770865E-002  0.4838363E+03  0.7546771E-02  0.1018086E+00
         21   -1    0    0  502  501  0.00000000000E+00  0.00000000000E+00  0.20106246819E+03  0.20106246819E+03  0.00000000000E+00 0. -1.
         21   -1    0    0  501  502 -0.00000000000E+00 -0.00000000000E+00 -0.29107564038E+03  0.29107564038E+03  0.00000000000E+00 0. -1.
      99926    2    1    2    0    0  0.00000000000E+00  0.00000000000E+00 -0.90013172196E+02  0.49213810857E+03  0.48383628093E+03 0.  0.
      99925    2    3    3    0    0  0.12384283274E+03 -0.29823361154E+02 -0.20376376927E-01  0.29220639150E+03  0.26297926672E+03 0.  0.
         25    1    4    4    0    0  0.10079990712E+03 -0.36200737309E+02  0.49972919951E+01  0.16475313558E+03  0.12509000000E+03 0.  0.
         25    1    4    4    0    0  0.23042925628E+02  0.63773761552E+01 -0.50176683720E+01  0.12745325592E+03  0.12509000000E+03 0.  0.
         25    1    3    3    0    0 -0.12384283274E+03  0.29823361154E+02 -0.89992795819E+02  0.19993171707E+03  0.12509000000E+03 0.  0.
<mgrwt>
<rscale>  2 0.48383628E+03</rscale>
<asrwt>0</asrwt>
<pdfrwt beam="1">  1       21 0.29568010E-01 0.48383628E+03</pdfrwt>
<pdfrwt beam="2">  1       21 0.42805241E-01 0.48383628E+03</pdfrwt>
<totfact> 0.52688221E+04</totfact>
</mgrwt>
</event>
<event>
 7    0  0.4770865E-002  0.4573074E+03  0.7546771E-02  0.1025565E+00
         21   -1    0    0  502  501  0.00000000000E+00  0.00000000000E+00  0.42864218464E+02  0.42864218464E+02  0.00000000000E+00 0. -1.
         21   -1    0    0  501  502 -0.00000000000E+00 -0.00000000000E+00 -0.12197237814E+04  0.12197237814E+04  0.00000000000E+00 0. -1.
      99926    2    1    2    0    0  0.00000000000E+00  0.00000000000E+00 -0.11768595629E+04  0.12625879998E+04  0.45730736548E+03 0.  0.
      99925    2    3    3    0    0  0.73502278961E+02 -0.11861818338E+02 -0.98053688349E+03  0.10181838462E+04  0.26401226693E+03 0.  0.
         25    1    4    4    0    0  0.57451309783E+02 -0.83578629657E+01 -0.37279986588E+03  0.39748931429E+03  0.12509000000E+03 0.  0.
         25    1    3    3    0    0 -0.73502278961E+02  0.11861818338E+02 -0.19632267943E+03  0.24440415362E+03  0.12509000000E+03 0.  0.
         25    1    4    4    0    0  0.16050969178E+02 -0.35039553726E+01 -0.60773701760E+03  0.62069453194E+03  0.12509000000E+03 0.  0.
<mgrwt>
<rscale>  2 0.45730737E+03</rscale>
<asrwt>0</asrwt>
<pdfrwt beam="1">  1       21 0.63035617E-02 0.45730737E+03</pdfrwt>
<pdfrwt beam="2">  1       21 0.17937114E+00 0.45730737E+03</pdfrwt>
<totfact> 0.29684157E+04</totfact>
</mgrwt>
</event>
<event>
 7    0  0.4770865E-002  0.4573354E+03  0.7546771E-02  0.1025557E+00
         21   -1    0    0  502  501  0.00000000000E+00  0.00000000000E+00  0.52841573435E+03  0.52841573435E+03  0.00000000000E+00 0. -1.
         21   -1    0    0  501  502 -0.00000000000E+00 -0.00000000000E+00 -0.98954122700E+02  0.98954122700E+02  0.00000000000E+00 0. -1.
      99926    2    1    2    0    0  0.00000000000E+00 -0.14210854715E-13  0.42946161165E+03  0.62736985705E+03  0.45733539296E+03 0.  0.
      99925    2    3    3    0    0  0.49605587445E+02 -0.99267626720E+02  0.22686568841E+03  0.36467727582E+03  0.26307166115E+03 0.  0.
         25    1    3    3    0    0 -0.49605587445E+02  0.99267626720E+02  0.20259592324E+03  0.26269258123E+03  0.12509000000E+03 0.  0.
         25    1    4    4    0    0  0.27137905765E+02 -0.90296438837E+02  0.10662248921E+03  0.18948819515E+03  0.12509000000E+03 0.  0.
         25    1    4    4    0    0  0.22467681681E+02 -0.89711878826E+01  0.12024319920E+03  0.17518908067E+03  0.12509000000E+03 0.  0.
<mgrwt>
<rscale>  2 0.45733539E+03</rscale>
<asrwt>0</asrwt>
<pdfrwt beam="1">  1       21 0.77708195E-01 0.45733539E+03</pdfrwt>
<pdfrwt beam="2">  1       21 0.14552077E-01 0.45733539E+03</pdfrwt>
<totfact> 0.55985040E+04</totfact>
</mgrwt>
</event>
<event>
 7    0  0.4770865E-002  0.4442787E+03  0.7546771E-02  0.1029442E+00
         21   -1    0    0  502  501  0.00000000000E+00  0.00000000000E+00  0.46748565987E+02  0.46748565987E+02  0.00000000000E+00 0.  1.
         21   -1    0    0  501  502 -0.00000000000E+00 -0.00000000000E+00 -0.10555595467E+04  0.10555595467E+04  0.00000000000E+00 0.  1.
      99926    2    1    2    0    0  0.35527136788E-14  0.14210854715E-13 -0.10088109807E+04  0.11023081126E+04  0.44427871936E+03 0.  0.
      99925    2    3    3    0    0 -0.25789795223E+02  0.96550583070E+02 -0.58126870986E+03  0.64577001997E+03  0.26297999355E+03 0.  0.
         25    1    4    4    0    0  0.26949341832E+01  0.95079584028E+01 -0.23576395305E+03  0.26707641903E+03  0.12509000000E+03 0.  0.
         25    1    4    4    0    0 -0.28484729406E+02  0.87042624667E+02 -0.34550475681E+03  0.37869360094E+03  0.12509000000E+03 0.  0.
         25    1    3    3    0    0  0.25789795223E+02 -0.96550583070E+02 -0.42754227081E+03  0.45653809267E+03  0.12509000000E+03 0.  0.
<mgrwt>
<rscale>  2 0.44427872E+03</rscale>
<asrwt>0</asrwt>
<pdfrwt beam="1">  1       21 0.68747903E-02 0.44427872E+03</pdfrwt>
<pdfrwt beam="2">  1       21 0.15522932E+00 0.44427872E+03</pdfrwt>
<totfact> 0.38537406E+04</totfact>
</mgrwt>
</event>
<event>
 7    0  0.4770865E-002  0.4625217E+03  0.7546771E-02  0.1024052E+00
         21   -1    0    0  502  501  0.00000000000E+00  0.00000000000E+00  0.72125769851E+02  0.72125769851E+02  0.00000000000E+00 0. -1.
         21   -1    0    0  501  502 -0.00000000000E+00 -0.00000000000E+00 -0.74150438783E+03  0.74150438783E+03  0.00000000000E+00 0. -1.
      99926    2    1    2    0    0  0.00000000000E+00  0.00000000000E+00 -0.66937861798E+03  0.81363015769E+03  0.46252167439E+03 0.  0.
      99925    2    3    3    0    0  0.24413270190E+02  0.37363221760E+02 -0.22221004179E+03  0.34715479742E+03  0.26295842370E+03 0.  0.
         25    1    4    4    0    0 -0.14883952387E+01  0.24804768764E+02 -0.15972528654E+03  0.20439463578E+03  0.12509000000E+03 0.  0.
         25    1    4    4    0    0  0.25901665429E+02  0.12558452996E+02 -0.62484755252E+02  0.14276016164E+03  0.12509000000E+03 0.  0.
         25    1    3    3    0    0 -0.24413270190E+02 -0.37363221760E+02 -0.44716857619E+03  0.46647536026E+03  0.12509000000E+03 0.  0.
<mgrwt>
<rscale>  2 0.46252167E+03</rscale>
<asrwt>0</asrwt>
<pdfrwt beam="1">  1       21 0.10606732E-01 0.46252167E+03</pdfrwt>
<pdfrwt beam="2">  1       21 0.10904475E+00 0.46252167E+03</pdfrwt>
<totfact> 0.44431502E+04</totfact>
</mgrwt>
</event>
<event>
 7    0  0.4770865E-002  0.4386268E+03  0.7546771E-02  0.1031169E+00
         21   -1    0    0  502  501  0.00000000000E+00  0.00000000000E+00  0.11255345615E+03  0.11255345615E+03  0.00000000000E+00 0.  1.
         21   -1    0    0  501  502 -0.00000000000E+00 -0.00000000000E+00 -0.42733798874E+03  0.42733798874E+03  0.00000000000E+00 0.  1.
      99926    2    1    2    0    0  0.00000000000E+00 -0.14210854715E-13 -0.31478453259E+03  0.53989144489E+03  0.43862680072E+03 0.  0.
      99925    2    3    3    0    0  0.33240982938E+02  0.64171270270E+02 -0.28078655207E+03  0.39147889268E+03  0.26304319173E+03 0.  0.
         25    1    4    4    0    0  0.93133320837E+00  0.52914190494E+02 -0.18837977500E+03  0.23223958893E+03  0.12509000000E+03 0.  0.
         25    1    3    3    0    0 -0.33240982938E+02 -0.64171270270E+02 -0.33997980517E+02  0.14841255221E+03  0.12509000000E+03 0.  0.
         25    1    4    4    0    0  0.32309649729E+02  0.11257079776E+02 -0.92406777072E+02  0.15923930375E+03  0.12509000000E+03 0.  0.
<mgrwt>
<rscale>  2 0.43862680E+03</rscale>
<asrwt>0</asrwt>
<pdfrwt beam="1">  1       21 0.16551979E-01 0.43862680E+03</pdfrwt>
<pdfrwt beam="2">  1       21 0.62843821E-01 0.43862680E+03</pdfrwt>
<totfact> 0.71344128E+04</totfact>
</mgrwt>
</event>
<event>
 7    0  0.4770865E-002  0.4561182E+03  0.7546771E-02  0.1025913E+00
         21   -1    0    0  502  501  0.00000000000E+00  0.00000000000E+00  0.88580908011E+02  0.88580908011E+02  0.00000000000E+00 0. -1.
         21   -1    0    0  501  502 -0.00000000000E+00 -0.00000000000E+00 -0.58715761899E+03  0.58715761899E+03  0.00000000000E+00 0. -1.
      99926    2    1    2    0    0  0.00000000000E+00  0.00000000000E+00 -0.49857671098E+03  0.67573852700E+03  0.45611820852E+03 0.  0.
      99925    2    3    3    0    0  0.73565137952E+02  0.28592593476E+02 -0.43568186242E+03  0.51501318364E+03  0.26304092487E+03 0.  0.
         25    1    3    3    0    0 -0.73565137952E+02 -0.28592593476E+02 -0.62894848553E+02  0.16072534336E+03  0.12509000000E+03 0.  0.
         25    1    4    4    0    0  0.68414472345E+02 -0.71505673798E+01 -0.25609009995E+03  0.29319160635E+03  0.12509000000E+03 0.  0.
         25    1    4    4    0    0  0.51506656065E+01  0.35743160855E+02 -0.17959176247E+03  0.22182157729E+03  0.12509000000E+03 0.  0.
<mgrwt>
<rscale>  2 0.45611821E+03</rscale>
<asrwt>0</asrwt>
<pdfrwt beam="1">  1       21 0.13026604E-01 0.45611821E+03</pdfrwt>
<pdfrwt beam="2">  1       21 0.86346710E-01 0.45611821E+03</pdfrwt>
<totfact> 0.53765138E+04</totfact>
</mgrwt>
</event>
<event>
 7    0  0.4770865E-002  0.4529052E+03  0.7546771E-02  0.1026859E+00
         21   -1    0    0  502  501  0.00000000000E+00  0.00000000000E+00  0.34311145975E+03  0.34311145975E+03  0.00000000000E+00 0. -1.
         21   -1    0    0  501  502 -0.00000000000E+00 -0.00000000000E+00 -0.14945805712E+03  0.14945805712E+03  0.00000000000E+00 0. -1.
      99926    2    1    2    0    0  0.35527136788E-14  0.00000000000E+00  0.19365340262E+03  0.49256951687E+03  0.45290516513E+03 0.  0.
      99925    2    3    3    0    0 -0.21818339816E+02  0.97444964167E+02  0.68752875973E+02  0.28954436904E+03  0.26293996025E+03 0.  0.
         25    1    4    4    0    0 -0.33477955541E+02  0.84273906687E+02  0.29742534852E+02  0.15733718993E+03  0.12509000000E+03 0.  0.
         25    1    3    3    0    0  0.21818339816E+02 -0.97444964167E+02  0.12490052665E+03  0.20302514783E+03  0.12509000000E+03 0.  0.
         25    1    4    4    0    0  0.11659615725E+02  0.13171057480E+02  0.39010341121E+02  0.13220717911E+03  0.12509000000E+03 0.  0.
<mgrwt>
<rscale>  2 0.45290517E+03</rscale>
<asrwt>0</asrwt>
<pdfrwt beam="1">  1       21 0.50457567E-01 0.45290517E+03</pdfrwt>
<pdfrwt beam="2">  1       21 0.21979126E-01 0.45290517E+03</pdfrwt>
<totfact> 0.66901561E+04</totfact>
</mgrwt>
</event>
<event>
 7    0  0.4770865E-002  0.4627229E+03  0.7546771E-02  0.1023994E+00
         21   -1    0    0  502  501  0.00000000000E+00  0.00000000000E+00  0.81456390417E+03  0.81456390417E+03  0.00000000000E+00 0.  1.
         21   -1    0    0  501  502 -0.00000000000E+00 -0.00000000000E+00 -0.65713827055E+02  0.65713827055E+02  0.00000000000E+00 0.  1.
      99926    2    1    2    0    0  0.00000000000E+00  0.00000000000E+00  0.74885007711E+03  0.88027773122E+03  0.46272286100E+03 0.  0.
      99925    2    3    3    0    0  0.17784111681E+02  0.11149535481E+03  0.54734813299E+03  0.61760296967E+03  0.26286110531E+03 0.  0.
         25    1    4    4    0    0  0.48419445946E+01  0.45642566952E+02  0.18133823234E+03  0.22502833367E+03  0.12509000000E+03 0.  0.
         25    1    3    3    0    0 -0.17784111681E+02 -0.11149535481E+03  0.20150194412E+03  0.26267476155E+03  0.12509000000E+03 0.  0.
         25    1    4    4    0    0  0.12942167087E+02  0.65852787854E+02  0.36600990065E+03  0.39257463600E+03  0.12509000000E+03 0.  0.
<mgrwt>
<rscale>  2 0.46272286E+03</rscale>
<asrwt>0</asrwt>
<pdfrwt beam="1">  1       21 0.11978880E+00 0.46272286E+03</pdfrwt>
<pdfrwt beam="2">  1       21 0.96637986E-02 0.46272286E+03</pdfrwt>
<totfact> 0.41528049E+04</totfact>
</mgrwt>
</event>
<event>
 7    0  0.4770865E-002  0.4596425E+03  0.7546771E-02  0.1024885E+00
         21   -1    0    0  502  501  0.00000000000E+00  0.00000000000E+00  0.54282820271E+03  0.54282820271E+03  0.00000000000E+00 0. -1.
         21   -1    0    0  501  502 -0.00000000000E+00 -0.00000000000E+00 -0.97301142664E+02  0.97301142664E+02  0.00000000000E+00 0. -1.
      99926    2    1    2    0    0 -0.35527136788E-14  0.00000000000E+00  0.44552706005E+03  0.64012934538E+03  0.45964248887E+03 0.  0.
      99925    2    3    3    0    0  0.27453508691E+02  0.11053504146E+03  0.31880036513E+03  0.42875561514E+03  0.26310836964E+03 0.  0.
         25    1    4    4    0    0 -0.19466901960E+02  0.78045839827E+02  0.17811833977E+03  0.23204259188E+03  0.12509000000E+03 0.  0.
         25    1    3    3    0    0 -0.27453508691E+02 -0.11053504146E+03  0.12672669492E+03  0.21137373024E+03  0.12509000000E+03 0.  0.
         25    1    4    4    0    0  0.46920410651E+02  0.32489201631E+02  0.14068202536E+03  0.19671302326E+03  0.12509000000E+03 0.  0.
<mgrwt>
<rscale>  2 0.45964249E+03</rscale>
<asrwt>0</asrwt>
<pdfrwt beam="1">  1       21 0.79827675E-01 0.45964249E+03</pdfrwt>
<pdfrwt beam="2">  1       21 0.14308992E-01 0.45964249E+03</pdfrwt>
<totfact> 0.54258360E+04</totfact>
</mgrwt>
</event>
<event>
 7    0  0.4770865E-002  0.4609668E+03  0.7546771E-02  0.1024501E+00
         21   -1    0    0  502  501  0.00000000000E+00  0.00000000000E+00  0.28096199849E+03  0.28096199849E+03  0.00000000000E+00 0.  1.
         21   -1    0    0  501  502 -0.00000000000E+00 -0.00000000000E+00 -0.18907395433E+03  0.18907395433E+03  0.00000000000E+00 0.  1.
      99926    2    1    2    0    0  0.14210854715E-13  0.00000000000E+00  0.91888044156E+02  0.47003595283E+03  0.46096679304E+03 0.  0.
      99925    2    3    3    0    0 -0.64762947617E+02 -0.75828701729E+02 -0.80625832292E+01  0.28140438759E+03  0.26301937707E+03 0.  0.
         25    1    4    4    0    0  0.24688902447E+01 -0.57564867014E+02 -0.11306896381E+02  0.13818525008E+03  0.12509000000E+03 0.  0.
         25    1    3    3    0    0  0.64762947617E+02  0.75828701729E+02  0.99950627385E+02  0.18863156524E+03  0.12509000000E+03 0.  0.
         25    1    4    4    0    0 -0.67231837862E+02 -0.18263834714E+02  0.32443131514E+01  0.14321913751E+03  0.12509000000E+03 0.  0.
<mgrwt>
<rscale>  2 0.46096679E+03</rscale>
<asrwt>0</asrwt>
<pdfrwt beam="1">  1       21 0.41317941E-01 0.46096679E+03</pdfrwt>
<pdfrwt beam="2">  1       21 0.27804993E-01 0.46096679E+03</pdfrwt>
<totfact> 0.64332114E+04</totfact>
</mgrwt>
</event>
<event>
 7    0  0.4770865E-002  0.4547679E+03  0.7546771E-02  0.1026310E+00
         21   -1    0    0  502  501  0.00000000000E+00  0.00000000000E+00  0.63218443249E+03  0.63218443249E+03  0.00000000000E+00 0. -1.
         21   -1    0    0  501  502 -0.00000000000E+00 -0.00000000000E+00 -0.81785395451E+02  0.81785395451E+02  0.00000000000E+00 0. -1.
      99926    2    1    2    0    0  0.00000000000E+00 -0.35527136788E-14  0.55039903704E+03  0.71396982794E+03  0.45476786962E+03 0.  0.
      99925    2    3    3    0    0 -0.10509364733E+03  0.24836772713E+02  0.29417525494E+03  0.40907693756E+03  0.26295117463E+03 0.  0.
         25    1    4    4    0    0 -0.41794001141E+02 -0.41159602310E+01  0.90018647353E+02  0.15973272874E+03  0.12509000000E+03 0.  0.
         25    1    3    3    0    0  0.10509364733E+03 -0.24836772713E+02  0.25622378210E+03  0.30489289038E+03  0.12509000000E+03 0.  0.
         25    1    4    4    0    0 -0.63299646192E+02  0.28952732944E+02  0.20415660758E+03  0.24934420882E+03  0.12509000000E+03 0.  0.
<mgrwt>
<rscale>  2 0.45476787E+03</rscale>
<asrwt>0</asrwt>
<pdfrwt beam="1">  1       21 0.92968296E-01 0.45476787E+03</pdfrwt>
<pdfrwt beam="2">  1       21 0.12027264E-01 0.45476787E+03</pdfrwt>
<totfact> 0.52246409E+04</totfact>
</mgrwt>
</event>
<event>
 7    0  0.4770865E-002  0.4504506E+03  0.7546771E-02  0.1027588E+00
         21   -1    0    0  502  501  0.00000000000E+00  0.00000000000E+00  0.62530549242E+03  0.62530549242E+03  0.00000000000E+00 0.  1.
         21   -1    0    0  501  502 -0.00000000000E+00 -0.00000000000E+00 -0.81122651333E+02  0.81122651333E+02  0.00000000000E+00 0.  1.
      99926    2    1    2    0    0  0.35527136788E-14  0.00000000000E+00  0.54418284108E+03  0.70642814375E+03  0.45045061633E+03 0.  0.
      99925    2    3    3    0    0  0.19792731111E+02  0.44430585155E+02  0.49664435139E+03  0.56404399714E+03  0.26291479579E+03 0.  0.
         25    1    3    3    0    0 -0.19792731111E+02 -0.44430585155E+02  0.47538489696E+02  0.14238414661E+03  0.12509000000E+03 0.  0.
         25    1    4    4    0    0  0.16849763891E+02  0.62368038219E+02  0.27213487287E+03  0.30639612247E+03  0.12509000000E+03 0.  0.
         25    1    4    4    0    0  0.29429672205E+01 -0.17937453064E+02  0.22450947852E+03  0.25764787467E+03  0.12509000000E+03 0.  0.
<mgrwt>
<rscale>  2 0.45045062E+03</rscale>
<asrwt>0</asrwt>
<pdfrwt beam="1">  1       21 0.91956687E-01 0.45045062E+03</pdfrwt>
<pdfrwt beam="2">  1       21 0.11929802E-01 0.45045062E+03</pdfrwt>
<totfact> 0.54479459E+04</totfact>
</mgrwt>
</event>
<event>
 7    0  0.4770865E-002  0.4480656E+03  0.7546771E-02  0.1028300E+00
         21   -1    0    0  502  501  0.00000000000E+00  0.00000000000E+00  0.38114903652E+03  0.38114903652E+03  0.00000000000E+00 0.  1.
         21   -1    0    0  501  502 -0.00000000000E+00 -0.00000000000E+00 -0.13168257055E+03  0.13168257055E+03  0.00000000000E+00 0.  1.
      99926    2    1    2    0    0  0.00000000000E+00  0.00000000000E+00  0.24946646598E+03  0.51283160707E+03  0.44806555275E+03 0.  0.
      99925    2    3    3    0    0 -0.30249792124E+02 -0.64964860445E+02  0.67542638483E+02  0.28071252098E+03  0.26287264674E+03 0.  0.
         25    1    3    3    0    0  0.30249792124E+02  0.64964860445E+02  0.18192382749E+03  0.23211908609E+03  0.12509000000E+03 0.  0.
         25    1    4    4    0    0 -0.47528588219E+02 -0.52018986937E+02  0.52572916557E+02  0.15289330056E+03  0.12509000000E+03 0.  0.
         25    1    4    4    0    0  0.17278796094E+02 -0.12945873508E+02  0.14969721927E+02  0.12781922042E+03  0.12509000000E+03 0.  0.
<mgrwt>
<rscale>  2 0.44806555E+03</rscale>
<asrwt>0</asrwt>
<pdfrwt beam="1">  1       21 0.56051329E-01 0.44806555E+03</pdfrwt>
<pdfrwt beam="2">  1       21 0.19365084E-01 0.44806555E+03</pdfrwt>
<totfact> 0.68045927E+04</totfact>
</mgrwt>
</event>
<event>
 7    0  0.4770865E-002  0.3972714E+03  0.7546771E-02  0.1044729E+00
         21   -1    0    0  502  501  0.00000000000E+00  0.00000000000E+00  0.73529226583E+02  0.73529226583E+02  0.00000000000E+00 0.  1.
         21   -1    0    0  501  502 -0.00000000000E+00 -0.00000000000E+00 -0.53660477002E+03  0.53660477002E+03  0.00000000000E+00 0.  1.
      99926    2    1    2    0    0  0.35527136788E-14  0.00000000000E+00 -0.46307554344E+03  0.61013399661E+03  0.39727136177E+03 0.  0.
      99925    2    3    3    0    0 -0.22546967752E+02  0.32617822861E+02 -0.30395751599E+03  0.40388574114E+03  0.26298523199E+03 0.  0.
         25    1    4    4    0    0 -0.51379259609E+02  0.12242822441E+02 -0.16306949275E+03  0.21220010034E+03  0.12509000000E+03 0.  0.
         25    1    4    4    0    0  0.28832291857E+02  0.20375000421E+02 -0.14088802325E+03  0.19168564080E+03  0.12509000000E+03 0.  0.
         25    1    3    3    0    0  0.22546967752E+02 -0.32617822861E+02 -0.15911802745E+03  0.20624825546E+03  0.12509000000E+03 0.  0.
<mgrwt>
<rscale>  2 0.39727136E+03</rscale>
<asrwt>0</asrwt>
<pdfrwt beam="1">  1       21 0.10813122E-01 0.39727136E+03</pdfrwt>
<pdfrwt beam="2">  1       21 0.78912463E-01 0.39727136E+03</pdfrwt>
<totfact> 0.94187976E+04</totfact>
</mgrwt>
</event>
<event>
 7    0  0.4770865E-002  0.4545570E+03  0.7546771E-02  0.1026372E+00
         21   -1    0    0  502  501  0.00000000000E+00  0.00000000000E+00  0.25346468140E+03  0.25346468140E+03  0.00000000000E+00 0. -1.
         21   -1    0    0  501  502 -0.00000000000E+00 -0.00000000000E+00 -0.20379768593E+03  0.20379768593E+03  0.00000000000E+00 0. -1.
      99926    2    1    2    0    0  0.00000000000E+00  0.00000000000E+00  0.49666995476E+02  0.45726236733E+03  0.45455699548E+03 0.  0.
      99925    2    3    3    0    0  0.69028434678E+02 -0.88656904052E+02  0.42219682975E+02  0.28895330045E+03  0.26284317906E+03 0.  0.
         25    1    4    4    0    0  0.38784952754E+01 -0.21691786931E+02  0.38712765784E+02  0.13278464776E+03  0.12509000000E+03 0.  0.
         25    1    3    3    0    0 -0.69028434678E+02  0.88656904052E+02  0.74473125009E+01  0.16830906688E+03  0.12509000000E+03 0.  0.
         25    1    4    4    0    0  0.65149939402E+02 -0.66965117122E+02  0.35069171911E+01  0.15616865269E+03  0.12509000000E+03 0.  0.
<mgrwt>
<rscale>  2 0.45455700E+03</rscale>
<asrwt>0</asrwt>
<pdfrwt beam="1">  1       21 0.37274218E-01 0.45455700E+03</pdfrwt>
<pdfrwt beam="2">  1       21 0.29970248E-01 0.45455700E+03</pdfrwt>
<totfact> 0.68622547E+04</totfact>
</mgrwt>
</event>
<event>
 7    0  0.4770865E-002  0.4557475E+03  0.7546771E-02  0.1026022E+00
         21   -1    0    0  502  501  0.00000000000E+00  0.00000000000E+00  0.15505323776E+02  0.15505323776E+02  0.00000000000E+00 0.  1.
         21   -1    0    0  501  502 -0.00000000000E+00 -0.00000000000E+00 -0.33489429535E+04  0.33489429535E+04  0.00000000000E+00 0.  1.
      99926    2    1    2    0    0  0.00000000000E+00  0.00000000000E+00 -0.33334376298E+04  0.33644482773E+04  0.45574749502E+03 0.  0.
      99925    2    3    3    0    0 -0.75563172090E+02 -0.37964294479E+02 -0.15331105066E+04  0.15578004591E+04  0.26298928540E+03 0.  0.
         25    1    4    4    0    0 -0.24443375355E+02 -0.52620324793E+02 -0.66877409264E+03  0.68284161580E+03  0.12509000000E+03 0.  0.
         25    1    3    3    0    0  0.75563172090E+02  0.37964294479E+02 -0.18003271232E+04  0.18066478183E+04  0.12509000000E+03 0.  0.
         25    1    4    4    0    0 -0.51119796735E+02  0.14656030315E+02 -0.86433641393E+03  0.87495884326E+03  0.12509000000E+03 0.  0.
<mgrwt>
<rscale>  2 0.45574750E+03</rscale>
<asrwt>0</asrwt>
<pdfrwt beam="1">  1       21 0.22801959E-02 0.45574750E+03</pdfrwt>
<pdfrwt beam="2">  1       21 0.49249135E+00 0.45574750E+03</pdfrwt>
<totfact> 0.16671924E+03</totfact>
</mgrwt>
</event>
<event>
 7    0  0.4770865E-002  0.4539633E+03  0.7546771E-02  0.1026547E+00
         21   -1    0    0  502  501  0.00000000000E+00  0.00000000000E+00  0.10559586652E+04  0.10559586652E+04  0.00000000000E+00 0.  1.
         21   -1    0    0  501  502 -0.00000000000E+00 -0.00000000000E+00 -0.48790418237E+02  0.48790418237E+02  0.00000000000E+00 0.  1.
      99926    2    1    2    0    0  0.00000000000E+00  0.00000000000E+00  0.10071682469E+04  0.11047490834E+04  0.45396328008E+03 0.  0.
      99925    2    3    3    0    0  0.67187831059E+01  0.87266811252E+02  0.80471017211E+03  0.85117972691E+03  0.26322581183E+03 0.  0.
         25    1    4    4    0    0  0.17475028942E+02  0.42233488651E+02  0.28429267250E+03  0.31394087968E+03  0.12509000000E+03 0.  0.
         25    1    4    4    0    0 -0.10756245836E+02  0.45033322601E+02  0.52041749961E+03  0.53723884723E+03  0.12509000000E+03 0.  0.
         25    1    3    3    0    0 -0.67187831059E+01 -0.87266811252E+02  0.20245807482E+03  0.25356935650E+03  0.12509000000E+03 0.  0.
<mgrwt>
<rscale>  2 0.45396328E+03</rscale>
<asrwt>0</asrwt>
<pdfrwt beam="1">  1       21 0.15528803E+00 0.45396328E+03</pdfrwt>
<pdfrwt beam="2">  1       21 0.71750621E-02 0.45396328E+03</pdfrwt>
<totfact> 0.35616505E+04</totfact>
</mgrwt>
</event>
<event>
 7    0  0.4770865E-002  0.4536238E+03  0.7546771E-02  0.1026647E+00
         21   -1    0    0  502  501  0.00000000000E+00  0.00000000000E+00  0.80108863701E+03  0.80108863701E+03  0.00000000000E+00 0. -1.
         21   -1    0    0  501  502 -0.00000000000E+00 -0.00000000000E+00 -0.64217168793E+02  0.64217168793E+02  0.00000000000E+00 0. -1.
      99926    2    1    2    0    0  0.00000000000E+00  0.00000000000E+00  0.73687146821E+03  0.86530580580E+03  0.45362382751E+03 0.  0.
      99925    2    3    3    0    0 -0.41951719067E+02  0.24905236286E+02  0.65633927596E+03  0.70873901617E+03  0.26296298283E+03 0.  0.
         25    1    4    4    0    0  0.17435700151E+02  0.24095049097E+02  0.33538969976E+03  0.35919122182E+03  0.12509000000E+03 0.  0.
         25    1    4    4    0    0 -0.59387419218E+02  0.81018718955E+00  0.32094957620E+03  0.34954779434E+03  0.12509000000E+03 0.  0.
         25    1    3    3    0    0  0.41951719067E+02 -0.24905236286E+02  0.80532192251E+02  0.15656678963E+03  0.12509000000E+03 0.  0.
<mgrwt>
<rscale>  2 0.45362383E+03</rscale>
<asrwt>0</asrwt>
<pdfrwt beam="1">  1       21 0.11780715E+00 0.45362383E+03</pdfrwt>
<pdfrwt beam="2">  1       21 0.94437018E-02 0.45362383E+03</pdfrwt>
<totfact> 0.45248582E+04</totfact>
</mgrwt>
</event>
<event>
 7    0  0.4770865E-002  0.4450214E+03  0.7546771E-02  0.1029217E+00
         21   -1    0    0  502  501  0.00000000000E+00  0.00000000000E+00  0.41424083473E+03  0.41424083473E+03  0.00000000000E+00 0.  1.
         21   -1    0    0  501  502 -0.00000000000E+00 -0.00000000000E+00 -0.11952226913E+03  0.11952226913E+03  0.00000000000E+00 0.  1.
      99926    2    1    2    0    0  0.00000000000E+00 -0.71054273576E-14  0.29471856560E+03  0.53376310387E+03  0.44502136818E+03 0.  0.
      99925    2    3    3    0    0 -0.35390030835E+02 -0.63060487394E+02  0.98471294911E+02  0.29006333221E+03  0.26307995252E+03 0.  0.
         25    1    4    4    0    0 -0.42452618578E+02 -0.63787061728E+02  0.41655046063E+02  0.15249152445E+03  0.12509000000E+03 0.  0.
         25    1    4    4    0    0  0.70625877431E+01  0.72657433426E+00  0.56816248848E+02  0.13757180776E+03  0.12509000000E+03 0.  0.
         25    1    3    3    0    0  0.35390030835E+02  0.63060487394E+02  0.19624727069E+03  0.24369977166E+03  0.12509000000E+03 0.  0.
<mgrwt>
<rscale>  2 0.44502137E+03</rscale>
<asrwt>0</asrwt>
<pdfrwt beam="1">  1       21 0.60917769E-01 0.44502137E+03</pdfrwt>
<pdfrwt beam="2">  1       21 0.17576804E-01 0.44502137E+03</pdfrwt>
<totfact> 0.68179858E+04</totfact>
</mgrwt>
</event>
<event>
 7    0  0.4770865E-002  0.4530776E+03  0.7546771E-02  0.1026808E+00
         21   -1    0    0  502  501  0.00000000000E+00  0.00000000000E+00  0.13427221249E+03  0.13427221249E+03  0.00000000000E+00 0. -1.
         21   -1    0    0  501  502 -0.00000000000E+00 -0.00000000000E+00 -0.38220730610E+03  0.38220730610E+03  0.00000000000E+00 0. -1.
      99926    2    1    2    0    0  0.00000000000E+00  0.00000000000E+00 -0.24793509361E+03  0.51647951858E+03  0.45307756783E+03 0.  0.
      99925    2    3    3    0    0  0.41944898398E+02  0.92864915491E+02 -0.20762152252E+03  0.35017870937E+03  0.26293566676E+03 0.  0.
         25    1    4    4    0    0 -0.18816850257E+01  0.23342925398E+02 -0.12860956766E+03  0.18093192615E+03  0.12509000000E+03 0.  0.
         25    1    4    4    0    0  0.43826583424E+02  0.69521990093E+02 -0.79011954856E+02  0.16924678322E+03  0.12509000000E+03 0.  0.
         25    1    3    3    0    0 -0.41944898398E+02 -0.92864915491E+02 -0.40313571090E+02  0.16630080921E+03  0.12509000000E+03 0.  0.
<mgrwt>
<rscale>  2 0.45307757E+03</rscale>
<asrwt>0</asrwt>
<pdfrwt beam="1">  1       21 0.19745914E-01 0.45307757E+03</pdfrwt>
<pdfrwt beam="2">  1       21 0.56206956E-01 0.45307757E+03</pdfrwt>
<totfact> 0.65115334E+04</totfact>
</mgrwt>
</event>
<event>
 7    0  0.4770865E-002  0.4357539E+03  0.7546771E-02  0.1032058E+00
         21   -1    0    0  502  501  0.00000000000E+00  0.00000000000E+00  0.52012689261E+03  0.52012689261E+03  0.00000000000E+00 0. -1.
         21   -1    0    0  501  502 -0.00000000000E+00 -0.00000000000E+00 -0.91266882325E+02  0.91266882325E+02  0.00000000000E+00 0. -1.
      99926    2    1    2    0    0 -0.14210854715E-13  0.71054273576E-14  0.42886001029E+03  0.61139377493E+03  0.43575387503E+03 0.  0.
      99925    2    3    3    0    0 -0.66189366265E+02  0.56711362014E+02  0.22571730708E+03  0.35740228540E+03  0.26304159388E+03 0.  0.
         25    1    3    3    0    0  0.66189366265E+02 -0.56711362014E+02  0.20314270321E+03  0.25399148953E+03  0.12509000000E+03 0.  0.
         25    1    4    4    0    0 -0.12290911419E+02  0.35076020005E+02  0.15433308155E+03  0.20210789654E+03  0.12509000000E+03 0.  0.
         25    1    4    4    0    0 -0.53898454846E+02  0.21635342010E+02  0.71384225531E+02  0.15529438887E+03  0.12509000000E+03 0.  0.
<mgrwt>
<rscale>  2 0.43575388E+03</rscale>
<asrwt>0</asrwt>
<pdfrwt beam="1">  1       21 0.76489248E-01 0.43575388E+03</pdfrwt>
<pdfrwt beam="2">  1       21 0.13421601E-01 0.43575388E+03</pdfrwt>
<totfact> 0.67700890E+04</totfact>
</mgrwt>
</event>
<event>
 6    0  0.4770865E-002  0.4568503E+03  0.7546771E-02  0.1025699E+00
         21   -1    0    0  502  501  0.00000000000E+00  0.00000000000E+00  0.65798491525E+03  0.65798491525E+03  0.00000000000E+00 0.  1.
         21   -1    0    0  501  502 -0.00000000000E+00 -0.00000000000E+00 -0.79299773184E+02  0.79299773184E+02  0.00000000000E+00 0.  1.
      99926    2    1    2    0    0  0.00000000000E+00  0.00000000000E+00  0.57868514206E+03  0.73728468843E+03  0.45685032358E+03 0.  0.
         25    1    3    3    0    0 -0.38934914309E+02 -0.50531296532E+02  0.29967011580E+03  0.33093658891E+03  0.12509000000E+03 0.  0.
         25    1    3    3    0    0  0.25536424524E+02 -0.42348547457E+02  0.16467436695E+03  0.21262799364E+03  0.12509000000E+03 0.  0.
         25    1    3    3    0    0  0.13398489785E+02  0.92879843989E+02  0.11434065932E+03  0.19372010588E+03  0.12509000000E+03 0.  0.
<mgrwt>
<rscale>  2 0.45685032E+03</rscale>
<asrwt>0</asrwt>
<pdfrwt beam="1">  1       21 0.96762485E-01 0.45685032E+03</pdfrwt>
<pdfrwt beam="2">  1       21 0.11661732E-01 0.45685032E+03</pdfrwt>
<totfact> 0.50190824E+04</totfact>
</mgrwt>
</event>
<event>
 7    0  0.4770865E-002  0.4446790E+03  0.7546771E-02  0.1029321E+00
         21   -1    0    0  502  501  0.00000000000E+00  0.00000000000E+00  0.18708795976E+03  0.18708795976E+03  0.00000000000E+00 0.  1.
         21   -1    0    0  501  502 -0.00000000000E+00 -0.00000000000E+00 -0.26423319149E+03  0.26423319149E+03  0.00000000000E+00 0.  1.
      99926    2    1    2    0    0 -0.71054273576E-14  0.14210854715E-13 -0.77145231723E+02  0.45132115125E+03  0.44467897947E+03 0.  0.
      99925    2    3    3    0    0  0.42903419043E+02 -0.87522592319E+02 -0.14542807847E+02  0.28082927723E+03  0.26296897565E+03 0.  0.
         25    1    3    3    0    0 -0.42903419043E+02  0.87522592319E+02 -0.62602423876E+02  0.17049187402E+03  0.12509000000E+03 0.  0.
         25    1    4    4    0    0  0.42200871870E+02 -0.38009633024E+02  0.27039127822E+02  0.14001524318E+03  0.12509000000E+03 0.  0.
         25    1    4    4    0    0  0.70254717253E+00 -0.49512959295E+02 -0.41581935669E+02  0.14081403405E+03  0.12509000000E+03 0.  0.
<mgrwt>
<rscale>  2 0.44467898E+03</rscale>
<asrwt>0</asrwt>
<pdfrwt beam="1">  1       21 0.27512935E-01 0.44467898E+03</pdfrwt>
<pdfrwt beam="2">  1       21 0.38857822E-01 0.44467898E+03</pdfrwt>
<totfact> 0.74785775E+04</totfact>
</mgrwt>
</event>
<event>
 7    0  0.4770865E-002  0.4351203E+03  0.7546771E-02  0.1032255E+00
         21   -1    0    0  502  501  0.00000000000E+00  0.00000000000E+00  0.53949774883E+03  0.53949774883E+03  0.00000000000E+00 0.  1.
         21   -1    0    0  501  502 -0.00000000000E+00 -0.00000000000E+00 -0.87734218301E+02  0.87734218301E+02  0.00000000000E+00 0.  1.
      99926    2    1    2    0    0  0.00000000000E+00  0.17763568394E-14  0.45176353052E+03  0.62723196713E+03  0.43512027426E+03 0.  0.
      99925    2    3    3    0    0 -0.33327590153E+02  0.15508045657E+02  0.41337785270E+03  0.49131950961E+03  0.26298742114E+03 0.  0.
         25    1    4    4    0    0  0.17398498673E+02  0.26342933172E+02  0.17925486487E+03  0.22085396208E+03  0.12509000000E+03 0.  0.
         25    1    3    3    0    0  0.33327590153E+02 -0.15508045657E+02  0.38385677825E+02  0.13591245751E+03  0.12509000000E+03 0.  0.
         25    1    4    4    0    0 -0.50726088826E+02 -0.10834887514E+02  0.23412298783E+03  0.27046554754E+03  0.12509000000E+03 0.  0.
<mgrwt>
<rscale>  2 0.43512027E+03</rscale>
<asrwt>0</asrwt>
<pdfrwt beam="1">  1       21 0.79337903E-01 0.43512027E+03</pdfrwt>
<pdfrwt beam="2">  1       21 0.12902091E-01 0.43512027E+03</pdfrwt>
<totfact> 0.66933697E+04</totfact>
</mgrwt>
</event>
<event>
 7    0  0.4770865E-002  0.4540793E+03  0.7546771E-02  0.1026513E+00
         21   -1    0    0  502  501  0.00000000000E+00  0.00000000000E+00  0.29702093775E+03  0.29702093775E+03  0.00000000000E+00 0.  1.
         21   -1    0    0  501  502 -0.00000000000E+00 -0.00000000000E+00 -0.17354667573E+03  0.17354667573E+03  0.00000000000E+00 0.  1.
      99926    2    1    2    0    0 -0.35527136788E-14 -0.46629367034E-14  0.12347426202E+03  0.47056761348E+03  0.45407927224E+03 0.  0.
      99925    2    3    3    0    0 -0.18912724815E+02  0.10831026820E+01 -0.36996294768E+02  0.26622189670E+03  0.26295723642E+03 0.  0.
         25    1    4    4    0    0  0.58579813341E+01 -0.36584572533E+02 -0.23647391095E+02  0.13258753372E+03  0.12509000000E+03 0.  0.
         25    1    4    4    0    0 -0.24770706149E+02  0.37667675215E+02 -0.13348903673E+02  0.13363436298E+03  0.12509000000E+03 0.  0.
         25    1    3    3    0    0  0.18912724815E+02 -0.10831026820E+01  0.16047055678E+03  0.20434571678E+03  0.12509000000E+03 0.  0.
<mgrwt>
<rscale>  2 0.45407927E+03</rscale>
<asrwt>0</asrwt>
<pdfrwt beam="1">  1       21 0.43679550E-01 0.45407927E+03</pdfrwt>
<pdfrwt beam="2">  1       21 0.25521570E-01 0.45407927E+03</pdfrwt>
<totfact> 0.67888061E+04</totfact>
</mgrwt>
</event>
<event>
 7    0  0.4770865E-002  0.4627374E+03  0.7546771E-02  0.1023990E+00
         21   -1    0    0  502  501  0.00000000000E+00  0.00000000000E+00  0.51960233038E+02  0.51960233038E+02  0.00000000000E+00 0.  1.
         21   -1    0    0  501  502 -0.00000000000E+00 -0.00000000000E+00 -0.10302393374E+04  0.10302393374E+04  0.00000000000E+00 0.  1.
      99926    2    1    2    0    0  0.35527136788E-14  0.00000000000E+00 -0.97827910433E+03  0.10821995704E+04  0.46273740309E+03 0.  0.
      99925    2    3    3    0    0 -0.20443448683E+02  0.82927098123E+02 -0.41340373935E+03  0.49736923239E+03  0.26301837089E+03 0.  0.
         25    1    4    4    0    0 -0.45033142657E+02  0.44464599892E+02 -0.17423704477E+03  0.22363170717E+03  0.12509000000E+03 0.  0.
         25    1    4    4    0    0  0.24589693974E+02  0.38462498231E+02 -0.23916669457E+03  0.27373752522E+03  0.12509000000E+03 0.  0.
         25    1    3    3    0    0  0.20443448683E+02 -0.82927098123E+02 -0.56487536498E+03  0.58483033801E+03  0.12509000000E+03 0.  0.
<mgrwt>
<rscale>  2 0.46273740E+03</rscale>
<asrwt>0</asrwt>
<pdfrwt beam="1">  1       21 0.76412110E-02 0.46273740E+03</pdfrwt>
<pdfrwt beam="2">  1       21 0.15150578E+00 0.46273740E+03</pdfrwt>
<totfact> 0.34017040E+04</totfact>
</mgrwt>
</event>
<event>
 7    0  0.4770865E-002  0.4553034E+03  0.7546771E-02  0.1026152E+00
         21   -1    0    0  502  501  0.00000000000E+00  0.00000000000E+00  0.11707694463E+03  0.11707694463E+03  0.00000000000E+00 0. -1.
         21   -1    0    0  501  502 -0.00000000000E+00 -0.00000000000E+00 -0.44266022392E+03  0.44266022392E+03  0.00000000000E+00 0. -1.
      99926    2    1    2    0    0  0.00000000000E+00  0.00000000000E+00 -0.32558327929E+03  0.55973716854E+03  0.45530344397E+03 0.  0.
      99925    2    3    3    0    0 -0.93352742129E+02  0.35007744412E+02 -0.27127195537E+03  0.39080669575E+03  0.26306106333E+03 0.  0.
         25    1    3    3    0    0  0.93352742129E+02 -0.35007744412E+02 -0.54311323914E+02  0.16893047279E+03  0.12509000000E+03 0.  0.
         25    1    4    4    0    0 -0.23613516857E+02  0.50344166844E+02 -0.12188396557E+03  0.18329032292E+03  0.12509000000E+03 0.  0.
         25    1    4    4    0    0 -0.69739225273E+02 -0.15336422433E+02 -0.14938798981E+03  0.20751637283E+03  0.12509000000E+03 0.  0.
<mgrwt>
<rscale>  2 0.45530344E+03</rscale>
<asrwt>0</asrwt>
<pdfrwt beam="1">  1       21 0.17217198E-01 0.45530344E+03</pdfrwt>
<pdfrwt beam="2">  1       21 0.65097092E-01 0.45530344E+03</pdfrwt>
<totfact> 0.61080882E+04</totfact>
</mgrwt>
</event>
<event>
 7    0  0.4770865E-002  0.4525109E+03  0.7546771E-02  0.1026976E+00
         21   -1    0    0  502  501  0.00000000000E+00  0.00000000000E+00  0.88053599673E+03  0.88053599673E+03  0.00000000000E+00 0.  1.
         21   -1    0    0  501  502 -0.00000000000E+00 -0.00000000000E+00 -0.58136773440E+02  0.58136773440E+02  0.00000000000E+00 0.  1.
      99926    2    1    2    0    0 -0.71054273576E-14  0.14210854715E-13  0.82239922329E+03  0.93867277016E+03  0.45251086947E+03 0.  0.
      99925    2    3    3    0    0  0.48951546104E+02 -0.99212379606E+02  0.50225310788E+03  0.57759051715E+03  0.26289402997E+03 0.  0.
         25    1    4    4    0    0  0.62439171345E+02 -0.44421044532E+02  0.28696028596E+03  0.32228185356E+03  0.12509000000E+03 0.  0.
         25    1    4    4    0    0 -0.13487625241E+02 -0.54791335075E+02  0.21529282192E+03  0.25530866359E+03  0.12509000000E+03 0.  0.
         25    1    3    3    0    0 -0.48951546104E+02  0.99212379606E+02  0.32014611541E+03  0.36108225302E+03  0.12509000000E+03 0.  0.
<mgrwt>
<rscale>  2 0.45251087E+03</rscale>
<asrwt>0</asrwt>
<pdfrwt beam="1">  1       21 0.12949058E+00 0.45251087E+03</pdfrwt>
<pdfrwt beam="2">  1       21 0.85495261E-02 0.45251087E+03</pdfrwt>
<totfact> 0.42422746E+04</totfact>
</mgrwt>
</event>
<event>
 7    0  0.4770865E-002  0.4512457E+03  0.7546771E-02  0.1027351E+00
         21   -1    0    0  502  501  0.00000000000E+00  0.00000000000E+00  0.24695883455E+03  0.24695883455E+03  0.00000000000E+00 0.  1.
         21   -1    0    0  501  502 -0.00000000000E+00 -0.00000000000E+00 -0.20613015440E+03  0.20613015440E+03  0.00000000000E+00 0.  1.
      99926    2    1    2    0    0  0.00000000000E+00  0.00000000000E+00  0.40828680143E+02  0.45308898895E+03  0.45124566567E+03 0.  0.
      99925    2    3    3    0    0  0.97929560974E+02 -0.28046199139E+02 -0.14812968835E+02  0.28244230894E+03  0.26301605585E+03 0.  0.
         25    1    4    4    0    0  0.86689293216E+01 -0.21670477330E+02 -0.18545638986E+02  0.12859319091E+03  0.12509000000E+03 0.  0.
         25    1    4    4    0    0  0.89260631653E+02 -0.63757218086E+01  0.37326701513E+01  0.15384911803E+03  0.12509000000E+03 0.  0.
         25    1    3    3    0    0 -0.97929560974E+02  0.28046199139E+02  0.55641648979E+02  0.17064668001E+03  0.12509000000E+03 0.  0.
<mgrwt>
<rscale>  2 0.45124567E+03</rscale>
<asrwt>0</asrwt>
<pdfrwt beam="1">  1       21 0.36317476E-01 0.45124567E+03</pdfrwt>
<pdfrwt beam="2">  1       21 0.30313258E-01 0.45124567E+03</pdfrwt>
<totfact> 0.70782647E+04</totfact>
</mgrwt>
</event>
<event>
 7    0  0.4770865E-002  0.4550326E+03  0.7546771E-02  0.1026232E+00
         21   -1    0    0  502  501  0.00000000000E+00  0.00000000000E+00  0.15050726429E+04  0.15050726429E+04  0.00000000000E+00 0.  1.
         21   -1    0    0  501  502 -0.00000000000E+00 -0.00000000000E+00 -0.34392807564E+02  0.34392807564E+02  0.00000000000E+00 0.  1.
      99926    2    1    2    0    0  0.00000000000E+00  0.00000000000E+00  0.14706798354E+04  0.15394654505E+04  0.45503263083E+03 0.  0.
      99925    2    3    3    0    0  0.46273105226E+02 -0.86193462739E+02  0.73466767141E+03  0.78651662961E+03  0.26325141585E+03 0.  0.
         25    1    4    4    0    0  0.36395353054E+02 -0.72297775004E+02  0.31860038555E+03  0.35171764779E+03  0.12509000000E+03 0.  0.
         25    1    3    3    0    0 -0.46273105226E+02  0.86193462739E+02  0.73601216397E+03  0.75294882090E+03  0.12509000000E+03 0.  0.
         25    1    4    4    0    0  0.98777521717E+01 -0.13895687734E+02  0.41606728586E+03  0.43479898182E+03  0.12509000000E+03 0.  0.
<mgrwt>
<rscale>  2 0.45503263E+03</rscale>
<asrwt>0</asrwt>
<pdfrwt beam="1">  1       21 0.22133417E+00 0.45503263E+03</pdfrwt>
<pdfrwt beam="2">  1       21 0.50577668E-02 0.45503263E+03</pdfrwt>
<totfact> 0.22822487E+04</totfact>
</mgrwt>
</event>
<event>
 7    0  0.4770865E-002  0.4765573E+03  0.7546771E-02  0.1020086E+00
         21   -1    0    0  502  501  0.00000000000E+00  0.00000000000E+00  0.41695301798E+03  0.41695301798E+03  0.00000000000E+00 0. -1.
         21   -1    0    0  501  502 -0.00000000000E+00 -0.00000000000E+00 -0.13617053162E+03  0.13617053162E+03  0.00000000000E+00 0. -1.
      99926    2    1    2    0    0  0.00000000000E+00  0.00000000000E+00  0.28078248637E+03  0.55312354960E+03  0.47655729610E+03 0.  0.
      99925    2    3    3    0    0 -0.16896987110E+01  0.11692007752E+03  0.24541747618E+03  0.37827689777E+03  0.26304089827E+03 0.  0.
         25    1    4    4    0    0  0.22577671561E+01  0.10277137178E+03  0.13735571266E+03  0.21232322593E+03  0.12509000000E+03 0.  0.
         25    1    3    3    0    0  0.16896987110E+01 -0.11692007752E+03  0.35365010189E+02  0.17484665183E+03  0.12509000000E+03 0.  0.
         25    1    4    4    0    0 -0.39474658671E+01  0.14148705741E+02  0.10806176352E+03  0.16595367184E+03  0.12509000000E+03 0.  0.
<mgrwt>
<rscale>  2 0.47655730E+03</rscale>
<asrwt>0</asrwt>
<pdfrwt beam="1">  1       21 0.61316620E-01 0.47655730E+03</pdfrwt>
<pdfrwt beam="2">  1       21 0.20025078E-01 0.47655730E+03</pdfrwt>
<totfact> 0.52170114E+04</totfact>
</mgrwt>
</event>
<event>
 6    0  0.4770865E-002  0.4532042E+03  0.7546771E-02  0.1026771E+00
         21   -1    0    0  502  501  0.00000000000E+00  0.00000000000E+00  0.17200413315E+03  0.17200413315E+03  0.00000000000E+00 0.  1.
         21   -1    0    0  501  502 -0.00000000000E+00 -0.00000000000E+00 -0.29853069454E+03  0.29853069454E+03  0.00000000000E+00 0.  1.
      99926    2    1    2    0    0  0.00000000000E+00 -0.14210854715E-13 -0.12652656139E+03  0.47053482769E+03  0.45320420711E+03 0.  0.
         25    1    3    3    0    0  0.18655880585E+02 -0.91598555912E+02 -0.75406586747E+02  0.17341279869E+03  0.12509000000E+03 0.  0.
         25    1    3    3    0    0 -0.35928577453E+02  0.10218810984E+03 -0.37540557362E+02  0.16967638026E+03  0.12509000000E+03 0.  0.
         25    1    3    3    0    0  0.17272696867E+02 -0.10589553932E+02 -0.13579417276E+02  0.12744564874E+03  0.12509000000E+03 0.  0.
<mgrwt>
<rscale>  2 0.45320421E+03</rscale>
<asrwt>0</asrwt>
<pdfrwt beam="1">  1       21 0.25294726E-01 0.45320421E+03</pdfrwt>
<pdfrwt beam="2">  1       21 0.43901572E-01 0.45320421E+03</pdfrwt>
<totfact> 0.68364804E+04</totfact>
</mgrwt>
</event>
<event>
 7    0  0.4770865E-002  0.4583843E+03  0.7546771E-02  0.1025251E+00
         21   -1    0    0  502  501  0.00000000000E+00  0.00000000000E+00  0.31396367563E+02  0.31396367563E+02  0.00000000000E+00 0.  1.
         21   -1    0    0  501  502 -0.00000000000E+00 -0.00000000000E+00 -0.16730931671E+04  0.16730931671E+04  0.00000000000E+00 0.  1.
      99926    2    1    2    0    0  0.00000000000E+00  0.00000000000E+00 -0.16416967995E+04  0.17044895346E+04  0.45838432801E+03 0.  0.
      99925    2    3    3    0    0 -0.85848628725E+02  0.65671315732E+02 -0.11901969165E+04  0.12236752657E+04  0.26292536404E+03 0.  0.
         25    1    4    4    0    0 -0.68983585076E+02  0.10725078189E+02 -0.70043678701E+03  0.71493563557E+03  0.12509000000E+03 0.  0.
         25    1    3    3    0    0  0.85848628725E+02 -0.65671315732E+02 -0.45149988306E+03  0.48081426899E+03  0.12509000000E+03 0.  0.
         25    1    4    4    0    0 -0.16865043649E+02  0.54946237543E+02 -0.48976012946E+03  0.50873963009E+03  0.12509000000E+03 0.  0.
<mgrwt>
<rscale>  2 0.45838433E+03</rscale>
<asrwt>0</asrwt>
<pdfrwt beam="1">  1       21 0.46171130E-02 0.45838433E+03</pdfrwt>
<pdfrwt beam="2">  1       21 0.24604311E+00 0.45838433E+03</pdfrwt>
<totfact> 0.18672973E+04</totfact>
</mgrwt>
</event>
<event>
 7    0  0.4770865E-002  0.4623521E+03  0.7546771E-02  0.1024101E+00
         21   -1    0    0  502  501  0.00000000000E+00  0.00000000000E+00  0.12866919927E+04  0.12866919927E+04  0.00000000000E+00 0. -1.
         21   -1    0    0  501  502 -0.00000000000E+00 -0.00000000000E+00 -0.41534701412E+02  0.41534701412E+02  0.00000000000E+00 0. -1.
      99926    2    1    2    0    0 -0.17763568394E-14  0.00000000000E+00  0.12451572913E+04  0.13282266941E+04  0.46235210705E+03 0.  0.
      99925    2    3    3    0    0 -0.10251968846E+02  0.11785894377E+03  0.72523884043E+03  0.78054198816E+03  0.26320825617E+03 0.  0.
         25    1    3    3    0    0  0.10251968846E+02 -0.11785894377E+03  0.51991845082E+03  0.54768470592E+03  0.12509000000E+03 0.  0.
         25    1    4    4    0    0  0.24104727212E+02  0.59848244756E+02  0.28362563657E+03  0.31662889965E+03  0.12509000000E+03 0.  0.
         25    1    4    4    0    0 -0.34356696058E+02  0.58010699011E+02  0.44161320387E+03  0.46391308851E+03  0.12509000000E+03 0.  0.
<mgrwt>
<rscale>  2 0.46235211E+03</rscale>
<asrwt>0</asrwt>
<pdfrwt beam="1">  1       21 0.18921939E+00 0.46235211E+03</pdfrwt>
<pdfrwt beam="2">  1       21 0.61080452E-02 0.46235211E+03</pdfrwt>
<totfact> 0.26744000E+04</totfact>
</mgrwt>
</event>
<event>
 7    0  0.4770865E-002  0.4592478E+03  0.7546771E-02  0.1025000E+00
         21   -1    0    0  502  501  0.00000000000E+00  0.00000000000E+00  0.33418004407E+03  0.33418004407E+03  0.00000000000E+00 0.  1.
         21   -1    0    0  501  502 -0.00000000000E+00 -0.00000000000E+00 -0.15778059970E+03  0.15778059970E+03  0.00000000000E+00 0.  1.
      99926    2    1    2    0    0 -0.14210854715E-13  0.35527136788E-14  0.17639944437E+03  0.49196064377E+03  0.45924776651E+03 0.  0.
      99925    2    3    3    0    0  0.11050651254E+03 -0.24493595575E+02  0.14228754508E+03  0.31984801985E+03  0.26314517814E+03 0.  0.
         25    1    4    4    0    0  0.27899308040E+02 -0.43514523399E+02  0.67155287279E+02  0.15109343416E+03  0.12509000000E+03 0.  0.
         25    1    4    4    0    0  0.82607204502E+02  0.19020927825E+02  0.75132257798E+02  0.16875458569E+03  0.12509000000E+03 0.  0.
         25    1    3    3    0    0 -0.11050651254E+03  0.24493595575E+02  0.34111899291E+02  0.17211262392E+03  0.12509000000E+03 0.  0.
<mgrwt>
<rscale>  2 0.45924777E+03</rscale>
<asrwt>0</asrwt>
<pdfrwt beam="1">  1       21 0.49144124E-01 0.45924777E+03</pdfrwt>
<pdfrwt beam="2">  1       21 0.23203029E-01 0.45924777E+03</pdfrwt>
<totfact> 0.63665098E+04</totfact>
</mgrwt>
</event>
<event>
 7    0  0.4770865E-002  0.4434808E+03  0.7546771E-02  0.1029684E+00
         21   -1    0    0  502  501  0.00000000000E+00  0.00000000000E+00  0.19925464723E+02  0.19925464723E+02  0.00000000000E+00 0. -1.
         21   -1    0    0  501  502 -0.00000000000E+00 -0.00000000000E+00 -0.24676363107E+04  0.24676363107E+04  0.00000000000E+00 0. -1.
      99926    2    1    2    0    0  0.00000000000E+00  0.17763568394E-14 -0.24477108460E+04  0.24875617754E+04  0.44348077865E+03 0.  0.
      99925    2    3    3    0    0  0.83990052350E+02  0.92594798623E+01 -0.12366296292E+04  0.12671088723E+04  0.26300568005E+03 0.  0.
         25    1    3    3    0    0 -0.83990052350E+02 -0.92594798623E+01 -0.12110812168E+04  0.12204529031E+04  0.12509000000E+03 0.  0.
         25    1    4    4    0    0  0.67377496150E+02  0.98851018199E+01 -0.50601916315E+03  0.52568083834E+03  0.12509000000E+03 0.  0.
         25    1    4    4    0    0  0.16612556200E+02 -0.62562195751E+00 -0.73061046602E+03  0.74142803399E+03  0.12509000000E+03 0.  0.
<mgrwt>
<rscale>  2 0.44348078E+03</rscale>
<asrwt>0</asrwt>
<pdfrwt beam="1">  1       21 0.29302153E-02 0.44348078E+03</pdfrwt>
<pdfrwt beam="2">  1       21 0.36288770E+00 0.44348078E+03</pdfrwt>
<totfact> 0.79482017E+03</totfact>
</mgrwt>
</event>
<event>
 6    0  0.4770865E-002  0.4515621E+03  0.7546771E-02  0.1027257E+00
         21   -1    0    0  502  501  0.00000000000E+00  0.00000000000E+00  0.49359103946E+03  0.49359103946E+03  0.00000000000E+00 0.  1.
         21   -1    0    0  501  502 -0.00000000000E+00 -0.00000000000E+00 -0.10327796430E+03  0.10327796430E+03  0.00000000000E+00 0.  1.
      99926    2    1    2    0    0 -0.14210854715E-13  0.00000000000E+00  0.39031307515E+03  0.59686900376E+03  0.45156207880E+03 0.  0.
         25    1    3    3    0    0 -0.83631497576E+02  0.47332607512E+02  0.22376174605E+03  0.27377258850E+03  0.12509000000E+03 0.  0.
         25    1    3    3    0    0  0.43224438054E+02 -0.20484156468E+02  0.12354157728E+03  0.18220313424E+03  0.12509000000E+03 0.  0.
         25    1    3    3    0    0  0.40407059521E+02 -0.26848451044E+02  0.43009751829E+02  0.14089328101E+03  0.12509000000E+03 0.  0.
<mgrwt>
<rscale>  2 0.45156208E+03</rscale>
<asrwt>0</asrwt>
<pdfrwt beam="1">  1       21 0.72586916E-01 0.45156208E+03</pdfrwt>
<pdfrwt beam="2">  1       21 0.15187936E-01 0.45156208E+03</pdfrwt>
<totfact> 0.60498219E+04</totfact>
</mgrwt>
</event>
<event>
 7    0  0.4770865E-002  0.4529732E+03  0.7546771E-02  0.1026839E+00
         21   -1    0    0  502  501  0.00000000000E+00  0.00000000000E+00  0.93884168423E+03  0.93884168423E+03  0.00000000000E+00 0. -1.
         21   -1    0    0  501  502 -0.00000000000E+00 -0.00000000000E+00 -0.54637730880E+02  0.54637730880E+02  0.00000000000E+00 0. -1.
      99926    2    1    2    0    0 -0.71054273576E-14  0.71054273576E-14  0.88420395335E+03  0.99347941511E+03  0.45297319692E+03 0.  0.
      99925    2    3    3    0    0 -0.40341071998E+02  0.60331522016E+02  0.74245864120E+03  0.79097870831E+03  0.26293571166E+03 0.  0.
         25    1    4    4    0    0 -0.48785063912E+02  0.81281409204E+01  0.42233821391E+03  0.44324160925E+03  0.12509000000E+03 0.  0.
         25    1    4    4    0    0  0.84439919140E+01  0.52203381095E+02  0.32012042729E+03  0.34773709906E+03  0.12509000000E+03 0.  0.
         25    1    3    3    0    0  0.40341071998E+02 -0.60331522016E+02  0.14174531214E+03  0.20250070680E+03  0.12509000000E+03 0.  0.
<mgrwt>
<rscale>  2 0.45297320E+03</rscale>
<asrwt>0</asrwt>
<pdfrwt beam="1">  1       21 0.13806494E+00 0.45297320E+03</pdfrwt>
<pdfrwt beam="2">  1       21 0.80349610E-02 0.45297320E+03</pdfrwt>
<totfact> 0.40051639E+04</totfact>
</mgrwt>
</event>
<event>
 7    0  0.4770865E-002  0.4676007E+03  0.7546771E-02  0.1022600E+00
         21   -1    0    0  502  501  0.00000000000E+00  0.00000000000E+00  0.36810798564E+03  0.36810798564E+03  0.00000000000E+00 0.  1.
         21   -1    0    0  501  502 -0.00000000000E+00 -0.00000000000E+00 -0.14849609689E+03  0.14849609689E+03  0.00000000000E+00 0.  1.
      99926    2    1    2    0    0 -0.14210854715E-13  0.37747582837E-14  0.21961188875E+03  0.51660408253E+03  0.46760068051E+03 0.  0.
      99925    2    3    3    0    0 -0.12429877437E+03  0.78041482505E+00  0.12738084120E+03  0.31759436269E+03  0.26303898219E+03 0.  0.
         25    1    4    4    0    0 -0.66518252217E+02 -0.39875428775E+02  0.68328071689E+02  0.16226817673E+03  0.12509000000E+03 0.  0.
         25    1    4    4    0    0 -0.57780522157E+02  0.40655843600E+02  0.59052769506E+02  0.15532618596E+03  0.12509000000E+03 0.  0.
         25    1    3    3    0    0  0.12429877437E+03 -0.78041482505E+00  0.92231047555E+02  0.19900971984E+03  0.12509000000E+03 0.  0.
<mgrwt>
<rscale>  2 0.46760068E+03</rscale>
<asrwt>0</asrwt>
<pdfrwt beam="1">  1       21 0.54133527E-01 0.46760068E+03</pdfrwt>
<pdfrwt beam="2">  1       21 0.21837661E-01 0.46760068E+03</pdfrwt>
<totfact> 0.58089094E+04</totfact>
</mgrwt>
</event>
<event>
 7    0  0.4770865E-002  0.4551163E+03  0.7546771E-02  0.1026207E+00
         21   -1    0    0  502  501  0.00000000000E+00  0.00000000000E+00  0.61904370381E+03  0.61904370381E+03  0.00000000000E+00 0. -1.
         21   -1    0    0  501  502 -0.00000000000E+00 -0.00000000000E+00 -0.83649510573E+02  0.83649510573E+02  0.00000000000E+00 0. -1.
      99926    2    1    2    0    0  0.00000000000E+00  0.00000000000E+00  0.53539419323E+03  0.70269321438E+03  0.45511626140E+03 0.  0.
      99925    2    3    3    0    0 -0.10372775827E+03  0.25044964507E+02  0.39832280200E+03  0.48863067100E+03  0.26213008215E+03 0.  0.
         25    1    4    4    0    0 -0.58467876926E+02 -0.13585709667E+02  0.24831059786E+03  0.28444459082E+03  0.12509000000E+03 0.  0.
         25    1    3    3    0    0  0.10372775827E+03 -0.25044964507E+02  0.13707139124E+03  0.21406254338E+03  0.12509000000E+03 0.  0.
         25    1    4    4    0    0 -0.45259881347E+02  0.38630674174E+02  0.15001220413E+03  0.20418608017E+03  0.12509000000E+03 0.  0.
<mgrwt>
<rscale>  2 0.45511626E+03</rscale>
<asrwt>0</asrwt>
<pdfrwt beam="1">  1       21 0.91035837E-01 0.45511626E+03</pdfrwt>
<pdfrwt beam="2">  1       21 0.12301399E-01 0.45511626E+03</pdfrwt>
<totfact> 0.52708734E+04</totfact>
</mgrwt>
</event>
<event>
 7    0  0.4770865E-002  0.4599424E+03  0.7546771E-02  0.1024798E+00
         21   -1    0    0  502  501  0.00000000000E+00  0.00000000000E+00  0.17459259962E+03  0.17459259962E+03  0.00000000000E+00 0. -1.
         21   -1    0    0  501  502 -0.00000000000E+00 -0.00000000000E+00 -0.30291526066E+03  0.30291526066E+03  0.00000000000E+00 0. -1.
      99926    2    1    2    0    0  0.00000000000E+00  0.00000000000E+00 -0.12832266104E+03  0.47750786028E+03  0.45994244346E+03 0.  0.
      99925    2    3    3    0    0 -0.76146925630E+02 -0.72659550284E+02 -0.13485991805E+03  0.31389854404E+03  0.26318688023E+03 0.  0.
         25    1    4    4    0    0 -0.53250770373E+02  0.20021218581E+01 -0.62879388074E+02  0.14980313275E+03  0.12509000000E+03 0.  0.
         25    1    3    3    0    0  0.76146925630E+02  0.72659550284E+02  0.65372570027E+01  0.16360931624E+03  0.12509000000E+03 0.  0.
         25    1    4    4    0    0 -0.22896155257E+02 -0.74661672142E+02 -0.71980529971E+02  0.16409541129E+03  0.12509000000E+03 0.  0.
<mgrwt>
<rscale>  2 0.45994244E+03</rscale>
<asrwt>0</asrwt>
<pdfrwt beam="1">  1       21 0.25675383E-01 0.45994244E+03</pdfrwt>
<pdfrwt beam="2">  1       21 0.44546361E-01 0.45994244E+03</pdfrwt>
<totfact> 0.64321915E+04</totfact>
</mgrwt>
</event>
<event>
 7    0  0.4770865E-002  0.4534239E+03  0.7546771E-02  0.1026706E+00
         21   -1    0    0  502  501  0.00000000000E+00  0.00000000000E+00  0.60905495453E+02  0.60905495453E+02  0.00000000000E+00 0.  1.
         21   -1    0    0  501  502 -0.00000000000E+00 -0.00000000000E+00 -0.84390254017E+03  0.84390254017E+03  0.00000000000E+00 0.  1.
      99926    2    1    2    0    0  0.00000000000E+00  0.00000000000E+00 -0.78299704472E+03  0.90480803563E+03  0.45342387376E+03 0.  0.
      99925    2    3    3    0    0  0.10551811356E+03  0.35318885960E+02 -0.51041198995E+03  0.58491490319E+03  0.26310368393E+03 0.  0.
         25    1    3    3    0    0 -0.10551811356E+03 -0.35318885960E+02 -0.27258505477E+03  0.31989313243E+03  0.12509000000E+03 0.  0.
         25    1    4    4    0    0  0.13606384620E+02  0.23162102243E+02 -0.19600869602E+03  0.23406950613E+03  0.12509000000E+03 0.  0.
         25    1    4    4    0    0  0.91911728942E+02  0.12156783717E+02 -0.31440329393E+03  0.35084539707E+03  0.12509000000E+03 0.  0.
<mgrwt>
<rscale>  2 0.45342387E+03</rscale>
<asrwt>0</asrwt>
<pdfrwt beam="1">  1       21 0.89566911E-02 0.45342387E+03</pdfrwt>
<pdfrwt beam="2">  1       21 0.12410331E+00 0.45342387E+03</pdfrwt>
<totfact> 0.43561517E+04</totfact>
</mgrwt>
</event>
<event>
 7    0  0.4770865E-002  0.4608659E+03  0.7546771E-02  0.1024530E+00
         21   -1    0    0  502  501  0.00000000000E+00  0.00000000000E+00  0.79840312858E+03  0.79840312858E+03  0.00000000000E+00 0. -1.
         21   -1    0    0  501  502 -0.00000000000E+00 -0.00000000000E+00 -0.66506920450E+02  0.66506920450E+02  0.00000000000E+00 0. -1.
      99926    2    1    2    0    0 -0.14210854715E-13  0.00000000000E+00  0.73189620813E+03  0.86491004903E+03  0.46086585189E+03 0.  0.
      99925    2    3    3    0    0 -0.88531631991E+02 -0.59731915238E+02  0.55499189029E+03  0.62335591983E+03  0.26296549763E+03 0.  0.
         25    1    4    4    0    0 -0.47149649629E+02 -0.51011476033E+02  0.21145292378E+03  0.25531374272E+03  0.12509000000E+03 0.  0.
         25    1    4    4    0    0 -0.41381982362E+02 -0.87204392046E+01  0.34353896651E+03  0.36804217711E+03  0.12509000000E+03 0.  0.
         25    1    3    3    0    0  0.88531631991E+02  0.59731915238E+02  0.17690431784E+03  0.24155412920E+03  0.12509000000E+03 0.  0.
<mgrwt>
<rscale>  2 0.46086585E+03</rscale>
<asrwt>0</asrwt>
<pdfrwt beam="1">  1       21 0.11741222E+00 0.46086585E+03</pdfrwt>
<pdfrwt beam="2">  1       21 0.97804300E-02 0.46086585E+03</pdfrwt>
<totfact> 0.42777244E+04</totfact>
</mgrwt>
</event>
<event>
 7    0  0.4770865E-002  0.4503632E+03  0.7546771E-02  0.1027614E+00
         21   -1    0    0  502  501  0.00000000000E+00  0.00000000000E+00  0.75169493958E+03  0.75169493958E+03  0.00000000000E+00 0.  1.
         21   -1    0    0  501  502 -0.00000000000E+00 -0.00000000000E+00 -0.67456544221E+02  0.67456544221E+02  0.00000000000E+00 0.  1.
      99926    2    1    2    0    0  0.00000000000E+00  0.00000000000E+00  0.68423839536E+03  0.81915148380E+03  0.45036315539E+03 0.  0.
      99925    2    3    3    0    0  0.19075911509E+02 -0.66763982772E+02  0.58456797886E+03  0.64478686634E+03  0.26307615116E+03 0.  0.
         25    1    4    4    0    0  0.11749986010E+02 -0.47813839901E+02  0.39062788932E+03  0.41311243199E+03  0.12509000000E+03 0.  0.
         25    1    3    3    0    0 -0.19075911509E+02  0.66763982772E+02  0.99670416498E+02  0.17436461746E+03  0.12509000000E+03 0.  0.
         25    1    4    4    0    0  0.73259254989E+01 -0.18950142871E+02  0.19394008954E+03  0.23167443435E+03  0.12509000000E+03 0.  0.
<mgrwt>
<rscale>  2 0.45036316E+03</rscale>
<asrwt>0</asrwt>
<pdfrwt beam="1">  1       21 0.11054337E+00 0.45036316E+03</pdfrwt>
<pdfrwt beam="2">  1       21 0.99200804E-02 0.45036316E+03</pdfrwt>
<totfact> 0.48596550E+04</totfact>
</mgrwt>
</event>
<event>
 7    0  0.4770865E-002  0.4383748E+03  0.7546771E-02  0.1031247E+00
         21   -1    0    0  502  501  0.00000000000E+00  0.00000000000E+00  0.72323392285E+03  0.72323392285E+03  0.00000000000E+00 0. -1.
         21   -1    0    0  501  502 -0.00000000000E+00 -0.00000000000E+00 -0.66428183705E+02  0.66428183705E+02  0.00000000000E+00 0. -1.
      99926    2    1    2    0    0  0.00000000000E+00 -0.71054273576E-14  0.65680573915E+03  0.78966210656E+03  0.43837479804E+03 0.  0.
      99925    2    3    3    0    0  0.76442908460E+02  0.44402403846E+02  0.34882197093E+03  0.44569030349E+03  0.26296004925E+03 0.  0.
         25    1    3    3    0    0 -0.76442908460E+02 -0.44402403846E+02  0.30798376822E+03  0.34397180307E+03  0.12509000000E+03 0.  0.
         25    1    4    4    0    0  0.39296873131E+02 -0.17834690465E+02  0.15301801629E+03  0.20229765652E+03  0.12509000000E+03 0.  0.
         25    1    4    4    0    0  0.37146035330E+02  0.62237094311E+02  0.19580395463E+03  0.24339264697E+03  0.12509000000E+03 0.  0.
<mgrwt>
<rscale>  2 0.43837480E+03</rscale>
<asrwt>0</asrwt>
<pdfrwt beam="1">  1       21 0.10635793E+00 0.43837480E+03</pdfrwt>
<pdfrwt beam="2">  1       21 0.97688509E-02 0.43837480E+03</pdfrwt>
<totfact> 0.55116576E+04</totfact>
</mgrwt>
</event>
<event>
 7    0  0.4770865E-002  0.4530095E+03  0.7546771E-02  0.1026828E+00
         21   -1    0    0  502  501  0.00000000000E+00  0.00000000000E+00  0.51456870715E+03  0.51456870715E+03  0.00000000000E+00 0.  1.
         21   -1    0    0  501  502 -0.00000000000E+00 -0.00000000000E+00 -0.99703680085E+02  0.99703680085E+02  0.00000000000E+00 0.  1.
      99926    2    1    2    0    0  0.00000000000E+00  0.00000000000E+00  0.41486502707E+03  0.61427238724E+03  0.45300946462E+03 0.  0.
      99925    2    3    3    0    0 -0.44788107600E+02 -0.39026324471E+02  0.13378433917E+03  0.30093089654E+03  0.26292988894E+03 0.  0.
         25    1    4    4    0    0 -0.40137846520E+02  0.11074011765E+02  0.88127926808E+02  0.15858032679E+03  0.12509000000E+03 0.  0.
         25    1    3    3    0    0  0.44788107600E+02  0.39026324471E+02  0.28108068790E+03  0.31334149070E+03  0.12509000000E+03 0.  0.
         25    1    4    4    0    0 -0.46502610797E+01 -0.50100336236E+02  0.45656412360E+02  0.14235056975E+03  0.12509000000E+03 0.  0.
<mgrwt>
<rscale>  2 0.45300946E+03</rscale>
<asrwt>0</asrwt>
<pdfrwt beam="1">  1       21 0.75671868E-01 0.45300946E+03</pdfrwt>
<pdfrwt beam="2">  1       21 0.14662306E-01 0.45300946E+03</pdfrwt>
<totfact> 0.58726051E+04</totfact>
</mgrwt>
</event>
<event>
 7    0  0.4770865E-002  0.4510659E+03  0.7546771E-02  0.1027405E+00
         21   -1    0    0  502  501  0.00000000000E+00  0.00000000000E+00  0.55359174053E+02  0.55359174053E+02  0.00000000000E+00 0. -1.
         21   -1    0    0  501  502 -0.00000000000E+00 -0.00000000000E+00 -0.91882010020E+03  0.91882010020E+03  0.00000000000E+00 0. -1.
      99926    2    1    2    0    0  0.00000000000E+00 -0.14210854715E-13 -0.86346092615E+03  0.97417927425E+03  0.45106594574E+03 0.  0.
      99925    2    3    3    0    0 -0.70684425659E+02 -0.82029438395E+02 -0.51027140142E+03  0.58415944748E+03  0.26294531786E+03 0.  0.
         25    1    4    4    0    0 -0.45389949844E+02 -0.13465988817E+01 -0.25256304504E+03  0.28547795133E+03  0.12509000000E+03 0.  0.
         25    1    4    4    0    0 -0.25294475815E+02 -0.80682839513E+02 -0.25770835638E+03  0.29868149616E+03  0.12509000000E+03 0.  0.
         25    1    3    3    0    0  0.70684425659E+02  0.82029438395E+02 -0.35318952473E+03  0.39001982677E+03  0.12509000000E+03 0.  0.
<mgrwt>
<rscale>  2 0.45106595E+03</rscale>
<asrwt>0</asrwt>
<pdfrwt beam="1">  1       21 0.81410562E-02 0.45106595E+03</pdfrwt>
<pdfrwt beam="2">  1       21 0.13512058E+00 0.45106595E+03</pdfrwt>
<totfact> 0.41436652E+04</totfact>
</mgrwt>
</event>
<event>
 7    0  0.4770865E-002  0.4650949E+03  0.7546771E-02  0.1023314E+00
         21   -1    0    0  502  501  0.00000000000E+00  0.00000000000E+00  0.16768645349E+03  0.16768645349E+03  0.00000000000E+00 0.  1.
         21   -1    0    0  501  502 -0.00000000000E+00 -0.00000000000E+00 -0.32249658999E+03  0.32249658999E+03  0.00000000000E+00 0.  1.
      99926    2    1    2    0    0 -0.14210854715E-13  0.71054273576E-14 -0.15481013650E+03  0.49018304347E+03  0.46509486962E+03 0.  0.
      99925    2    3    3    0    0 -0.96953030281E+02  0.62135115866E+02 -0.52519395192E+02  0.29176034678E+03  0.26287858486E+03 0.  0.
         25    1    4    4    0    0 -0.59867365774E+02  0.71687976247E+02 -0.31596325629E+02  0.15927681349E+03  0.12509000000E+03 0.  0.
         25    1    3    3    0    0  0.96953030281E+02 -0.62135115866E+02 -0.10229074131E+03  0.19842269669E+03  0.12509000000E+03 0.  0.
         25    1    4    4    0    0 -0.37085664507E+02 -0.95528603805E+01 -0.20923069562E+02  0.13248353329E+03  0.12509000000E+03 0.  0.
<mgrwt>
<rscale>  2 0.46509487E+03</rscale>
<asrwt>0</asrwt>
<pdfrwt beam="1">  1       21 0.24659773E-01 0.46509487E+03</pdfrwt>
<pdfrwt beam="2">  1       21 0.47425968E-01 0.46509487E+03</pdfrwt>
<totfact> 0.60934628E+04</totfact>
</mgrwt>
</event>
<event>
 7    0  0.4770865E-002  0.4515954E+03  0.7546771E-02  0.1027247E+00
         21   -1    0    0  502  501  0.00000000000E+00  0.00000000000E+00  0.57887998557E+02  0.57887998557E+02  0.00000000000E+00 0. -1.
         21   -1    0    0  501  502 -0.00000000000E+00 -0.00000000000E+00 -0.88074566856E+03  0.88074566856E+03  0.00000000000E+00 0. -1.
      99926    2    1    2    0    0  0.00000000000E+00  0.00000000000E+00 -0.82285767000E+03  0.93863366712E+03  0.45159541180E+03 0.  0.
      99925    2    3    3    0    0  0.78975364962E+02  0.33482164634E+02 -0.66219385277E+03  0.71768450127E+03  0.26308208054E+03 0.  0.
         25    1    4    4    0    0  0.28466269392E+02 -0.22112467714E+02 -0.28826131074E+03  0.31629318850E+03  0.12509000000E+03 0.  0.
         25    1    4    4    0    0  0.50509095570E+02  0.55594632348E+02 -0.37393254203E+03  0.40139131277E+03  0.12509000000E+03 0.  0.
         25    1    3    3    0    0 -0.78975364962E+02 -0.33482164634E+02 -0.16066381724E+03  0.22094916585E+03  0.12509000000E+03 0.  0.
<mgrwt>
<rscale>  2 0.45159541E+03</rscale>
<asrwt>0</asrwt>
<pdfrwt beam="1">  1       21 0.85129403E-02 0.45159541E+03</pdfrwt>
<pdfrwt beam="2">  1       21 0.12952143E+00 0.45159541E+03</pdfrwt>
<totfact> 0.42730987E+04</totfact>
</mgrwt>
</event>
<event>
 6    0  0.4770865E-002  0.4835381E+03  0.7546771E-02  0.1018167E+00
         21   -1    0    0  502  501  0.00000000000E+00  0.00000000000E+00  0.68040620149E+02  0.68040620149E+02  0.00000000000E+00 0. -1.
         21   -1    0    0  501  502 -0.00000000000E+00 -0.00000000000E+00 -0.85907920239E+03  0.85907920239E+03  0.00000000000E+00 0. -1.
      99926    2    1    2    0    0  0.00000000000E+00  0.00000000000E+00 -0.79103858224E+03  0.92711982253E+03  0.48353813371E+03 0.  0.
         25    1    3    3    0    0  0.31160894090E+02  0.13324829095E+03 -0.38080566217E+03  0.42354051613E+03  0.12509000000E+03 0.  0.
         25    1    3    3    0    0 -0.44160170543E+02 -0.74404728110E+02 -0.23636084096E+03  0.28106963455E+03  0.12509000000E+03 0.  0.
         25    1    3    3    0    0  0.12999276453E+02 -0.58843562840E+02 -0.17387207910E+03  0.22250967185E+03  0.12509000000E+03 0.  0.
<mgrwt>
<rscale>  2 0.48353813E+03</rscale>
<asrwt>0</asrwt>
<pdfrwt beam="1">  1       21 0.10005974E-01 0.48353813E+03</pdfrwt>
<pdfrwt beam="2">  1       21 0.12633517E+00 0.48353813E+03</pdfrwt>
<totfact> 0.33860773E+04</totfact>
</mgrwt>
</event>
<event>
 7    0  0.4770865E-002  0.4546331E+03  0.7546771E-02  0.1026349E+00
         21   -1    0    0  502  501  0.00000000000E+00  0.00000000000E+00  0.55329543290E+03  0.55329543290E+03  0.00000000000E+00 0. -1.
         21   -1    0    0  501  502 -0.00000000000E+00 -0.00000000000E+00 -0.93391018308E+02  0.93391018308E+02  0.00000000000E+00 0. -1.
      99926    2    1    2    0    0  0.00000000000E+00  0.00000000000E+00  0.45990441459E+03  0.64668645121E+03  0.45463314399E+03 0.  0.
      99925    2    3    3    0    0  0.25297361891E+02 -0.83948415733E+02  0.18827468272E+03  0.33504962354E+03  0.26291367606E+03 0.  0.
         25    1    3    3    0    0 -0.25297361891E+02  0.83948415733E+02  0.27162973188E+03  0.31163682767E+03  0.12509000000E+03 0.  0.
         25    1    4    4    0    0 -0.18191476533E+02 -0.68513485276E+02  0.10045106310E+03  0.17539370473E+03  0.12509000000E+03 0.  0.
         25    1    4    4    0    0  0.43488838424E+02 -0.15434930458E+02  0.87823619622E+02  0.15965591880E+03  0.12509000000E+03 0.  0.
<mgrwt>
<rscale>  2 0.45463314E+03</rscale>
<asrwt>0</asrwt>
<pdfrwt beam="1">  1       21 0.81366974E-01 0.45463314E+03</pdfrwt>
<pdfrwt beam="2">  1       21 0.13733974E-01 0.45463314E+03</pdfrwt>
<totfact> 0.56054857E+04</totfact>
</mgrwt>
</event>
<event>
 7    0  0.4770865E-002  0.4539172E+03  0.7546771E-02  0.1026560E+00
         21   -1    0    0  502  501  0.00000000000E+00  0.00000000000E+00  0.21339737773E+03  0.21339737773E+03  0.00000000000E+00 0. -1.
         21   -1    0    0  501  502 -0.00000000000E+00 -0.00000000000E+00 -0.24138160460E+03  0.24138160460E+03  0.00000000000E+00 0. -1.
      99926    2    1    2    0    0  0.14210854715E-13  0.00000000000E+00 -0.27984226869E+02  0.45477898233E+03  0.45391717947E+03 0.  0.
      99925    2    3    3    0    0 -0.10140958766E+03 -0.46478127253E+02 -0.66470844807E+01  0.28582069598E+03  0.26306874716E+03 0.  0.
         25    1    4    4    0    0 -0.37022979375E+02 -0.12394063518E+02 -0.40499846083E+02  0.13715706123E+03  0.12509000000E+03 0.  0.
         25    1    4    4    0    0 -0.64386608289E+02 -0.34084063735E+02  0.33852761603E+02  0.14866363475E+03  0.12509000000E+03 0.  0.
         25    1    3    3    0    0  0.10140958766E+03  0.46478127253E+02 -0.21337142388E+02  0.16895828636E+03  0.12509000000E+03 0.  0.
<mgrwt>
<rscale>  2 0.45391718E+03</rscale>
<asrwt>0</asrwt>
<pdfrwt beam="1">  1       21 0.31381968E-01 0.45391718E+03</pdfrwt>
<pdfrwt beam="2">  1       21 0.35497295E-01 0.45391718E+03</pdfrwt>
<totfact> 0.69157588E+04</totfact>
</mgrwt>
</event>
<event>
 7    0  0.4770865E-002  0.4561680E+03  0.7546771E-02  0.1025898E+00
         21   -1    0    0  502  501  0.00000000000E+00  0.00000000000E+00  0.91847933105E+03  0.91847933105E+03  0.00000000000E+00 0.  1.
         21   -1    0    0  501  502 -0.00000000000E+00 -0.00000000000E+00 -0.56639616219E+02  0.56639616219E+02  0.00000000000E+00 0.  1.
      99926    2    1    2    0    0  0.00000000000E+00  0.00000000000E+00  0.86183971483E+03  0.97511894727E+03  0.45616802525E+03 0.  0.
      99925    2    3    3    0    0 -0.89525172829E+01  0.11151287001E+03  0.58772142856E+03  0.65371015661E+03  0.26344871138E+03 0.  0.
         25    1    3    3    0    0  0.89525172829E+01 -0.11151287001E+03  0.27411828627E+03  0.32140879066E+03  0.12509000000E+03 0.  0.
         25    1    4    4    0    0 -0.36469531745E+02  0.40784461888E+02  0.33394655322E+03  0.36077861298E+03  0.12509000000E+03 0.  0.
         25    1    4    4    0    0  0.27517014462E+02  0.70728408119E+02  0.25377487534E+03  0.29293154363E+03  0.12509000000E+03 0.  0.
<mgrwt>
<rscale>  2 0.45616803E+03</rscale>
<asrwt>0</asrwt>
<pdfrwt beam="1">  1       21 0.13507048E+00 0.45616803E+03</pdfrwt>
<pdfrwt beam="2">  1       21 0.83293559E-02 0.45616803E+03</pdfrwt>
<totfact> 0.39775589E+04</totfact>
</mgrwt>
</event>
<event>
 7    0  0.4770865E-002  0.4522066E+03  0.7546771E-02  0.1027066E+00
         21   -1    0    0  502  501  0.00000000000E+00  0.00000000000E+00  0.23771709768E+03  0.23771709768E+03  0.00000000000E+00 0.  1.
         21   -1    0    0  501  502 -0.00000000000E+00 -0.00000000000E+00 -0.21505689563E+03  0.21505689563E+03  0.00000000000E+00 0.  1.
      99926    2    1    2    0    0  0.00000000000E+00 -0.14210854715E-13  0.22660202047E+02  0.45277399331E+03  0.45220659467E+03 0.  0.
      99925    2    3    3    0    0  0.15426631486E+02 -0.75773678579E+02 -0.64810089937E+02  0.28166528107E+03  0.26297405096E+03 0.  0.
         25    1    3    3    0    0 -0.15426631486E+02  0.75773678579E+02  0.87470291983E+02  0.17110871224E+03  0.12509000000E+03 0.  0.
         25    1    4    4    0    0 -0.11997932359E+02 -0.15763464448E+01 -0.37635494765E+02  0.13118831432E+03  0.12509000000E+03 0.  0.
         25    1    4    4    0    0  0.27424563845E+02 -0.74197332134E+02 -0.27174595172E+02  0.15047696674E+03  0.12509000000E+03 0.  0.
<mgrwt>
<rscale>  2 0.45220659E+03</rscale>
<asrwt>0</asrwt>
<pdfrwt beam="1">  1       21 0.34958397E-01 0.45220659E+03</pdfrwt>
<pdfrwt beam="2">  1       21 0.31626014E-01 0.45220659E+03</pdfrwt>
<totfact> 0.70262211E+04</totfact>
</mgrwt>
</event>
<event>
 7    0  0.4770865E-002  0.4422379E+03  0.7546771E-02  0.1030062E+00
         21   -1    0    0  502  501  0.00000000000E+00  0.00000000000E+00  0.32417619338E+02  0.32417619338E+02  0.00000000000E+00 0.  1.
         21   -1    0    0  501  502 -0.00000000000E+00 -0.00000000000E+00 -0.15082410879E+04  0.15082410879E+04  0.00000000000E+00 0.  1.
      99926    2    1    2    0    0  0.00000000000E+00  0.00000000000E+00 -0.14758234685E+04  0.15406587072E+04  0.44223787923E+03 0.  0.
      99925    2    3    3    0    0  0.71621984724E+02  0.69855715149E+02 -0.94010401823E+03  0.98150544810E+03  0.26371926348E+03 0.  0.
         25    1    4    4    0    0  0.77605708980E+02  0.46230792507E+02 -0.53804123805E+03  0.55972833963E+03  0.12509000000E+03 0.  0.
         25    1    4    4    0    0 -0.59837242562E+01  0.23624922642E+02 -0.40206278018E+03  0.42177710847E+03  0.12509000000E+03 0.  0.
         25    1    3    3    0    0 -0.71621984724E+02 -0.69855715149E+02 -0.53571945029E+03  0.55915325909E+03  0.12509000000E+03 0.  0.
<mgrwt>
<rscale>  2 0.44223788E+03</rscale>
<asrwt>0</asrwt>
<pdfrwt beam="1">  1       21 0.47672972E-02 0.44223788E+03</pdfrwt>
<pdfrwt beam="2">  1       21 0.22180015E+00 0.44223788E+03</pdfrwt>
<totfact> 0.25207548E+04</totfact>
</mgrwt>
</event>
<event>
 7    0  0.4770865E-002  0.4605335E+03  0.7546771E-02  0.1024627E+00
         21   -1    0    0  502  501  0.00000000000E+00  0.00000000000E+00  0.14339110443E+03  0.14339110443E+03  0.00000000000E+00 0. -1.
         21   -1    0    0  501  502 -0.00000000000E+00 -0.00000000000E+00 -0.36977733148E+03  0.36977733148E+03  0.00000000000E+00 0. -1.
      99926    2    1    2    0    0 -0.35527136788E-14  0.00000000000E+00 -0.22638622706E+03  0.51316843591E+03  0.46053351650E+03 0.  0.
      99925    2    3    3    0    0  0.24898509698E+02 -0.79209364806E+02 -0.48028268587E+02  0.28003086128E+03  0.26309030660E+03 0.  0.
         25    1    4    4    0    0  0.12034160348E+01 -0.43004967156E+02  0.15547806722E+02  0.13319203356E+03  0.12509000000E+03 0.  0.
         25    1    4    4    0    0  0.23695093663E+02 -0.36204397651E+02 -0.63576075310E+02  0.14683882772E+03  0.12509000000E+03 0.  0.
         25    1    3    3    0    0 -0.24898509698E+02  0.79209364806E+02 -0.17835795847E+03  0.23313757464E+03  0.12509000000E+03 0.  0.
<mgrwt>
<rscale>  2 0.46053352E+03</rscale>
<asrwt>0</asrwt>
<pdfrwt beam="1">  1       21 0.21086928E-01 0.46053352E+03</pdfrwt>
<pdfrwt beam="2">  1       21 0.54379018E-01 0.46053352E+03</pdfrwt>
<totfact> 0.61604898E+04</totfact>
</mgrwt>
</event>
<event>
 7    0  0.4770865E-002  0.4586033E+03  0.7546771E-02  0.1025187E+00
         21   -1    0    0  502  501  0.00000000000E+00  0.00000000000E+00  0.58792981645E+02  0.58792981645E+02  0.00000000000E+00 0.  1.
         21   -1    0    0  501  502 -0.00000000000E+00 -0.00000000000E+00 -0.89431171775E+03  0.89431171775E+03  0.00000000000E+00 0.  1.
      99926    2    1    2    0    0  0.00000000000E+00  0.00000000000E+00 -0.83551873610E+03  0.95310469939E+03  0.45860332492E+03 0.  0.
      99925    2    3    3    0    0  0.10733770278E+03  0.60185113346E+01 -0.61753617545E+03  0.67975234479E+03  0.26297284527E+03 0.  0.
         25    1    4    4    0    0  0.63765631240E+02  0.12679492619E+01 -0.41119311860E+03  0.43450541114E+03  0.12509000000E+03 0.  0.
         25    1    4    4    0    0  0.43572071536E+02  0.47505620727E+01 -0.20634305685E+03  0.24524693366E+03  0.12509000000E+03 0.  0.
         25    1    3    3    0    0 -0.10733770278E+03 -0.60185113346E+01 -0.21798256065E+03  0.27335235460E+03  0.12509000000E+03 0.  0.
<mgrwt>
<rscale>  2 0.45860332E+03</rscale>
<asrwt>0</asrwt>
<pdfrwt beam="1">  1       21 0.86460269E-02 0.45860332E+03</pdfrwt>
<pdfrwt beam="2">  1       21 0.13151643E+00 0.45860332E+03</pdfrwt>
<totfact> 0.39879768E+04</totfact>
</mgrwt>
</event>
<event>
 7    0  0.4770865E-002  0.4531419E+03  0.7546771E-02  0.1026789E+00
         21   -1    0    0  502  501  0.00000000000E+00  0.00000000000E+00  0.33030413407E+03  0.33030413407E+03  0.00000000000E+00 0. -1.
         21   -1    0    0  501  502 -0.00000000000E+00 -0.00000000000E+00 -0.15541551369E+03  0.15541551369E+03  0.00000000000E+00 0. -1.
      99926    2    1    2    0    0  0.00000000000E+00  0.00000000000E+00  0.17488862038E+03  0.48571964776E+03  0.45314186154E+03 0.  0.
      99925    2    3    3    0    0 -0.27082775180E+01 -0.10669205309E+03  0.14452169191E+03  0.31850664765E+03  0.26300082929E+03 0.  0.
         25    1    4    4    0    0  0.11550836494E+02 -0.67649356874E+02  0.34454757931E+02  0.14678043382E+03  0.12509000000E+03 0.  0.
         25    1    3    3    0    0  0.27082775180E+01  0.10669205309E+03  0.30366928471E+02  0.16721300011E+03  0.12509000000E+03 0.  0.
         25    1    4    4    0    0 -0.14259114012E+02 -0.39042696218E+02  0.11006693397E+03  0.17172621383E+03  0.12509000000E+03 0.  0.
<mgrwt>
<rscale>  2 0.45314186E+03</rscale>
<asrwt>0</asrwt>
<pdfrwt beam="1">  1       21 0.48574138E-01 0.45314186E+03</pdfrwt>
<pdfrwt beam="2">  1       21 0.22855223E-01 0.45314186E+03</pdfrwt>
<totfact> 0.67272926E+04</totfact>
</mgrwt>
</event>
<event>
 7    0  0.4770865E-002  0.4616654E+03  0.7546771E-02  0.1024299E+00
         21   -1    0    0  502  501  0.00000000000E+00  0.00000000000E+00  0.94527267685E+03  0.94527267685E+03  0.00000000000E+00 0.  1.
         21   -1    0    0  501  502 -0.00000000000E+00 -0.00000000000E+00 -0.56368638381E+02  0.56368638381E+02  0.00000000000E+00 0.  1.
      99926    2    1    2    0    0  0.00000000000E+00  0.00000000000E+00  0.88890403847E+03  0.10016413152E+04  0.46166539265E+03 0.  0.
      99925    2    3    3    0    0 -0.90766680408E+02  0.39990731706E+02  0.41190182709E+03  0.49863389316E+03  0.26293496412E+03 0.  0.
         25    1    3    3    0    0  0.90766680408E+02 -0.39990731706E+02  0.47700221138E+03  0.50300742207E+03  0.12509000000E+03 0.  0.
         25    1    4    4    0    0 -0.53111024243E+02  0.52824469822E+02  0.17484051453E+03  0.22765746008E+03  0.12509000000E+03 0.  0.
         25    1    4    4    0    0 -0.37655656165E+02 -0.12833738116E+02  0.23706131255E+03  0.27097643308E+03  0.12509000000E+03 0.  0.
<mgrwt>
<rscale>  2 0.46166539E+03</rscale>
<asrwt>0</asrwt>
<pdfrwt beam="1">  1       21 0.13901068E+00 0.46166539E+03</pdfrwt>
<pdfrwt beam="2">  1       21 0.82895062E-02 0.46166539E+03</pdfrwt>
<totfact> 0.37132130E+04</totfact>
</mgrwt>
</event>
<event>
 7    0  0.4770865E-002  0.4538897E+03  0.7546771E-02  0.1026568E+00
         21   -1    0    0  502  501  0.00000000000E+00  0.00000000000E+00  0.87839737290E+02  0.87839737290E+02  0.00000000000E+00 0.  1.
         21   -1    0    0  501  502 -0.00000000000E+00 -0.00000000000E+00 -0.58634026775E+03  0.58634026775E+03  0.00000000000E+00 0.  1.
      99926    2    1    2    0    0  0.00000000000E+00  0.00000000000E+00 -0.49850053046E+03  0.67418000504E+03  0.45388974468E+03 0.  0.
      99925    2    3    3    0    0 -0.54624227260E+02  0.95330402008E+02 -0.34643727521E+03  0.44869733731E+03  0.26313271005E+03 0.  0.
         25    1    3    3    0    0  0.54624227260E+02 -0.95330402008E+02 -0.15206325525E+03  0.22548266773E+03  0.12509000000E+03 0.  0.
         25    1    4    4    0    0 -0.10445316403E+02  0.20632484848E+02 -0.11387729948E+03  0.17073474018E+03  0.12509000000E+03 0.  0.
         25    1    4    4    0    0 -0.44178910857E+02  0.74697917160E+02 -0.23255997573E+03  0.27796259713E+03  0.12509000000E+03 0.  0.
<mgrwt>
<rscale>  2 0.45388974E+03</rscale>
<asrwt>0</asrwt>
<pdfrwt beam="1">  1       21 0.12917609E-01 0.45388974E+03</pdfrwt>
<pdfrwt beam="2">  1       21 0.86226509E-01 0.45388974E+03</pdfrwt>
<totfact> 0.54805733E+04</totfact>
</mgrwt>
</event>
<event>
 7    0  0.4770865E-002  0.4403686E+03  0.7546771E-02  0.1030634E+00
         21   -1    0    0  502  501  0.00000000000E+00  0.00000000000E+00  0.62259099302E+02  0.62259099302E+02  0.00000000000E+00 0.  1.
         21   -1    0    0  501  502 -0.00000000000E+00 -0.00000000000E+00 -0.77869937120E+03  0.77869937120E+03  0.00000000000E+00 0.  1.
      99926    2    1    2    0    0  0.00000000000E+00  0.00000000000E+00 -0.71644027190E+03  0.84095847050E+03  0.44036857961E+03 0.  0.
      99925    2    3    3    0    0 -0.95231914669E+02 -0.17657450557E+01 -0.40013723948E+03  0.48773424732E+03  0.26211190389E+03 0.  0.
         25    1    4    4    0    0 -0.21846139941E+02 -0.11824456521E+01 -0.13378584372E+03  0.18445815809E+03  0.12509000000E+03 0.  0.
         25    1    4    4    0    0 -0.73385774728E+02 -0.58329940359E+00 -0.26635139576E+03  0.30327608923E+03  0.12509000000E+03 0.  0.
         25    1    3    3    0    0  0.95231914669E+02  0.17657450557E+01 -0.31630303241E+03  0.35322422318E+03  0.12509000000E+03 0.  0.
<mgrwt>
<rscale>  2 0.44036858E+03</rscale>
<asrwt>0</asrwt>
<pdfrwt beam="1">  1       21 0.91557509E-02 0.44036858E+03</pdfrwt>
<pdfrwt beam="2">  1       21 0.11451460E+00 0.44036858E+03</pdfrwt>
<totfact> 0.51509420E+04</totfact>
</mgrwt>
</event>
<event>
 7    0  0.4770865E-002  0.4538925E+03  0.7546771E-02  0.1026568E+00
         21   -1    0    0  502  501  0.00000000000E+00  0.00000000000E+00  0.10664426790E+03  0.10664426790E+03  0.00000000000E+00 0.  1.
         21   -1    0    0  501  502 -0.00000000000E+00 -0.00000000000E+00 -0.48295709752E+03  0.48295709752E+03  0.00000000000E+00 0.  1.
      99926    2    1    2    0    0  0.31086244690E-14  0.00000000000E+00 -0.37631282962E+03  0.58960136541E+03  0.45389252512E+03 0.  0.
      99925    2    3    3    0    0  0.24635200942E+01  0.10519954396E+03 -0.28638020107E+03  0.40303127468E+03  0.26333927892E+03 0.  0.
         25    1    4    4    0    0  0.41775721538E+02  0.60027100895E+02 -0.14668827954E+03  0.20618783477E+03  0.12509000000E+03 0.  0.
         25    1    4    4    0    0 -0.39312201444E+02  0.45172443062E+02 -0.13969192152E+03  0.19684343991E+03  0.12509000000E+03 0.  0.
         25    1    3    3    0    0 -0.24635200942E+01 -0.10519954396E+03 -0.89932628550E+02  0.18657009074E+03  0.12509000000E+03 0.  0.
<mgrwt>
<rscale>  2 0.45389253E+03</rscale>
<asrwt>0</asrwt>
<pdfrwt beam="1">  1       21 0.15682981E-01 0.45389253E+03</pdfrwt>
<pdfrwt beam="2">  1       21 0.71023103E-01 0.45389253E+03</pdfrwt>
<totfact> 0.59845043E+04</totfact>
</mgrwt>
</event>
<event>
 7    0  0.4770865E-002  0.4654834E+03  0.7546771E-02  0.1023203E+00
         21   -1    0    0  502  501  0.00000000000E+00  0.00000000000E+00  0.28685817923E+03  0.28685817923E+03  0.00000000000E+00 0.  1.
         21   -1    0    0  501  502 -0.00000000000E+00 -0.00000000000E+00 -0.18883443794E+03  0.18883443794E+03  0.00000000000E+00 0.  1.
      99926    2    1    2    0    0  0.00000000000E+00 -0.35527136788E-14  0.98023741287E+02  0.47569261717E+03  0.46548341772E+03 0.  0.
      99925    2    3    3    0    0 -0.10986013013E+03 -0.27792210193E+02  0.12740054822E+02  0.28658293890E+03  0.26291788971E+03 0.  0.
         25    1    3    3    0    0  0.10986013013E+03  0.27792210193E+02  0.85283686464E+02  0.18910967827E+03  0.12509000000E+03 0.  0.
         25    1    4    4    0    0 -0.70588762911E+02  0.19370926343E+02  0.23533479094E+02  0.14683098779E+03  0.12509000000E+03 0.  0.
         25    1    4    4    0    0 -0.39271367217E+02 -0.47163136535E+02 -0.10793424272E+02  0.13975195111E+03  0.12509000000E+03 0.  0.
<mgrwt>
<rscale>  2 0.46548342E+03</rscale>
<asrwt>0</asrwt>
<pdfrwt beam="1">  1       21 0.42185026E-01 0.46548342E+03</pdfrwt>
<pdfrwt beam="2">  1       21 0.27769770E-01 0.46548342E+03</pdfrwt>
<totfact> 0.61718101E+04</totfact>
</mgrwt>
</event>
<event>
 7    0  0.4770865E-002  0.4429069E+03  0.7546771E-02  0.1029859E+00
         21   -1    0    0  502  501  0.00000000000E+00  0.00000000000E+00  0.45971488700E+02  0.45971488700E+02  0.00000000000E+00 0.  1.
         21   -1    0    0  501  502 -0.00000000000E+00 -0.00000000000E+00 -0.10667834108E+04  0.10667834108E+04  0.00000000000E+00 0.  1.
      99926    2    1    2    0    0 -0.71054273576E-14  0.35527136788E-14 -0.10208119221E+04  0.11127548995E+04  0.44290685935E+03 0.  0.
      99925    2    3    3    0    0  0.46636674441E+02 -0.26226472640E+02 -0.43300352643E+03  0.50940672026E+03  0.26294551808E+03 0.  0.
         25    1    3    3    0    0 -0.46636674441E+02  0.26226472640E+02 -0.58780839569E+03  0.60334817926E+03  0.12509000000E+03 0.  0.
         25    1    4    4    0    0  0.58839074773E+02  0.54188778851E+01 -0.20992460351E+03  0.25141051731E+03  0.12509000000E+03 0.  0.
         25    1    4    4    0    0 -0.12202400332E+02 -0.31645350525E+02 -0.22307892292E+03  0.25799620295E+03  0.12509000000E+03 0.  0.
<mgrwt>
<rscale>  2 0.44290686E+03</rscale>
<asrwt>0</asrwt>
<pdfrwt beam="1">  1       21 0.67605135E-02 0.44290686E+03</pdfrwt>
<pdfrwt beam="2">  1       21 0.15687990E+00 0.44290686E+03</pdfrwt>
<totfact> 0.38559908E+04</totfact>
</mgrwt>
</event>
<event>
 7    0  0.4770865E-002  0.4838308E+03  0.7546771E-02  0.1018088E+00
         21   -1    0    0  502  501  0.00000000000E+00  0.00000000000E+00  0.56744565872E+03  0.56744565872E+03  0.00000000000E+00 0. -1.
         21   -1    0    0  501  502 -0.00000000000E+00 -0.00000000000E+00 -0.10313421583E+03  0.10313421583E+03  0.00000000000E+00 0. -1.
      99926    2    1    2    0    0  0.00000000000E+00  0.00000000000E+00  0.46431144289E+03  0.67057987454E+03  0.48383080942E+03 0.  0.
      99925    2    3    3    0    0 -0.13847066060E+03  0.76638936118E+01  0.28436294554E+03  0.41123101893E+03  0.26270859716E+03 0.  0.
         25    1    4    4    0    0 -0.99396020758E+02 -0.29692795122E+01  0.11527215810E+03  0.19703696124E+03  0.12509000000E+03 0.  0.
         25    1    3    3    0    0  0.13847066060E+03 -0.76638936118E+01  0.17994849735E+03  0.25934885562E+03  0.12509000000E+03 0.  0.
         25    1    4    4    0    0 -0.39074639839E+02  0.10633173124E+02  0.16909078744E+03  0.21419405768E+03  0.12509000000E+03 0.  0.
<mgrwt>
<rscale>  2 0.48383081E+03</rscale>
<asrwt>0</asrwt>
<pdfrwt beam="1">  1       21 0.83447890E-01 0.48383081E+03</pdfrwt>
<pdfrwt beam="2">  1       21 0.15166797E-01 0.48383081E+03</pdfrwt>
<totfact> 0.43712333E+04</totfact>
</mgrwt>
</event>
<event>
 7    0  0.4770865E-002  0.4381120E+03  0.7546771E-02  0.1031328E+00
         21   -1    0    0  502  501  0.00000000000E+00  0.00000000000E+00  0.22523514952E+04  0.22523514952E+04  0.00000000000E+00 0. -1.
         21   -1    0    0  501  502 -0.00000000000E+00 -0.00000000000E+00 -0.21304634956E+02  0.21304634956E+02  0.00000000000E+00 0. -1.
      99926    2    1    2    0    0  0.00000000000E+00  0.00000000000E+00  0.22310468602E+04  0.22736561302E+04  0.43811197837E+03 0.  0.
      99925    2    3    3    0    0  0.46176661665E+02  0.63761055752E+02  0.11369481000E+04  0.11696192823E+04  0.26298389106E+03 0.  0.
         25    1    4    4    0    0  0.28870236373E+02  0.12883612016E+02  0.40297983144E+03  0.42313086706E+03  0.12509000000E+03 0.  0.
         25    1    3    3    0    0 -0.46176661665E+02 -0.63761055752E+02  0.10940987602E+04  0.11040368479E+04  0.12509000000E+03 0.  0.
         25    1    4    4    0    0  0.17306425292E+02  0.50877443736E+02  0.73396826859E+03  0.74648841520E+03  0.12509000000E+03 0.  0.
<mgrwt>
<rscale>  2 0.43811198E+03</rscale>
<asrwt>0</asrwt>
<pdfrwt beam="1">  1       21 0.33122800E+00 0.43811198E+03</pdfrwt>
<pdfrwt beam="2">  1       21 0.31330361E-02 0.43811198E+03</pdfrwt>
<totfact> 0.11123696E+04</totfact>
</mgrwt>
</event>
<event>
 7    0  0.4770865E-002  0.4563580E+03  0.7546771E-02  0.1025843E+00
         21   -1    0    0  502  501  0.00000000000E+00  0.00000000000E+00  0.74236032243E+03  0.74236032243E+03  0.00000000000E+00 0.  1.
         21   -1    0    0  501  502 -0.00000000000E+00 -0.00000000000E+00 -0.70135294555E+02  0.70135294555E+02  0.00000000000E+00 0.  1.
      99926    2    1    2    0    0  0.00000000000E+00 -0.88817841970E-15  0.67222502787E+03  0.81249561698E+03  0.45635801682E+03 0.  0.
      99925    2    3    3    0    0 -0.81491843163E+02 -0.53980035494E+01  0.27971345498E+03  0.39251597236E+03  0.26298120221E+03 0.  0.
         25    1    4    4    0    0 -0.21217226746E+02  0.16806026580E+02  0.90400393738E+02  0.15669190320E+03  0.12509000000E+03 0.  0.
         25    1    3    3    0    0  0.81491843163E+02  0.53980035494E+01  0.39251157289E+03  0.41997964462E+03  0.12509000000E+03 0.  0.
         25    1    4    4    0    0 -0.60274616417E+02 -0.22204030129E+02  0.18931306125E+03  0.23582406916E+03  0.12509000000E+03 0.  0.
<mgrwt>
<rscale>  2 0.45635802E+03</rscale>
<asrwt>0</asrwt>
<pdfrwt beam="1">  1       21 0.10917063E+00 0.45635802E+03</pdfrwt>
<pdfrwt beam="2">  1       21 0.10314014E-01 0.45635802E+03</pdfrwt>
<totfact> 0.46667049E+04</totfact>
</mgrwt>
</event>
<event>
 7    0  0.4770865E-002  0.4489443E+03  0.7546771E-02  0.1028037E+00
         21   -1    0    0  502  501  0.00000000000E+00  0.00000000000E+00  0.21545160520E+03  0.21545160520E+03  0.00000000000E+00 0. -1.
         21   -1    0    0  501  502 -0.00000000000E+00 -0.00000000000E+00 -0.23387039985E+03  0.23387039985E+03  0.00000000000E+00 0. -1.
      99926    2    1    2    0    0  0.00000000000E+00  0.00000000000E+00 -0.18418794644E+02  0.44932200505E+03  0.44894433088E+03 0.  0.
      99925    2    3    3    0    0  0.10551288039E+03  0.11454466590E+02 -0.28249211978E+02  0.28497992907E+03  0.26296647935E+03 0.  0.
         25    1    3    3    0    0 -0.10551288039E+03 -0.11454466590E+02  0.98304173336E+01  0.16434207598E+03  0.12509000000E+03 0.  0.
         25    1    4    4    0    0  0.20832298155E+02  0.13932359734E+02  0.13369722340E+02  0.12827452151E+03  0.12509000000E+03 0.  0.
         25    1    4    4    0    0  0.84680582240E+02 -0.24778931440E+01 -0.41618934318E+02  0.15670540755E+03  0.12509000000E+03 0.  0.
<mgrwt>
<rscale>  2 0.44894433E+03</rscale>
<asrwt>0</asrwt>
<pdfrwt beam="1">  1       21 0.31684060E-01 0.44894433E+03</pdfrwt>
<pdfrwt beam="2">  1       21 0.34392706E-01 0.44894433E+03</pdfrwt>
<totfact> 0.72399218E+04</totfact>
</mgrwt>
</event>
<event>
 7    0  0.4770865E-002  0.4641042E+03  0.7546771E-02  0.1023598E+00
         21   -1    0    0  502  501  0.00000000000E+00  0.00000000000E+00  0.27148463422E+03  0.27148463422E+03  0.00000000000E+00 0. -1.
         21   -1    0    0  501  502 -0.00000000000E+00 -0.00000000000E+00 -0.19834704668E+03  0.19834704668E+03  0.00000000000E+00 0. -1.
      99926    2    1    2    0    0  0.71054273576E-14  0.00000000000E+00  0.73137587541E+02  0.46983168090E+03  0.46410419268E+03 0.  0.
      99925    2    3    3    0    0 -0.49727662630E+02 -0.11086368040E+03  0.47735142779E+02  0.29360345285E+03  0.26298431056E+03 0.  0.
         25    1    3    3    0    0  0.49727662630E+02  0.11086368040E+03  0.25402444762E+02  0.17622822805E+03  0.12509000000E+03 0.  0.
         25    1    4    4    0    0 -0.11064391138E+02 -0.79505271684E+02  0.55728492162E+02  0.15873462734E+03  0.12509000000E+03 0.  0.
         25    1    4    4    0    0 -0.38663271492E+02 -0.31358408720E+02 -0.79933493831E+01  0.13486882551E+03  0.12509000000E+03 0.  0.
<mgrwt>
<rscale>  2 0.46410419E+03</rscale>
<asrwt>0</asrwt>
<pdfrwt beam="1">  1       21 0.39924211E-01 0.46410419E+03</pdfrwt>
<pdfrwt beam="2">  1       21 0.29168683E-01 0.46410419E+03</pdfrwt>
<totfact> 0.62784542E+04</totfact>
</mgrwt>
</event>
<event>
 7    0  0.4770865E-002  0.4510206E+03  0.7546771E-02  0.1027418E+00
         21   -1    0    0  502  501  0.00000000000E+00  0.00000000000E+00  0.19564074422E+03  0.19564074422E+03  0.00000000000E+00 0. -1.
         21   -1    0    0  501  502 -0.00000000000E+00 -0.00000000000E+00 -0.25994026060E+03  0.25994026060E+03  0.00000000000E+00 0. -1.
      99926    2    1    2    0    0  0.00000000000E+00  0.00000000000E+00 -0.64299516375E+02  0.45558100482E+03  0.45102064714E+03 0.  0.
      99925    2    3    3    0    0  0.10469514238E+03  0.28198625596E+02 -0.55495140232E+02  0.28980627676E+03  0.26296716931E+03 0.  0.
         25    1    4    4    0    0  0.72727443479E+02  0.45732060685E+02 -0.48543343801E+02  0.15932566252E+03  0.12509000000E+03 0.  0.
         25    1    4    4    0    0  0.31967698903E+02 -0.17533435089E+02 -0.69517964312E+01  0.13048061424E+03  0.12509000000E+03 0.  0.
         25    1    3    3    0    0 -0.10469514238E+03 -0.28198625596E+02 -0.88043761430E+01  0.16577472806E+03  0.12509000000E+03 0.  0.
<mgrwt>
<rscale>  2 0.45102065E+03</rscale>
<asrwt>0</asrwt>
<pdfrwt beam="1">  1       21 0.28770698E-01 0.45102065E+03</pdfrwt>
<pdfrwt beam="2">  1       21 0.38226509E-01 0.45102065E+03</pdfrwt>
<totfact> 0.70721615E+04</totfact>
</mgrwt>
</event>
<event>
 7    0  0.4770865E-002  0.4501707E+03  0.7546771E-02  0.1027671E+00
         21   -1    0    0  502  501  0.00000000000E+00  0.00000000000E+00  0.44515433574E+02  0.44515433574E+02  0.00000000000E+00 0. -1.
         21   -1    0    0  501  502 -0.00000000000E+00 -0.00000000000E+00 -0.11381092156E+04  0.11381092156E+04  0.00000000000E+00 0. -1.
      99926    2    1    2    0    0  0.00000000000E+00 -0.14210854715E-13 -0.10935937820E+04  0.11826246491E+04  0.45017074621E+03 0.  0.
      99925    2    3    3    0    0 -0.35639797395E+02  0.76269002020E+02 -0.51116020500E+03  0.58099059464E+03  0.26301741398E+03 0.  0.
         25    1    4    4    0    0  0.16631056169E+02  0.25698907600E+02 -0.28133104091E+03  0.30940537901E+03  0.12509000000E+03 0.  0.
         25    1    3    3    0    0  0.35639797395E+02 -0.76269002020E+02 -0.58243357698E+03  0.60163405449E+03  0.12509000000E+03 0.  0.
         25    1    4    4    0    0 -0.52270853564E+02  0.50570094419E+02 -0.22982916409E+03  0.27158521563E+03  0.12509000000E+03 0.  0.
<mgrwt>
<rscale>  2 0.45017075E+03</rscale>
<asrwt>0</asrwt>
<pdfrwt beam="1">  1       21 0.65463883E-02 0.45017075E+03</pdfrwt>
<pdfrwt beam="2">  1       21 0.16736898E+00 0.45017075E+03</pdfrwt>
<totfact> 0.33971893E+04</totfact>
</mgrwt>
</event>
<event>
 7    0  0.4770865E-002  0.4519461E+03  0.7546771E-02  0.1027143E+00
         21   -1    0    0  502  501  0.00000000000E+00  0.00000000000E+00  0.10765246802E+03  0.10765246802E+03  0.00000000000E+00 0. -1.
         21   -1    0    0  501  502 -0.00000000000E+00 -0.00000000000E+00 -0.47433942953E+03  0.47433942953E+03  0.00000000000E+00 0. -1.
      99926    2    1    2    0    0 -0.44408920985E-15 -0.71054273576E-14 -0.36668696152E+03  0.58199189755E+03  0.45194605991E+03 0.  0.
      99925    2    3    3    0    0 -0.32102067750E+01 -0.50370510297E+02 -0.35774613595E+03  0.44680706039E+03  0.26288164199E+03 0.  0.
         25    1    3    3    0    0  0.32102067750E+01  0.50370510297E+02 -0.89408255695E+01  0.13518483716E+03  0.12509000000E+03 0.  0.
         25    1    4    4    0    0  0.31415021263E+02 -0.11173420608E+02 -0.14351634329E+03  0.19327751494E+03  0.12509000000E+03 0.  0.
         25    1    4    4    0    0 -0.34625228038E+02 -0.39197089690E+02 -0.21422979265E+03  0.25352954545E+03  0.12509000000E+03 0.  0.
<mgrwt>
<rscale>  2 0.45194606E+03</rscale>
<asrwt>0</asrwt>
<pdfrwt beam="1">  1       21 0.15831246E-01 0.45194606E+03</pdfrwt>
<pdfrwt beam="2">  1       21 0.69755796E-01 0.45194606E+03</pdfrwt>
<totfact> 0.61266383E+04</totfact>
</mgrwt>
</event>
<event>
 7    0  0.4770865E-002  0.4404784E+03  0.7546771E-02  0.1030600E+00
         21   -1    0    0  502  501  0.00000000000E+00  0.00000000000E+00  0.40730798109E+02  0.40730798109E+02  0.00000000000E+00 0.  1.
         21   -1    0    0  501  502 -0.00000000000E+00 -0.00000000000E+00 -0.11908755881E+04  0.11908755881E+04  0.00000000000E+00 0.  1.
      99926    2    1    2    0    0  0.00000000000E+00  0.14210854715E-13 -0.11501447899E+04  0.12316063862E+04  0.44047843602E+03 0.  0.
      99925    2    3    3    0    0 -0.18888675840E+02 -0.50015500633E+02 -0.96651677140E+03  0.10030782923E+04  0.26296969171E+03 0.  0.
         25    1    3    3    0    0  0.18888675840E+02  0.50015500633E+02 -0.18362801854E+03  0.22852809384E+03  0.12509000000E+03 0.  0.
         25    1    4    4    0    0  0.12058816235E+02 -0.58451679014E+02 -0.53413740614E+03  0.55182632282E+03  0.12509000000E+03 0.  0.
         25    1    4    4    0    0 -0.30947492075E+02  0.84361783809E+01 -0.43237936527E+03  0.45125196950E+03  0.12509000000E+03 0.  0.
<mgrwt>
<rscale>  2 0.44047844E+03</rscale>
<asrwt>0</asrwt>
<pdfrwt beam="1">  1       21 0.59898225E-02 0.44047844E+03</pdfrwt>
<pdfrwt beam="2">  1       21 0.17512878E+00 0.44047844E+03</pdfrwt>
<totfact> 0.34954711E+04</totfact>
</mgrwt>
</event>
<event>
 7    0  0.4770865E-002  0.4579572E+03  0.7546771E-02  0.1025375E+00
         21   -1    0    0  502  501  0.00000000000E+00  0.00000000000E+00  0.20047577762E+03  0.20047577762E+03  0.00000000000E+00 0. -1.
         21   -1    0    0  501  502 -0.00000000000E+00 -0.00000000000E+00 -0.26153387751E+03  0.26153387751E+03  0.00000000000E+00 0. -1.
      99926    2    1    2    0    0  0.17763568394E-14 -0.71054273576E-14 -0.61058099887E+02  0.46200965513E+03  0.45795723585E+03 0.  0.
      99925    2    3    3    0    0  0.40532409064E+01 -0.63263549274E+02  0.59693570408E+02  0.27694972049E+03  0.26290515382E+03 0.  0.
         25    1    4    4    0    0  0.34268500276E+02 -0.47897727129E+02  0.11729619958E+02  0.13875739425E+03  0.12509000000E+03 0.  0.
         25    1    4    4    0    0 -0.30215259369E+02 -0.15365822145E+02  0.47963950450E+02  0.13819232624E+03  0.12509000000E+03 0.  0.
         25    1    3    3    0    0 -0.40532409064E+01  0.63263549274E+02 -0.12075167029E+03  0.18505993464E+03  0.12509000000E+03 0.  0.
<mgrwt>
<rscale>  2 0.45795724E+03</rscale>
<asrwt>0</asrwt>
<pdfrwt beam="1">  1       21 0.29481732E-01 0.45795724E+03</pdfrwt>
<pdfrwt beam="2">  1       21 0.38460864E-01 0.45795724E+03</pdfrwt>
<totfact> 0.66453274E+04</totfact>
</mgrwt>
</event>
<event>
 7    0  0.4770865E-002  0.4556269E+03  0.7546771E-02  0.1026057E+00
         21   -1    0    0  502  501  0.00000000000E+00  0.00000000000E+00  0.36887550751E+02  0.36887550751E+02  0.00000000000E+00 0. -1.
         21   -1    0    0  501  502 -0.00000000000E+00 -0.00000000000E+00 -0.14069508569E+04  0.14069508569E+04  0.00000000000E+00 0. -1.
      99926    2    1    2    0    0  0.00000000000E+00  0.17763568394E-14 -0.13700633061E+04  0.14438384076E+04  0.45562691377E+03 0.  0.
      99925    2    3    3    0    0  0.79791605526E+02 -0.16960867523E+01 -0.11187165073E+04  0.11519612101E+04  0.26290383982E+03 0.  0.
         25    1    4    4    0    0  0.75436425306E+02  0.20764330574E+02 -0.61082162639E+03  0.62838871653E+03  0.12509000000E+03 0.  0.
         25    1    3    3    0    0 -0.79791605526E+02  0.16960867523E+01 -0.25134679886E+03  0.29187719750E+03  0.12509000000E+03 0.  0.
         25    1    4    4    0    0  0.43551802205E+01 -0.22460417327E+02 -0.50789488088E+03  0.52357249361E+03  0.12509000000E+03 0.  0.
<mgrwt>
<rscale>  2 0.45562691E+03</rscale>
<asrwt>0</asrwt>
<pdfrwt beam="1">  1       21 0.54246416E-02 0.45562691E+03</pdfrwt>
<pdfrwt beam="2">  1       21 0.20690447E+00 0.45562691E+03</pdfrwt>
<totfact> 0.25064549E+04</totfact>
</mgrwt>
</event>
<event>
 7    0  0.4770865E-002  0.4559131E+03  0.7546771E-02  0.1025973E+00
         21   -1    0    0  502  501  0.00000000000E+00  0.00000000000E+00  0.53556956370E+03  0.53556956370E+03  0.00000000000E+00 0. -1.
         21   -1    0    0  501  502 -0.00000000000E+00 -0.00000000000E+00 -0.97026048838E+02  0.97026048838E+02  0.00000000000E+00 0. -1.
      99926    2    1    2    0    0 -0.35527136788E-14  0.00000000000E+00  0.43854351486E+03  0.63259561254E+03  0.45591314368E+03 0.  0.
      99925    2    3    3    0    0 -0.21811958062E+02 -0.71254270978E+02  0.39539425082E+03  0.48073284642E+03  0.26308653214E+03 0.  0.
         25    1    4    4    0    0 -0.22084001262E+02 -0.65772533681E+01  0.14047725759E+03  0.18950549167E+03  0.12509000000E+03 0.  0.
         25    1    4    4    0    0  0.27204319951E+00 -0.64677017610E+02  0.25491699323E+03  0.29122735475E+03  0.12509000000E+03 0.  0.
         25    1    3    3    0    0  0.21811958062E+02  0.71254270978E+02  0.43149264043E+02  0.15186276612E+03  0.12509000000E+03 0.  0.
<mgrwt>
<rscale>  2 0.45591314E+03</rscale>
<asrwt>0</asrwt>
<pdfrwt beam="1">  1       21 0.78760228E-01 0.45591314E+03</pdfrwt>
<pdfrwt beam="2">  1       21 0.14268537E-01 0.45591314E+03</pdfrwt>
<totfact> 0.56308503E+04</totfact>
</mgrwt>
</event>
<event>
 6    0  0.4770865E-002  0.4458319E+03  0.7546771E-02  0.1028972E+00
         21   -1    0    0  502  501  0.00000000000E+00  0.00000000000E+00  0.51861051235E+03  0.51861051235E+03  0.00000000000E+00 0. -1.
         21   -1    0    0  501  502 -0.00000000000E+00 -0.00000000000E+00 -0.95816651934E+02  0.95816651934E+02  0.00000000000E+00 0. -1.
      99926    2    1    2    0    0  0.00000000000E+00  0.00000000000E+00  0.42279386041E+03  0.61442716428E+03  0.44583190981E+03 0.  0.
         25    1    3    3    0    0  0.46439753131E+02  0.57717474207E+01  0.11215714479E+03  0.17440383300E+03  0.12509000000E+03 0.  0.
         25    1    3    3    0    0 -0.52313029164E+01 -0.39278191657E+02  0.39991571567E+02  0.13717498594E+03  0.12509000000E+03 0.  0.
         25    1    3    3    0    0 -0.41208450215E+02  0.33506444236E+02  0.27064514406E+03  0.30284834534E+03  0.12509000000E+03 0.  0.
<mgrwt>
<rscale>  2 0.44583191E+03</rscale>
<asrwt>0</asrwt>
<pdfrwt beam="1">  1       21 0.76266250E-01 0.44583191E+03</pdfrwt>
<pdfrwt beam="2">  1       21 0.14090684E-01 0.44583191E+03</pdfrwt>
<totfact> 0.62180214E+04</totfact>
</mgrwt>
</event>
<event>
 7    0  0.4770865E-002  0.4754086E+03  0.7546771E-02  0.1020405E+00
         21   -1    0    0  502  501  0.00000000000E+00  0.00000000000E+00  0.24647518762E+03  0.24647518762E+03  0.00000000000E+00 0. -1.
         21   -1    0    0  501  502 -0.00000000000E+00 -0.00000000000E+00 -0.22924554438E+03  0.22924554438E+03  0.00000000000E+00 0. -1.
      99926    2    1    2    0    0  0.00000000000E+00  0.00000000000E+00  0.17229643239E+02  0.47572073200E+03  0.47540861819E+03 0.  0.
      99925    2    3    3    0    0 -0.16671652704E+02 -0.11228971542E+03  0.76748367369E+02  0.29662045055E+03  0.26307119873E+03 0.  0.
         25    1    4    4    0    0 -0.80272946577E+01 -0.30320934485E+02  0.69836337759E+02  0.14665748770E+03  0.12509000000E+03 0.  0.
         25    1    4    4    0    0 -0.86443580461E+01 -0.81968780931E+02  0.69120296106E+01  0.14996296285E+03  0.12509000000E+03 0.  0.
         25    1    3    3    0    0  0.16671652704E+02  0.11228971542E+03 -0.59518724130E+02  0.17910028145E+03  0.12509000000E+03 0.  0.
<mgrwt>
<rscale>  2 0.47540862E+03</rscale>
<asrwt>0</asrwt>
<pdfrwt beam="1">  1       21 0.36246351E-01 0.47540862E+03</pdfrwt>
<pdfrwt beam="2">  1       21 0.33712580E-01 0.47540862E+03</pdfrwt>
<totfact> 0.57162773E+04</totfact>
</mgrwt>
</event>
<event>
 7    0  0.4770865E-002  0.4557181E+03  0.7546771E-02  0.1026030E+00
         21   -1    0    0  502  501  0.00000000000E+00  0.00000000000E+00  0.15470008912E+04  0.15470008912E+04  0.00000000000E+00 0. -1.
         21   -1    0    0  501  502 -0.00000000000E+00 -0.00000000000E+00 -0.33561550261E+02  0.33561550261E+02  0.00000000000E+00 0. -1.
      99926    2    1    2    0    0  0.00000000000E+00 -0.17763568394E-14  0.15134393410E+04  0.15805624415E+04  0.45571810657E+03 0.  0.
      99925    2    3    3    0    0  0.11328282369E+03  0.90611815380E+01  0.96450755723E+03  0.10062030466E+04  0.26316276324E+03 0.  0.
         25    1    4    4    0    0  0.13320601550E+02  0.80064738705E+01  0.39634659391E+03  0.41590825028E+03  0.12509000000E+03 0.  0.
         25    1    3    3    0    0 -0.11328282369E+03 -0.90611815380E+01  0.54893178375E+03  0.57435939486E+03  0.12509000000E+03 0.  0.
         25    1    4    4    0    0  0.99962222145E+02  0.10547076674E+01  0.56816096333E+03  0.59029479636E+03  0.12509000000E+03 0.  0.
<mgrwt>
<rscale>  2 0.45571811E+03</rscale>
<asrwt>0</asrwt>
<pdfrwt beam="1">  1       21 0.22750008E+00 0.45571811E+03</pdfrwt>
<pdfrwt beam="2">  1       21 0.49355231E-02 0.45571811E+03</pdfrwt>
<totfact> 0.21750349E+04</totfact>
</mgrwt>
</event>
<event>
 7    0  0.4770865E-002  0.4532270E+03  0.7546771E-02  0.1026764E+00
         21   -1    0    0  502  501  0.00000000000E+00  0.00000000000E+00  0.14804186449E+03  0.14804186449E+03  0.00000000000E+00 0.  1.
         21   -1    0    0  501  502 -0.00000000000E+00 -0.00000000000E+00 -0.34688615836E+03  0.34688615836E+03  0.00000000000E+00 0.  1.
      99926    2    1    2    0    0  0.35527136788E-14  0.00000000000E+00 -0.19884429388E+03  0.49492802285E+03  0.45322697911E+03 0.  0.
      99925    2    3    3    0    0  0.23307100378E+02  0.81233137949E+02 -0.46144483770E+02  0.28020312039E+03  0.26313956690E+03 0.  0.
         25    1    3    3    0    0 -0.23307100378E+02 -0.81233137949E+02 -0.15269981011E+03  0.21472490246E+03  0.12509000000E+03 0.  0.
         25    1    4    4    0    0 -0.53299283467E+01  0.55825180686E+02 -0.57999189884E+02  0.14884983393E+03  0.12509000000E+03 0.  0.
         25    1    4    4    0    0  0.28637028725E+02  0.25407957263E+02  0.11854706113E+02  0.13135328646E+03  0.12509000000E+03 0.  0.
<mgrwt>
<rscale>  2 0.45322698E+03</rscale>
<asrwt>0</asrwt>
<pdfrwt beam="1">  1       21 0.21770862E-01 0.45322698E+03</pdfrwt>
<pdfrwt beam="2">  1       21 0.51012670E-01 0.45322698E+03</pdfrwt>
<totfact> 0.66560387E+04</totfact>
</mgrwt>
</event>
<event>
 7    0  0.4770865E-002  0.4184595E+03  0.7546771E-02  0.1037569E+00
         21   -1    0    0  502  501  0.00000000000E+00  0.00000000000E+00  0.34870243525E+02  0.34870243525E+02  0.00000000000E+00 0. -1.
         21   -1    0    0  501  502 -0.00000000000E+00 -0.00000000000E+00 -0.12554283264E+04  0.12554283264E+04  0.00000000000E+00 0. -1.
      99926    2    1    2    0    0  0.00000000000E+00  0.88817841970E-15 -0.12205580828E+04  0.12902985699E+04  0.41845951521E+03 0.  0.
      99925    2    3    3    0    0  0.68256306420E+02 -0.52098571003E+01 -0.88193654068E+03  0.92287766290E+03  0.26306853274E+03 0.  0.
         25    1    4    4    0    0  0.58703159708E+02  0.26219455182E+02 -0.51293583128E+03  0.53186858894E+03  0.12509000000E+03 0.  0.
         25    1    4    4    0    0  0.95531467115E+01 -0.31429312283E+02 -0.36900070940E+03  0.39100907396E+03  0.12509000000E+03 0.  0.
         25    1    3    3    0    0 -0.68256306420E+02  0.52098571003E+01 -0.33862154215E+03  0.36742090698E+03  0.12509000000E+03 0.  0.
<mgrwt>
<rscale>  2 0.41845952E+03</rscale>
<asrwt>0</asrwt>
<pdfrwt beam="1">  1       21 0.51279783E-02 0.41845952E+03</pdfrwt>
<pdfrwt beam="2">  1       21 0.18462177E+00 0.41845952E+03</pdfrwt>
<totfact> 0.39482271E+04</totfact>
</mgrwt>
</event>
<event>
 7    0  0.4770865E-002  0.4553502E+03  0.7546771E-02  0.1026138E+00
         21   -1    0    0  502  501  0.00000000000E+00  0.00000000000E+00  0.15901193846E+03  0.15901193846E+03  0.00000000000E+00 0.  1.
         21   -1    0    0  501  502 -0.00000000000E+00 -0.00000000000E+00 -0.32598776372E+03  0.32598776372E+03  0.00000000000E+00 0.  1.
      99926    2    1    2    0    0  0.71054273576E-14  0.00000000000E+00 -0.16697582526E+03  0.48499970217E+03  0.45535017831E+03 0.  0.
      99925    2    3    3    0    0 -0.58743078491E+02 -0.91530456514E+02 -0.13892922025E+03  0.31688458122E+03  0.26322221760E+03 0.  0.
         25    1    4    4    0    0  0.51553015976E+01 -0.54092219451E+02 -0.44162670254E+02  0.14335408918E+03  0.12509000000E+03 0.  0.
         25    1    3    3    0    0  0.58743078491E+02  0.91530456514E+02 -0.28046605009E+02  0.16811512095E+03  0.12509000000E+03 0.  0.
         25    1    4    4    0    0 -0.63898380089E+02 -0.37438237063E+02 -0.94766549992E+02  0.17353049205E+03  0.12509000000E+03 0.  0.
<mgrwt>
<rscale>  2 0.45535018E+03</rscale>
<asrwt>0</asrwt>
<pdfrwt beam="1">  1       21 0.23384109E-01 0.45535018E+03</pdfrwt>
<pdfrwt beam="2">  1       21 0.47939377E-01 0.45535018E+03</pdfrwt>
<totfact> 0.66153836E+04</totfact>
</mgrwt>
</event>
<event>
 6    0  0.4770865E-002  0.4508696E+03  0.7546771E-02  0.1027463E+00
         21   -1    0    0  502  501  0.00000000000E+00  0.00000000000E+00  0.36520160699E+03  0.36520160699E+03  0.00000000000E+00 0. -1.
         21   -1    0    0  501  502 -0.00000000000E+00 -0.00000000000E+00 -0.13915836519E+03  0.13915836519E+03  0.00000000000E+00 0. -1.
      99926    2    1    2    0    0  0.00000000000E+00  0.35527136788E-14  0.22604324179E+03  0.50435997218E+03  0.45086964233E+03 0.  0.
         25    1    3    3    0    0 -0.68031456500E+02 -0.19381327639E+02  0.16432580631E+03  0.21829886315E+03  0.12509000000E+03 0.  0.
         25    1    3    3    0    0  0.38840321545E+02  0.51406097866E+02  0.61792703201E+02  0.15367824747E+03  0.12509000000E+03 0.  0.
         25    1    3    3    0    0  0.29191134955E+02 -0.32024770227E+02 -0.75267717754E-01  0.13238286155E+03  0.12509000000E+03 0.  0.
<mgrwt>
<rscale>  2 0.45086964E+03</rscale>
<asrwt>0</asrwt>
<pdfrwt beam="1">  1       21 0.53706119E-01 0.45086964E+03</pdfrwt>
<pdfrwt beam="2">  1       21 0.20464465E-01 0.45086964E+03</pdfrwt>
<totfact> 0.67139587E+04</totfact>
</mgrwt>
</event>
<event>
 7    0  0.4770865E-002  0.4586965E+03  0.7546771E-02  0.1025160E+00
         21   -1    0    0  502  501  0.00000000000E+00  0.00000000000E+00  0.15197910946E+03  0.15197910946E+03  0.00000000000E+00 0. -1.
         21   -1    0    0  501  502 -0.00000000000E+00 -0.00000000000E+00 -0.34610421287E+03  0.34610421287E+03  0.00000000000E+00 0. -1.
      99926    2    1    2    0    0  0.00000000000E+00 -0.14210854715E-13 -0.19412510341E+03  0.49808332233E+03  0.45869645759E+03 0.  0.
      99925    2    3    3    0    0 -0.79238298153E+01 -0.10067956312E+03 -0.18500197651E+03  0.33705568168E+03  0.26302402881E+03 0.  0.
         25    1    4    4    0    0 -0.12886449525E+02 -0.15759554056E+02 -0.11180616022E+03  0.16900458482E+03  0.12509000000E+03 0.  0.
         25    1    3    3    0    0  0.79238298153E+01  0.10067956312E+03 -0.91231269040E+01  0.16102764065E+03  0.12509000000E+03 0.  0.
         25    1    4    4    0    0  0.49626197093E+01 -0.84920009063E+02 -0.73195816285E+02  0.16805109686E+03  0.12509000000E+03 0.  0.
<mgrwt>
<rscale>  2 0.45869646E+03</rscale>
<asrwt>0</asrwt>
<pdfrwt beam="1">  1       21 0.22349870E-01 0.45869646E+03</pdfrwt>
<pdfrwt beam="2">  1       21 0.50897677E-01 0.45869646E+03</pdfrwt>
<totfact> 0.63520988E+04</totfact>
</mgrwt>
</event>
<event>
 7    0  0.4770865E-002  0.4488891E+03  0.7546771E-02  0.1028054E+00
         21   -1    0    0  502  501  0.00000000000E+00  0.00000000000E+00  0.70692631921E+02  0.70692631921E+02  0.00000000000E+00 0. -1.
         21   -1    0    0  501  502 -0.00000000000E+00 -0.00000000000E+00 -0.71259687111E+03  0.71259687111E+03  0.00000000000E+00 0. -1.
      99926    2    1    2    0    0 -0.35527136788E-14  0.00000000000E+00 -0.64190423919E+03  0.78328950303E+03  0.44888906566E+03 0.  0.
      99925    2    3    3    0    0 -0.22056102979E+02  0.89942379598E+02 -0.50073200130E+03  0.57316284557E+03  0.26307224690E+03 0.  0.
         25    1    4    4    0    0 -0.23737010050E+02  0.86074000315E+02 -0.27067117251E+03  0.31125965191E+03  0.12509000000E+03 0.  0.
         25    1    3    3    0    0  0.22056102979E+02 -0.89942379598E+02 -0.14117223789E+03  0.21012665746E+03  0.12509000000E+03 0.  0.
         25    1    4    4    0    0  0.16809070710E+01  0.38683792827E+01 -0.23006082879E+03  0.26190319366E+03  0.12509000000E+03 0.  0.
<mgrwt>
<rscale>  2 0.44888907E+03</rscale>
<asrwt>0</asrwt>
<pdfrwt beam="1">  1       21 0.10395975E-01 0.44888907E+03</pdfrwt>
<pdfrwt beam="2">  1       21 0.10479366E+00 0.44888907E+03</pdfrwt>
<totfact> 0.50985614E+04</totfact>
</mgrwt>
</event>
<event>
 7    0  0.4770865E-002  0.4559200E+03  0.7546771E-02  0.1025971E+00
         21   -1    0    0  502  501  0.00000000000E+00  0.00000000000E+00  0.39959470566E+03  0.39959470566E+03  0.00000000000E+00 0. -1.
         21   -1    0    0  501  502 -0.00000000000E+00 -0.00000000000E+00 -0.13004618567E+03  0.13004618567E+03  0.00000000000E+00 0. -1.
      99926    2    1    2    0    0  0.00000000000E+00 -0.71054273576E-14  0.26954851999E+03  0.52964089133E+03  0.45592002494E+03 0.  0.
      99925    2    3    3    0    0  0.10126063932E+03  0.44391507280E+02  0.13711973956E+03  0.31654651557E+03  0.26301245322E+03 0.  0.
         25    1    4    4    0    0  0.23392053106E+02 -0.10835913316E+02  0.55108043035E+02  0.13910071773E+03  0.12509000000E+03 0.  0.
         25    1    3    3    0    0 -0.10126063932E+03 -0.44391507280E+02  0.13242878042E+03  0.21309437576E+03  0.12509000000E+03 0.  0.
         25    1    4    4    0    0  0.77868586214E+02  0.55227420596E+02  0.82011696526E+02  0.17744579784E+03  0.12509000000E+03 0.  0.
<mgrwt>
<rscale>  2 0.45592002E+03</rscale>
<asrwt>0</asrwt>
<pdfrwt beam="1">  1       21 0.58763927E-01 0.45592002E+03</pdfrwt>
<pdfrwt beam="2">  1       21 0.19124439E-01 0.45592002E+03</pdfrwt>
<totfact> 0.62771850E+04</totfact>
</mgrwt>
</event>
<event>
 7    0  0.4770865E-002  0.4518021E+03  0.7546771E-02  0.1027186E+00
         21   -1    0    0  502  501  0.00000000000E+00  0.00000000000E+00  0.19054687604E+03  0.19054687604E+03  0.00000000000E+00 0.  1.
         21   -1    0    0  501  502 -0.00000000000E+00 -0.00000000000E+00 -0.26781484895E+03  0.26781484895E+03  0.00000000000E+00 0.  1.
      99926    2    1    2    0    0 -0.71054273576E-14 -0.71054273576E-14 -0.77267972906E+02  0.45836172499E+03  0.45180209307E+03 0.  0.
      99925    2    3    3    0    0 -0.34822151808E+02 -0.32520764530E+02  0.52069140282E+02  0.27222795769E+03  0.26291953749E+03 0.  0.
         25    1    4    4    0    0  0.10077274921E+02 -0.58195901068E+01 -0.36028065943E+01  0.12568177041E+03  0.12509000000E+03 0.  0.
         25    1    4    4    0    0 -0.44899426729E+02 -0.26701174424E+02  0.55671946876E+02  0.14654618728E+03  0.12509000000E+03 0.  0.
         25    1    3    3    0    0  0.34822151808E+02  0.32520764530E+02 -0.12933711319E+03  0.18613376730E+03  0.12509000000E+03 0.  0.
<mgrwt>
<rscale>  2 0.45180209E+03</rscale>
<asrwt>0</asrwt>
<pdfrwt beam="1">  1       21 0.28021600E-01 0.45180209E+03</pdfrwt>
<pdfrwt beam="2">  1       21 0.39384536E-01 0.45180209E+03</pdfrwt>
<totfact> 0.70069910E+04</totfact>
</mgrwt>
</event>
<event>
 7    0  0.4770865E-002  0.4575150E+03  0.7546771E-02  0.1025504E+00
         21   -1    0    0  502  501  0.00000000000E+00  0.00000000000E+00  0.13843726019E+04  0.13843726019E+04  0.00000000000E+00 0. -1.
         21   -1    0    0  501  502 -0.00000000000E+00 -0.00000000000E+00 -0.37800510455E+02  0.37800510455E+02  0.00000000000E+00 0. -1.
      99926    2    1    2    0    0 -0.71054273576E-14 -0.14210854715E-13  0.13465720914E+04  0.14221731123E+04  0.45751498778E+03 0.  0.
      99925    2    3    3    0    0 -0.44055599793E+02 -0.82564514207E+02  0.63661587955E+03  0.69523217542E+03  0.26326831326E+03 0.  0.
         25    1    4    4    0    0 -0.18492804511E+02  0.15778946132E+01  0.28240420578E+03  0.30942546294E+03  0.12509000000E+03 0.  0.
         25    1    3    3    0    0  0.44055599793E+02  0.82564514207E+02  0.70995621186E+03  0.72694093690E+03  0.12509000000E+03 0.  0.
         25    1    4    4    0    0 -0.25562795282E+02 -0.84142408820E+02  0.35421167377E+03  0.38580671248E+03  0.12509000000E+03 0.  0.
<mgrwt>
<rscale>  2 0.45751499E+03</rscale>
<asrwt>0</asrwt>
<pdfrwt beam="1">  1       21 0.20358417E+00 0.45751499E+03</pdfrwt>
<pdfrwt beam="2">  1       21 0.55588995E-02 0.45751499E+03</pdfrwt>
<totfact> 0.25250030E+04</totfact>
</mgrwt>
</event>
<event>
 7    0  0.4770865E-002  0.4550420E+03  0.7546771E-02  0.1026229E+00
         21   -1    0    0  502  501  0.00000000000E+00  0.00000000000E+00  0.36161530730E+03  0.36161530730E+03  0.00000000000E+00 0. -1.
         21   -1    0    0  501  502 -0.00000000000E+00 -0.00000000000E+00 -0.14315157543E+03  0.14315157543E+03  0.00000000000E+00 0. -1.
      99926    2    1    2    0    0  0.35527136788E-14  0.00000000000E+00  0.21846373187E+03  0.50476688273E+03  0.45504198022E+03 0.  0.
      99925    2    3    3    0    0  0.28566195444E+02  0.73360157404E+02  0.22730593118E+03  0.35670124592E+03  0.26338195131E+03 0.  0.
         25    1    3    3    0    0 -0.28566195444E+02 -0.73360157404E+02 -0.88421993051E+01  0.14806563681E+03  0.12509000000E+03 0.  0.
         25    1    4    4    0    0  0.28867041921E+02  0.37650249781E+02  0.65124867403E+02  0.14879383009E+03  0.12509000000E+03 0.  0.
         25    1    4    4    0    0 -0.30084647691E+00  0.35709907623E+02  0.16218106377E+03  0.20790741583E+03  0.12509000000E+03 0.  0.
<mgrwt>
<rscale>  2 0.45504198E+03</rscale>
<asrwt>0</asrwt>
<pdfrwt beam="1">  1       21 0.53178722E-01 0.45504198E+03</pdfrwt>
<pdfrwt beam="2">  1       21 0.21051702E-01 0.45504198E+03</pdfrwt>
<totfact> 0.64915422E+04</totfact>
</mgrwt>
</event>
<event>
 7    0  0.4770865E-002  0.4532200E+03  0.7546771E-02  0.1026766E+00
         21   -1    0    0  502  501  0.00000000000E+00  0.00000000000E+00  0.32864425133E+03  0.32864425133E+03  0.00000000000E+00 0.  1.
         21   -1    0    0  501  502 -0.00000000000E+00 -0.00000000000E+00 -0.15625433142E+03  0.15625433142E+03  0.00000000000E+00 0.  1.
      99926    2    1    2    0    0 -0.17763568394E-14  0.14210854715E-13  0.17238991991E+03  0.48489858275E+03  0.45321998088E+03 0.  0.
      99925    2    3    3    0    0 -0.10179642473E+02 -0.81012904657E+02  0.18972413938E+03  0.33451673841E+03  0.26313396468E+03 0.  0.
         25    1    4    4    0    0  0.13952950332E+02 -0.77167800680E+02  0.92616779592E+02  0.17428405047E+03  0.12509000000E+03 0.  0.
         25    1    4    4    0    0 -0.24132592805E+02 -0.38451039778E+01  0.97107359793E+02  0.16023268794E+03  0.12509000000E+03 0.  0.
         25    1    3    3    0    0  0.10179642473E+02  0.81012904657E+02 -0.17334219475E+02  0.15038184434E+03  0.12509000000E+03 0.  0.
<mgrwt>
<rscale>  2 0.45321998E+03</rscale>
<asrwt>0</asrwt>
<pdfrwt beam="1">  1       21 0.48330037E-01 0.45321998E+03</pdfrwt>
<pdfrwt beam="2">  1       21 0.22978578E-01 0.45321998E+03</pdfrwt>
<totfact> 0.67291064E+04</totfact>
</mgrwt>
</event>
<event>
 7    0  0.4770865E-002  0.4521429E+03  0.7546771E-02  0.1027085E+00
         21   -1    0    0  502  501  0.00000000000E+00  0.00000000000E+00  0.96523644175E+02  0.96523644175E+02  0.00000000000E+00 0.  1.
         21   -1    0    0  501  502 -0.00000000000E+00 -0.00000000000E+00 -0.52948998797E+03  0.52948998797E+03  0.00000000000E+00 0.  1.
      99926    2    1    2    0    0 -0.71054273576E-14  0.22204460493E-15 -0.43296634380E+03  0.62601363215E+03  0.45214291189E+03 0.  0.
      99925    2    3    3    0    0  0.60491240804E+02  0.10022254824E+01 -0.14482910692E+03  0.30612182224E+03  0.26282105161E+03 0.  0.
         25    1    3    3    0    0 -0.60491240804E+02 -0.10022254824E+01 -0.28813723688E+03  0.31989180990E+03  0.12509000000E+03 0.  0.
         25    1    4    4    0    0 -0.10055673614E+02  0.74280489213E+01 -0.73820855259E+02  0.14578518187E+03  0.12509000000E+03 0.  0.
         25    1    4    4    0    0  0.70546914417E+02 -0.64258234389E+01 -0.71008251662E+02  0.16033664037E+03  0.12509000000E+03 0.  0.
<mgrwt>
<rscale>  2 0.45214291E+03</rscale>
<asrwt>0</asrwt>
<pdfrwt beam="1">  1       21 0.14194654E-01 0.45214291E+03</pdfrwt>
<pdfrwt beam="2">  1       21 0.77866175E-01 0.45214291E+03</pdfrwt>
<totfact> 0.58411406E+04</totfact>
</mgrwt>
</event>
<event>
 7    0  0.4770865E-002  0.4551242E+03  0.7546771E-02  0.1026205E+00
         21   -1    0    0  502  501  0.00000000000E+00  0.00000000000E+00  0.55810553085E+03  0.55810553085E+03  0.00000000000E+00 0. -1.
         21   -1    0    0  501  502 -0.00000000000E+00 -0.00000000000E+00 -0.92786231762E+02  0.92786231762E+02  0.00000000000E+00 0. -1.
      99926    2    1    2    0    0  0.00000000000E+00  0.00000000000E+00  0.46531929909E+03  0.65089176261E+03  0.45512419902E+03 0.  0.
      99925    2    3    3    0    0  0.72609935547E+02  0.64660563172E+02  0.37610202120E+03  0.46906651150E+03  0.26290201727E+03 0.  0.
         25    1    3    3    0    0 -0.72609935547E+02 -0.64660563172E+02  0.89217277882E+02  0.18182525111E+03  0.12509000000E+03 0.  0.
         25    1    4    4    0    0  0.72210179613E+01  0.48552915691E+02  0.14417825243E+03  0.19708984067E+03  0.12509000000E+03 0.  0.
         25    1    4    4    0    0  0.65388917586E+02  0.16107647481E+02  0.23192376877E+03  0.27197667082E+03  0.12509000000E+03 0.  0.
<mgrwt>
<rscale>  2 0.45512420E+03</rscale>
<asrwt>0</asrwt>
<pdfrwt beam="1">  1       21 0.82074342E-01 0.45512420E+03</pdfrwt>
<pdfrwt beam="2">  1       21 0.13645034E-01 0.45512420E+03</pdfrwt>
<totfact> 0.55595655E+04</totfact>
</mgrwt>
</event>
<event>
 7    0  0.4770865E-002  0.4568534E+03  0.7546771E-02  0.1025698E+00
         21   -1    0    0  502  501  0.00000000000E+00  0.00000000000E+00  0.31761952221E+03  0.31761952221E+03  0.00000000000E+00 0.  1.
         21   -1    0    0  501  502 -0.00000000000E+00 -0.00000000000E+00 -0.16428073026E+03  0.16428073026E+03  0.00000000000E+00 0.  1.
      99926    2    1    2    0    0  0.71054273576E-14  0.00000000000E+00  0.15333879195E+03  0.48190025247E+03  0.45685344281E+03 0.  0.
      99925    2    3    3    0    0 -0.63787635614E+02  0.22120302734E+02  0.19568412070E+03  0.33358031039E+03  0.26158244998E+03 0.  0.
         25    1    3    3    0    0  0.63787635614E+02 -0.22120302734E+02 -0.42345328751E+02  0.14831994208E+03  0.12509000000E+03 0.  0.
         25    1    4    4    0    0 -0.35097739763E+02  0.37300713885E+02  0.13417530439E+03  0.19045659611E+03  0.12509000000E+03 0.  0.
         25    1    4    4    0    0 -0.28689895851E+02 -0.15180411150E+02  0.61508816314E+02  0.14312371429E+03  0.12509000000E+03 0.  0.
<mgrwt>
<rscale>  2 0.45685344E+03</rscale>
<asrwt>0</asrwt>
<pdfrwt beam="1">  1       21 0.46708753E-01 0.45685344E+03</pdfrwt>
<pdfrwt beam="2">  1       21 0.24158931E-01 0.45685344E+03</pdfrwt>
<totfact> 0.65591726E+04</totfact>
</mgrwt>
</event>
<event>
 7    0  0.4770865E-002  0.4763418E+03  0.7546771E-02  0.1020145E+00
         21   -1    0    0  502  501  0.00000000000E+00  0.00000000000E+00  0.17794767566E+03  0.17794767566E+03  0.00000000000E+00 0. -1.
         21   -1    0    0  501  502 -0.00000000000E+00 -0.00000000000E+00 -0.31877554431E+03  0.31877554431E+03  0.00000000000E+00 0. -1.
      99926    2    1    2    0    0  0.00000000000E+00  0.00000000000E+00 -0.14082786865E+03  0.49672321997E+03  0.47634175617E+03 0.  0.
      99925    2    3    3    0    0 -0.24586336395E+02  0.10993688628E+03 -0.15948799870E+03  0.32735286998E+03  0.26274107569E+03 0.  0.
         25    1    3    3    0    0  0.24586336395E+02 -0.10993688628E+03  0.18660130045E+02  0.16937034999E+03  0.12509000000E+03 0.  0.
         25    1    4    4    0    0 -0.36159399209E+02  0.36698126515E+02 -0.45987131784E+02  0.14288659500E+03  0.12509000000E+03 0.  0.
         25    1    4    4    0    0  0.11573062814E+02  0.73238759766E+02 -0.11350086692E+03  0.18446627498E+03  0.12509000000E+03 0.  0.
<mgrwt>
<rscale>  2 0.47634176E+03</rscale>
<asrwt>0</asrwt>
<pdfrwt beam="1">  1       21 0.26168776E-01 0.47634176E+03</pdfrwt>
<pdfrwt beam="2">  1       21 0.46878756E-01 0.47634176E+03</pdfrwt>
<totfact> 0.55488402E+04</totfact>
</mgrwt>
</event>
<event>
 7    0  0.4770865E-002  0.4460581E+03  0.7546771E-02  0.1028904E+00
         21   -1    0    0  502  501  0.00000000000E+00  0.00000000000E+00  0.55724822193E+03  0.55724822193E+03  0.00000000000E+00 0.  1.
         21   -1    0    0  501  502 -0.00000000000E+00 -0.00000000000E+00 -0.89263563179E+02  0.89263563179E+02  0.00000000000E+00 0.  1.
      99926    2    1    2    0    0  0.71054273576E-14  0.00000000000E+00  0.46798465875E+03  0.64651178511E+03  0.44605812117E+03 0.  0.
      99925    2    3    3    0    0  0.52565164814E+02 -0.43334201160E+02  0.41159390641E+03  0.49331787338E+03  0.26327178135E+03 0.  0.
         25    1    4    4    0    0 -0.10869103447E+02 -0.25230115474E+01  0.20155878043E+03  0.23748253212E+03  0.12509000000E+03 0.  0.
         25    1    3    3    0    0 -0.52565164814E+02  0.43334201160E+02  0.56390752340E+02  0.15319391173E+03  0.12509000000E+03 0.  0.
         25    1    4    4    0    0  0.63434268260E+02 -0.40811189613E+02  0.21003512598E+03  0.25583534125E+03  0.12509000000E+03 0.  0.
<mgrwt>
<rscale>  2 0.44605812E+03</rscale>
<asrwt>0</asrwt>
<pdfrwt beam="1">  1       21 0.81948266E-01 0.44605812E+03</pdfrwt>
<pdfrwt beam="2">  1       21 0.13126995E-01 0.44605812E+03</pdfrwt>
<totfact> 0.60026710E+04</totfact>
</mgrwt>
</event>
<event>
 7    0  0.4770865E-002  0.4613557E+03  0.7546771E-02  0.1024389E+00
         21   -1    0    0  502  501  0.00000000000E+00  0.00000000000E+00  0.31035977441E+03  0.31035977441E+03  0.00000000000E+00 0. -1.
         21   -1    0    0  501  502 -0.00000000000E+00 -0.00000000000E+00 -0.17145346903E+03  0.17145346903E+03  0.00000000000E+00 0. -1.
      99926    2    1    2    0    0  0.00000000000E+00 -0.14210854715E-13  0.13890630538E+03  0.48181324344E+03  0.46135565443E+03 0.  0.
      99925    2    3    3    0    0 -0.11289477835E+02 -0.10897295346E+03  0.38274339921E+02  0.28745054777E+03  0.26298352690E+03 0.  0.
         25    1    4    4    0    0 -0.21589884161E+02 -0.89905400994E+02  0.25776043036E+01  0.15557395788E+03  0.12509000000E+03 0.  0.
         25    1    3    3    0    0  0.11289477835E+02  0.10897295346E+03  0.10063196546E+03  0.19436269567E+03  0.12509000000E+03 0.  0.
         25    1    4    4    0    0  0.10300406326E+02 -0.19067552463E+02  0.35696735617E+02  0.13187658989E+03  0.12509000000E+03 0.  0.
<mgrwt>
<rscale>  2 0.46135565E+03</rscale>
<asrwt>0</asrwt>
<pdfrwt beam="1">  1       21 0.45641143E-01 0.46135565E+03</pdfrwt>
<pdfrwt beam="2">  1       21 0.25213745E-01 0.46135565E+03</pdfrwt>
<totfact> 0.63313750E+04</totfact>
</mgrwt>
</event>
<event>
 7    0  0.4770865E-002  0.4502187E+03  0.7546771E-02  0.1027657E+00
         21   -1    0    0  502  501  0.00000000000E+00  0.00000000000E+00  0.29155754756E+03  0.29155754756E+03  0.00000000000E+00 0. -1.
         21   -1    0    0  501  502 -0.00000000000E+00 -0.00000000000E+00 -0.17380522892E+03  0.17380522892E+03  0.00000000000E+00 0. -1.
      99926    2    1    2    0    0  0.00000000000E+00 -0.14210854715E-13  0.11775231864E+03  0.46536277648E+03  0.45021873038E+03 0.  0.
      99925    2    3    3    0    0  0.65892329617E+02 -0.67051781875E+02  0.18714923167E+02  0.28017731712E+03  0.26327046953E+03 0.  0.
         25    1    4    4    0    0  0.53385797440E+02 -0.39261641293E+02 -0.25916729377E+02  0.14391214267E+03  0.12509000000E+03 0.  0.
         25    1    3    3    0    0 -0.65892329617E+02  0.67051781875E+02  0.99037395470E+02  0.18518545935E+03  0.12509000000E+03 0.  0.
         25    1    4    4    0    0  0.12506532176E+02 -0.27790140581E+02  0.44631652544E+02  0.13626517446E+03  0.12509000000E+03 0.  0.
<mgrwt>
<rscale>  2 0.45021873E+03</rscale>
<asrwt>0</asrwt>
<pdfrwt beam="1">  1       21 0.42876110E-01 0.45021873E+03</pdfrwt>
<pdfrwt beam="2">  1       21 0.25559592E-01 0.45021873E+03</pdfrwt>
<totfact> 0.70415275E+04</totfact>
</mgrwt>
</event>
<event>
 7    0  0.4770865E-002  0.4454727E+03  0.7546771E-02  0.1029081E+00
         21   -1    0    0  502  501  0.00000000000E+00  0.00000000000E+00  0.73353203721E+02  0.73353203721E+02  0.00000000000E+00 0.  1.
         21   -1    0    0  501  502 -0.00000000000E+00 -0.00000000000E+00 -0.67633691081E+03  0.67633691081E+03  0.00000000000E+00 0.  1.
      99926    2    1    2    0    0  0.00000000000E+00  0.17763568394E-14 -0.60298370709E+03  0.74969011453E+03  0.44547268919E+03 0.  0.
      99925    2    3    3    0    0 -0.80479126722E+02 -0.85493163995E+01 -0.27291120874E+03  0.38755016518E+03  0.26299167673E+03 0.  0.
         25    1    4    4    0    0 -0.81529348905E+02  0.22593363429E+01 -0.15680875410E+03  0.21653783225E+03  0.12509000000E+03 0.  0.
         25    1    4    4    0    0  0.10502221825E+01 -0.10808652742E+02 -0.11610245464E+03  0.17101233293E+03  0.12509000000E+03 0.  0.
         25    1    3    3    0    0  0.80479126722E+02  0.85493163995E+01 -0.33007249835E+03  0.36213994935E+03  0.12509000000E+03 0.  0.
<mgrwt>
<rscale>  2 0.44547269E+03</rscale>
<asrwt>0</asrwt>
<pdfrwt beam="1">  1       21 0.10787236E-01 0.44547269E+03</pdfrwt>
<pdfrwt beam="2">  1       21 0.99461313E-01 0.44547269E+03</pdfrwt>
<totfact> 0.54235189E+04</totfact>
</mgrwt>
</event>
<event>
 7    0  0.4770865E-002  0.4576974E+03  0.7546771E-02  0.1025451E+00
         21   -1    0    0  502  501  0.00000000000E+00  0.00000000000E+00  0.52703691529E+02  0.52703691529E+02  0.00000000000E+00 0.  1.
         21   -1    0    0  501  502 -0.00000000000E+00 -0.00000000000E+00 -0.99370137699E+03  0.99370137699E+03  0.00000000000E+00 0.  1.
      99926    2    1    2    0    0  0.00000000000E+00  0.71054273576E-14 -0.94099768546E+03  0.10464050685E+04  0.45769741465E+03 0.  0.
      99925    2    3    3    0    0 -0.90031129421E+02  0.62033984215E+02 -0.50485786713E+03  0.57969394942E+03  0.26307753519E+03 0.  0.
         25    1    3    3    0    0  0.90031129421E+02 -0.62033984215E+02 -0.43613981832E+03  0.46671111910E+03  0.12509000000E+03 0.  0.
         25    1    4    4    0    0 -0.61429045083E+02  0.29502210336E+01 -0.30057631966E+03  0.33132440813E+03  0.12509000000E+03 0.  0.
         25    1    4    4    0    0 -0.28602084338E+02  0.59083763181E+02 -0.20428154747E+03  0.24836954129E+03  0.12509000000E+03 0.  0.
<mgrwt>
<rscale>  2 0.45769741E+03</rscale>
<asrwt>0</asrwt>
<pdfrwt beam="1">  1       21 0.77505424E-02 0.45769741E+03</pdfrwt>
<pdfrwt beam="2">  1       21 0.14613256E+00 0.45769741E+03</pdfrwt>
<totfact> 0.36632187E+04</totfact>
</mgrwt>
</event>
<event>
 7    0  0.4770865E-002  0.4438116E+03  0.7546771E-02  0.1029584E+00
         21   -1    0    0  502  501  0.00000000000E+00  0.00000000000E+00  0.41624257413E+03  0.41624257413E+03  0.00000000000E+00 0.  1.
         21   -1    0    0  501  502 -0.00000000000E+00 -0.00000000000E+00 -0.11830163050E+03  0.11830163050E+03  0.00000000000E+00 0.  1.
      99926    2    1    2    0    0  0.35527136788E-14  0.14210854715E-13  0.29794094363E+03  0.53454420462E+03  0.44381156002E+03 0.  0.
      99925    2    3    3    0    0  0.28909621944E+02  0.87810660889E+02  0.24239360620E+03  0.36937915626E+03  0.26294452332E+03 0.  0.
         25    1    3    3    0    0 -0.28909621944E+02 -0.87810660889E+02  0.55547337430E+02  0.16516504837E+03  0.12509000000E+03 0.  0.
         25    1    4    4    0    0 -0.18291323829E+02  0.57397849899E+02  0.95976201117E+02  0.16878395949E+03  0.12509000000E+03 0.  0.
         25    1    4    4    0    0  0.47200945773E+02  0.30412810989E+02  0.14641740508E+03  0.20059519677E+03  0.12509000000E+03 0.  0.
<mgrwt>
<rscale>  2 0.44381156E+03</rscale>
<asrwt>0</asrwt>
<pdfrwt beam="1">  1       21 0.61212143E-01 0.44381156E+03</pdfrwt>
<pdfrwt beam="2">  1       21 0.17397299E-01 0.44381156E+03</pdfrwt>
<totfact> 0.68792034E+04</totfact>
</mgrwt>
</event>
<event>
 7    0  0.4770865E-002  0.4518849E+03  0.7546771E-02  0.1027161E+00
         21   -1    0    0  502  501  0.00000000000E+00  0.00000000000E+00  0.96563203719E+03  0.96563203719E+03  0.00000000000E+00 0. -1.
         21   -1    0    0  501  502 -0.00000000000E+00 -0.00000000000E+00 -0.52866926353E+02  0.52866926353E+02  0.00000000000E+00 0. -1.
      99926    2    1    2    0    0  0.00000000000E+00  0.00000000000E+00  0.91276511084E+03  0.10184989635E+04  0.45188493134E+03 0.  0.
      99925    2    3    3    0    0  0.10336943049E+03  0.38110693797E+02  0.58279647089E+03  0.64881737678E+03  0.26301064198E+03 0.  0.
         25    1    4    4    0    0  0.32104742272E+02 -0.85529609251E+01  0.32586477195E+03  0.35062690329E+03  0.12509000000E+03 0.  0.
         25    1    3    3    0    0 -0.10336943049E+03 -0.38110693797E+02  0.32996863995E+03  0.36968158676E+03  0.12509000000E+03 0.  0.
         25    1    4    4    0    0  0.71264688214E+02  0.46663654723E+02  0.25693169894E+03  0.29819047349E+03  0.12509000000E+03 0.  0.
<mgrwt>
<rscale>  2 0.45188493E+03</rscale>
<asrwt>0</asrwt>
<pdfrwt beam="1">  1       21 0.14200470E+00 0.45188493E+03</pdfrwt>
<pdfrwt beam="2">  1       21 0.77745486E-02 0.45188493E+03</pdfrwt>
<totfact> 0.39404598E+04</totfact>
</mgrwt>
</event>
<event>
 7    0  0.4770865E-002  0.4492133E+03  0.7546771E-02  0.1027957E+00
         21   -1    0    0  502  501  0.00000000000E+00  0.00000000000E+00  0.93608610992E+02  0.93608610992E+02  0.00000000000E+00 0.  1.
         21   -1    0    0  501  502 -0.00000000000E+00 -0.00000000000E+00 -0.53892627359E+03  0.53892627359E+03  0.00000000000E+00 0.  1.
      99926    2    1    2    0    0 -0.14210854715E-13  0.00000000000E+00 -0.44531766260E+03  0.63253488458E+03  0.44921326738E+03 0.  0.
      99925    2    3    3    0    0  0.73847118105E+02 -0.58625622589E+02 -0.35483911633E+03  0.45163647135E+03  0.26301015816E+03 0.  0.
         25    1    4    4    0    0 -0.51536146842E+01 -0.25816057032E+02 -0.15917093810E+03  0.20414682016E+03  0.12509000000E+03 0.  0.
         25    1    4    4    0    0  0.79000732789E+02 -0.32809565556E+02 -0.19566817823E+03  0.24748965119E+03  0.12509000000E+03 0.  0.
         25    1    3    3    0    0 -0.73847118105E+02  0.58625622589E+02 -0.90478546265E+02  0.18089841323E+03  0.12509000000E+03 0.  0.
<mgrwt>
<rscale>  2 0.44921327E+03</rscale>
<asrwt>0</asrwt>
<pdfrwt beam="1">  1       21 0.13765972E-01 0.44921327E+03</pdfrwt>
<pdfrwt beam="2">  1       21 0.79253864E-01 0.44921327E+03</pdfrwt>
<totfact> 0.59385354E+04</totfact>
</mgrwt>
</event>
<event>
 7    0  0.4770865E-002  0.4528372E+03  0.7546771E-02  0.1026879E+00
         21   -1    0    0  502  501  0.00000000000E+00  0.00000000000E+00  0.37984587808E+02  0.37984587808E+02  0.00000000000E+00 0. -1.
         21   -1    0    0  501  502 -0.00000000000E+00 -0.00000000000E+00 -0.13496365187E+04  0.13496365187E+04  0.00000000000E+00 0. -1.
      99926    2    1    2    0    0  0.00000000000E+00  0.00000000000E+00 -0.13116519309E+04  0.13876211065E+04  0.45283721956E+03 0.  0.
      99925    2    3    3    0    0  0.14956920982E+02 -0.64544965902E+02 -0.55300719597E+03  0.61588338938E+03  0.26287949410E+03 0.  0.
         25    1    3    3    0    0 -0.14956920982E+02  0.64544965902E+02 -0.75864473496E+03  0.77173771717E+03  0.12509000000E+03 0.  0.
         25    1    4    4    0    0  0.28048342024E+02  0.31603536686E+01 -0.26592071977E+03  0.29522539632E+03  0.12509000000E+03 0.  0.
         25    1    4    4    0    0 -0.13091421042E+02 -0.67705319571E+02 -0.28708647620E+03  0.32065799307E+03  0.12509000000E+03 0.  0.
<mgrwt>
<rscale>  2 0.45283722E+03</rscale>
<asrwt>0</asrwt>
<pdfrwt beam="1">  1       21 0.55859698E-02 0.45283722E+03</pdfrwt>
<pdfrwt beam="2">  1       21 0.19847592E+00 0.45283722E+03</pdfrwt>
<totfact> 0.27116691E+04</totfact>
</mgrwt>
</event>
<event>
 7    0  0.4770865E-002  0.4485669E+03  0.7546771E-02  0.1028150E+00
         21   -1    0    0  502  501  0.00000000000E+00  0.00000000000E+00  0.53944931007E+02  0.53944931007E+02  0.00000000000E+00 0. -1.
         21   -1    0    0  501  502 -0.00000000000E+00 -0.00000000000E+00 -0.93248938409E+03  0.93248938409E+03  0.00000000000E+00 0. -1.
      99926    2    1    2    0    0  0.00000000000E+00  0.00000000000E+00 -0.87854445308E+03  0.98643431509E+03  0.44856694256E+03 0.  0.
      99925    2    3    3    0    0 -0.48831239314E+02 -0.49418031383E+02 -0.73519511483E+03  0.78389253512E+03  0.26296200864E+03 0.  0.
         25    1    4    4    0    0 -0.39028346799E+02  0.21595265763E+01 -0.43825691565E+03  0.45743251702E+03  0.12509000000E+03 0.  0.
         25    1    3    3    0    0  0.48831239314E+02  0.49418031383E+02 -0.14334933825E+03  0.20254177997E+03  0.12509000000E+03 0.  0.
         25    1    4    4    0    0 -0.98028925143E+01 -0.51577557959E+02 -0.29693819918E+03  0.32646001810E+03  0.12509000000E+03 0.  0.
<mgrwt>
<rscale>  2 0.44856694E+03</rscale>
<asrwt>0</asrwt>
<pdfrwt beam="1">  1       21 0.79330784E-02 0.44856694E+03</pdfrwt>
<pdfrwt beam="2">  1       21 0.13713079E+00 0.44856694E+03</pdfrwt>
<totfact> 0.41757687E+04</totfact>
</mgrwt>
</event>
<event>
 7    0  0.4770865E-002  0.4543590E+03  0.7546771E-02  0.1026430E+00
         21   -1    0    0  502  501  0.00000000000E+00  0.00000000000E+00  0.66580982919E+03  0.66580982919E+03  0.00000000000E+00 0.  1.
         21   -1    0    0  501  502 -0.00000000000E+00 -0.00000000000E+00 -0.77515410558E+02  0.77515410558E+02  0.00000000000E+00 0.  1.
      99926    2    1    2    0    0 -0.71054273576E-14 -0.71054273576E-14  0.58829441864E+03  0.74332523975E+03  0.45435898699E+03 0.  0.
      99925    2    3    3    0    0 -0.53413851602E+02 -0.38227401115E+02  0.22060408432E+03  0.34942415600E+03  0.26290056111E+03 0.  0.
         25    1    3    3    0    0  0.53413851602E+02  0.38227401115E+02  0.36769033431E+03  0.39390108376E+03  0.12509000000E+03 0.  0.
         25    1    4    4    0    0 -0.55911425854E+02 -0.41606122887E+02  0.14178462876E+03  0.20151314115E+03  0.12509000000E+03 0.  0.
         25    1    4    4    0    0  0.24975742515E+01  0.33787217715E+01  0.78819455567E+02  0.14791101485E+03  0.12509000000E+03 0.  0.
<mgrwt>
<rscale>  2 0.45435899E+03</rscale>
<asrwt>0</asrwt>
<pdfrwt beam="1">  1       21 0.97913207E-01 0.45435899E+03</pdfrwt>
<pdfrwt beam="2">  1       21 0.11399325E-01 0.45435899E+03</pdfrwt>
<totfact> 0.50868831E+04</totfact>
</mgrwt>
</event>
<event>
 7    0  0.4770865E-002  0.4236754E+03  0.7546771E-02  0.1035877E+00
         21   -1    0    0  502  501  0.00000000000E+00  0.00000000000E+00  0.58120737053E+03  0.58120737053E+03  0.00000000000E+00 0. -1.
         21   -1    0    0  501  502 -0.00000000000E+00 -0.00000000000E+00 -0.77210341866E+02  0.77210341866E+02  0.00000000000E+00 0. -1.
      99926    2    1    2    0    0 -0.35527136788E-14  0.00000000000E+00  0.50399702866E+03  0.65841771239E+03  0.42367544075E+03 0.  0.
      99925    2    3    3    0    0  0.26141581230E+02 -0.32381367653E+02  0.22048592587E+03  0.34575497277E+03  0.26305992179E+03 0.  0.
         25    1    4    4    0    0 -0.98388770594E+01 -0.35208170461E+02  0.14622835829E+03  0.19587409129E+03  0.12509000000E+03 0.  0.
         25    1    4    4    0    0  0.35980458290E+02  0.28268028081E+01  0.74257567582E+02  0.14988088149E+03  0.12509000000E+03 0.  0.
         25    1    3    3    0    0 -0.26141581230E+02  0.32381367653E+02  0.28351110279E+03  0.31266273962E+03  0.12509000000E+03 0.  0.
<mgrwt>
<rscale>  2 0.42367544E+03</rscale>
<asrwt>0</asrwt>
<pdfrwt beam="1">  1       21 0.85471670E-01 0.42367544E+03</pdfrwt>
<pdfrwt beam="2">  1       21 0.11354462E-01 0.42367544E+03</pdfrwt>
<totfact> 0.71241912E+04</totfact>
</mgrwt>
</event>
<event>
 7    0  0.4770865E-002  0.4551852E+03  0.7546771E-02  0.1026187E+00
         21   -1    0    0  502  501  0.00000000000E+00  0.00000000000E+00  0.86325326394E+02  0.86325326394E+02  0.00000000000E+00 0. -1.
         21   -1    0    0  501  502 -0.00000000000E+00 -0.00000000000E+00 -0.60003702091E+03  0.60003702091E+03  0.00000000000E+00 0. -1.
      99926    2    1    2    0    0  0.00000000000E+00  0.00000000000E+00 -0.51371169451E+03  0.68636234730E+03  0.45518520045E+03 0.  0.
      99925    2    3    3    0    0 -0.10430662663E+03 -0.34692483926E+02 -0.36606352165E+03  0.46380688938E+03  0.26273729837E+03 0.  0.
         25    1    4    4    0    0 -0.60601677742E+02  0.12849417719E+02 -0.14149034262E+03  0.19875788295E+03  0.12509000000E+03 0.  0.
         25    1    4    4    0    0 -0.43704948887E+02 -0.47541901644E+02 -0.22457317903E+03  0.26504900643E+03  0.12509000000E+03 0.  0.
         25    1    3    3    0    0  0.10430662663E+03  0.34692483926E+02 -0.14764817286E+03  0.22255545792E+03  0.12509000000E+03 0.  0.
<mgrwt>
<rscale>  2 0.45518520E+03</rscale>
<asrwt>0</asrwt>
<pdfrwt beam="1">  1       21 0.12694901E-01 0.45518520E+03</pdfrwt>
<pdfrwt beam="2">  1       21 0.88240740E-01 0.45518520E+03</pdfrwt>
<totfact> 0.53571704E+04</totfact>
</mgrwt>
</event>
<event>
 7    0  0.4770865E-002  0.4425829E+03  0.7546771E-02  0.1029957E+00
         21   -1    0    0  502  501  0.00000000000E+00  0.00000000000E+00  0.95633165798E+02  0.95633165798E+02  0.00000000000E+00 0. -1.
         21   -1    0    0  501  502 -0.00000000000E+00 -0.00000000000E+00 -0.51205991226E+03  0.51205991226E+03  0.00000000000E+00 0. -1.
      99926    2    1    2    0    0  0.00000000000E+00  0.17763568394E-14 -0.41642674646E+03  0.60769307806E+03  0.44258292099E+03 0.  0.
      99925    2    3    3    0    0  0.75148619215E+02 -0.80780515273E+01 -0.35728074016E+03  0.45002783760E+03  0.26298851200E+03 0.  0.
         25    1    3    3    0    0 -0.75148619215E+02  0.80780515273E+01 -0.59146006304E+02  0.15766524046E+03  0.12509000000E+03 0.  0.
         25    1    4    4    0    0  0.93074656812E+01  0.19562387316E+02 -0.13644377102E+03  0.18636986523E+03  0.12509000000E+03 0.  0.
         25    1    4    4    0    0  0.65841153534E+02 -0.27640438843E+02 -0.22083696914E+03  0.26365797237E+03  0.12509000000E+03 0.  0.
<mgrwt>
<rscale>  2 0.44258292E+03</rscale>
<asrwt>0</asrwt>
<pdfrwt beam="1">  1       21 0.14063701E-01 0.44258292E+03</pdfrwt>
<pdfrwt beam="2">  1       21 0.75302928E-01 0.44258292E+03</pdfrwt>
<totfact> 0.64284086E+04</totfact>
</mgrwt>
</event>
<event>
 7    0  0.4770865E-002  0.4529894E+03  0.7546771E-02  0.1026834E+00
         21   -1    0    0  502  501  0.00000000000E+00  0.00000000000E+00  0.83718356934E+03  0.83718356934E+03  0.00000000000E+00 0.  1.
         21   -1    0    0  501  502 -0.00000000000E+00 -0.00000000000E+00 -0.61276704442E+02  0.61276704442E+02  0.00000000000E+00 0.  1.
      99926    2    1    2    0    0 -0.14210854715E-13 -0.71054273576E-14  0.77590686490E+03  0.89846027378E+03  0.45298940448E+03 0.  0.
      99925    2    3    3    0    0  0.98624010127E+02  0.37370631517E+02  0.41283428317E+03  0.50022357635E+03  0.26204622018E+03 0.  0.
         25    1    4    4    0    0  0.82325651195E+02  0.27609485515E+02  0.26503828726E+03  0.30566746368E+03  0.12509000000E+03 0.  0.
         25    1    3    3    0    0 -0.98624010127E+02 -0.37370631517E+02  0.36307258173E+03  0.39823669743E+03  0.12509000000E+03 0.  0.
         25    1    4    4    0    0  0.16298358932E+02  0.97611460017E+01  0.14779599590E+03  0.19455611268E+03  0.12509000000E+03 0.  0.
<mgrwt>
<rscale>  2 0.45298940E+03</rscale>
<asrwt>0</asrwt>
<pdfrwt beam="1">  1       21 0.12311522E+00 0.45298940E+03</pdfrwt>
<pdfrwt beam="2">  1       21 0.90112806E-02 0.45298940E+03</pdfrwt>
<totfact> 0.43988728E+04</totfact>
</mgrwt>
</event>
<event>
 7    0  0.4770865E-002  0.4522460E+03  0.7546771E-02  0.1027054E+00
         21   -1    0    0  502  501  0.00000000000E+00  0.00000000000E+00  0.68497272535E+03  0.68497272535E+03  0.00000000000E+00 0. -1.
         21   -1    0    0  501  502 -0.00000000000E+00 -0.00000000000E+00 -0.74647669344E+02  0.74647669344E+02  0.00000000000E+00 0. -1.
      99926    2    1    2    0    0  0.00000000000E+00  0.00000000000E+00  0.61032505600E+03  0.75962039469E+03  0.45224602823E+03 0.  0.
      99925    2    3    3    0    0 -0.57136252400E+02 -0.17535436069E+02  0.22462136671E+03  0.34975836072E+03  0.26135054937E+03 0.  0.
         25    1    3    3    0    0  0.57136252400E+02  0.17535436069E+02  0.38570368929E+03  0.40986203397E+03  0.12509000000E+03 0.  0.
         25    1    4    4    0    0 -0.60555032946E+02 -0.25010770092E+02  0.13752760424E+03  0.19711367447E+03  0.12509000000E+03 0.  0.
         25    1    4    4    0    0  0.34187805461E+01  0.74753340236E+01  0.87093762473E+02  0.15264468625E+03  0.12509000000E+03 0.  0.
<mgrwt>
<rscale>  2 0.45224603E+03</rscale>
<asrwt>0</asrwt>
<pdfrwt beam="1">  1       21 0.10073128E+00 0.45224603E+03</pdfrwt>
<pdfrwt beam="2">  1       21 0.10977599E-01 0.45224603E+03</pdfrwt>
<totfact> 0.50870520E+04</totfact>
</mgrwt>
</event>
<event>
 7    0  0.4770865E-002  0.4517409E+03  0.7546771E-02  0.1027204E+00
         21   -1    0    0  502  501  0.00000000000E+00  0.00000000000E+00  0.53276080338E+03  0.53276080338E+03  0.00000000000E+00 0.  1.
         21   -1    0    0  501  502 -0.00000000000E+00 -0.00000000000E+00 -0.95760541709E+02  0.95760541709E+02  0.00000000000E+00 0.  1.
      99926    2    1    2    0    0  0.00000000000E+00  0.00000000000E+00  0.43700026167E+03  0.62852134508E+03  0.45174091306E+03 0.  0.
      99925    2    3    3    0    0 -0.37792865601E+02  0.99390641924E+02  0.23606644232E+03  0.36904358448E+03  0.26298099107E+03 0.  0.
         25    1    3    3    0    0  0.37792865601E+02 -0.99390641924E+02  0.20093381934E+03  0.25947776060E+03  0.12509000000E+03 0.  0.
         25    1    4    4    0    0 -0.58914475260E+01  0.88969622358E+02  0.13933415610E+03  0.20739290733E+03  0.12509000000E+03 0.  0.
         25    1    4    4    0    0 -0.31901418075E+02  0.10421019566E+02  0.96732286225E+02  0.16165067715E+03  0.12509000000E+03 0.  0.
<mgrwt>
<rscale>  2 0.45174091E+03</rscale>
<asrwt>0</asrwt>
<pdfrwt beam="1">  1       21 0.78347176E-01 0.45174091E+03</pdfrwt>
<pdfrwt beam="2">  1       21 0.14082433E-01 0.45174091E+03</pdfrwt>
<totfact> 0.58445401E+04</totfact>
</mgrwt>
</event>
<event>
 7    0  0.4770865E-002  0.4601300E+03  0.7546771E-02  0.1024744E+00
         21   -1    0    0  502  501  0.00000000000E+00  0.00000000000E+00  0.83050020959E+02  0.83050020959E+02  0.00000000000E+00 0. -1.
         21   -1    0    0  501  502 -0.00000000000E+00 -0.00000000000E+00 -0.63732566009E+03  0.63732566009E+03  0.00000000000E+00 0. -1.
      99926    2    1    2    0    0  0.00000000000E+00  0.00000000000E+00 -0.55427563914E+03  0.72037568105E+03  0.46013002262E+03 0.  0.
      99925    2    3    3    0    0 -0.83319434353E+02 -0.35784138159E+02 -0.22915078585E+03  0.36040858393E+03  0.26298599208E+03 0.  0.
         25    1    3    3    0    0  0.83319434353E+02  0.35784138159E+02 -0.32512485329E+03  0.35996709712E+03  0.12509000000E+03 0.  0.
         25    1    4    4    0    0 -0.61112359473E+02 -0.37602736533E+02 -0.16131021809E+03  0.21637278210E+03  0.12509000000E+03 0.  0.
         25    1    4    4    0    0 -0.22207074880E+02  0.18185983736E+01 -0.67840567762E+02  0.14403580183E+03  0.12509000000E+03 0.  0.
<mgrwt>
<rscale>  2 0.46013002E+03</rscale>
<asrwt>0</asrwt>
<pdfrwt beam="1">  1       21 0.12213238E-01 0.46013002E+03</pdfrwt>
<pdfrwt beam="2">  1       21 0.93724363E-01 0.46013002E+03</pdfrwt>
<totfact> 0.49771719E+04</totfact>
</mgrwt>
</event>
<event>
 7    0  0.4770865E-002  0.4528220E+03  0.7546771E-02  0.1026884E+00
         21   -1    0    0  502  501  0.00000000000E+00  0.00000000000E+00  0.26129233504E+02  0.26129233504E+02  0.00000000000E+00 0.  1.
         21   -1    0    0  501  502 -0.00000000000E+00 -0.00000000000E+00 -0.19618613826E+04  0.19618613826E+04  0.00000000000E+00 0.  1.
      99926    2    1    2    0    0  0.00000000000E+00 -0.14210854715E-13 -0.19357321491E+04  0.19879906161E+04  0.45282197017E+03 0.  0.
      99925    2    3    3    0    0  0.27203470129E+02 -0.93979658309E+02 -0.14522125104E+04  0.14790594281E+04  0.26291331592E+03 0.  0.
         25    1    4    4    0    0 -0.21542145007E+02 -0.48066190548E+02 -0.60404451480E+03  0.61910556987E+03  0.12509000000E+03 0.  0.
         25    1    3    3    0    0 -0.27203470129E+02  0.93979658309E+02 -0.48351963870E+03  0.50893118796E+03  0.12509000000E+03 0.  0.
         25    1    4    4    0    0  0.48745615136E+02 -0.45913467761E+02 -0.84816799558E+03  0.85995385827E+03  0.12509000000E+03 0.  0.
<mgrwt>
<rscale>  2 0.45282197E+03</rscale>
<asrwt>0</asrwt>
<pdfrwt beam="1">  1       21 0.38425332E-02 0.45282197E+03</pdfrwt>
<pdfrwt beam="2">  1       21 0.28850911E+00 0.45282197E+03</pdfrwt>
<totfact> 0.14144385E+04</totfact>
</mgrwt>
</event>
<event>
 7    0  0.4770865E-002  0.4592665E+03  0.7546771E-02  0.1024994E+00
         21   -1    0    0  502  501  0.00000000000E+00  0.00000000000E+00  0.61289267381E+03  0.61289267381E+03  0.00000000000E+00 0.  1.
         21   -1    0    0  501  502 -0.00000000000E+00 -0.00000000000E+00 -0.86036965181E+02  0.86036965181E+02  0.00000000000E+00 0.  1.
      99926    2    1    2    0    0  0.00000000000E+00  0.00000000000E+00  0.52685570863E+03  0.69892963899E+03  0.45926648315E+03 0.  0.
      99925    2    3    3    0    0 -0.68425913177E+02  0.33050716935E+02  0.19474871371E+03  0.33600124432E+03  0.26305003176E+03 0.  0.
         25    1    4    4    0    0 -0.28593892082E+02  0.56531040700E+02  0.10664523372E+03  0.17616493182E+03  0.12509000000E+03 0.  0.
         25    1    4    4    0    0 -0.39832021095E+02 -0.23480323765E+02  0.88103479989E+02  0.15983631250E+03  0.12509000000E+03 0.  0.
         25    1    3    3    0    0  0.68425913177E+02 -0.33050716935E+02  0.33210699492E+03  0.36292839467E+03  0.12509000000E+03 0.  0.
<mgrwt>
<rscale>  2 0.45926648E+03</rscale>
<asrwt>0</asrwt>
<pdfrwt beam="1">  1       21 0.90131273E-01 0.45926648E+03</pdfrwt>
<pdfrwt beam="2">  1       21 0.12652495E-01 0.45926648E+03</pdfrwt>
<totfact> 0.51219486E+04</totfact>
</mgrwt>
</event>
<event>
 7    0  0.4770865E-002  0.4546139E+03  0.7546771E-02  0.1026355E+00
         21   -1    0    0  502  501  0.00000000000E+00  0.00000000000E+00  0.93313483950E+03  0.93313483950E+03  0.00000000000E+00 0.  1.
         21   -1    0    0  501  502 -0.00000000000E+00 -0.00000000000E+00 -0.55370837619E+02  0.55370837619E+02  0.00000000000E+00 0.  1.
      99926    2    1    2    0    0  0.14210854715E-13  0.00000000000E+00  0.87776400188E+03  0.98850567712E+03  0.45461393588E+03 0.  0.
      99925    2    3    3    0    0  0.10242677653E+03  0.43577296309E+02  0.51406684162E+03  0.58811417148E+03  0.26310327961E+03 0.  0.
         25    1    4    4    0    0  0.10340288039E+02  0.29944390732E+02  0.21220916124E+03  0.24836228439E+03  0.12509000000E+03 0.  0.
         25    1    4    4    0    0  0.92086488495E+02  0.13632905577E+02  0.30185768038E+03  0.33975188709E+03  0.12509000000E+03 0.  0.
         25    1    3    3    0    0 -0.10242677653E+03 -0.43577296309E+02  0.36369716026E+03  0.40039150563E+03  0.12509000000E+03 0.  0.
<mgrwt>
<rscale>  2 0.45461394E+03</rscale>
<asrwt>0</asrwt>
<pdfrwt beam="1">  1       21 0.13722570E+00 0.45461394E+03</pdfrwt>
<pdfrwt beam="2">  1       21 0.81427708E-02 0.45461394E+03</pdfrwt>
<totfact> 0.39736482E+04</totfact>
</mgrwt>
</event>
<event>
 7    0  0.4770865E-002  0.4538149E+03  0.7546771E-02  0.1026590E+00
         21   -1    0    0  502  501  0.00000000000E+00  0.00000000000E+00  0.42818066102E+02  0.42818066102E+02  0.00000000000E+00 0. -1.
         21   -1    0    0  501  502 -0.00000000000E+00 -0.00000000000E+00 -0.12024593449E+04  0.12024593449E+04  0.00000000000E+00 0. -1.
      99926    2    1    2    0    0 -0.71054273576E-14  0.71054273576E-14 -0.11596412788E+04  0.12452774110E+04  0.45381486850E+03 0.  0.
      99925    2    3    3    0    0 -0.49807039912E+02  0.56315696950E+02 -0.95853566846E+03  0.99679567414E+03  0.26298058737E+03 0.  0.
         25    1    3    3    0    0  0.49807039912E+02 -0.56315696950E+02 -0.20110561038E+03  0.24848173690E+03  0.12509000000E+03 0.  0.
         25    1    4    4    0    0 -0.20134432830E+02  0.44534667790E+02 -0.62231626776E+03  0.63664258202E+03  0.12509000000E+03 0.  0.
         25    1    4    4    0    0 -0.29672607082E+02  0.11781029160E+02 -0.33621940069E+03  0.36015309212E+03  0.12509000000E+03 0.  0.
<mgrwt>
<rscale>  2 0.45381487E+03</rscale>
<asrwt>0</asrwt>
<pdfrwt beam="1">  1       21 0.62967750E-02 0.45381487E+03</pdfrwt>
<pdfrwt beam="2">  1       21 0.17683224E+00 0.45381487E+03</pdfrwt>
<totfact> 0.31031585E+04</totfact>
</mgrwt>
</event>
<event>
 6    0  0.4770865E-002  0.4576174E+03  0.7546771E-02  0.1025475E+00
         21   -1    0    0  502  501  0.00000000000E+00  0.00000000000E+00  0.77598471446E+03  0.77598471446E+03  0.00000000000E+00 0. -1.
         21   -1    0    0  501  502 -0.00000000000E+00 -0.00000000000E+00 -0.67467079875E+02  0.67467079875E+02  0.00000000000E+00 0. -1.
      99926    2    1    2    0    0 -0.14210854715E-13  0.00000000000E+00  0.70851763459E+03  0.84345179434E+03  0.45761740663E+03 0.  0.
         25    1    3    3    0    0  0.39874369986E+02 -0.13239961856E+02  0.21127087451E+03  0.24909466571E+03  0.12509000000E+03 0.  0.
         25    1    3    3    0    0  0.67378174662E+02  0.54059015218E+02  0.28051165960E+03  0.31905562966E+03  0.12509000000E+03 0.  0.
         25    1    3    3    0    0 -0.10725254465E+03 -0.40819053362E+02  0.21673510048E+03  0.27530149896E+03  0.12509000000E+03 0.  0.
<mgrwt>
<rscale>  2 0.45761741E+03</rscale>
<asrwt>0</asrwt>
<pdfrwt beam="1">  1       21 0.11411539E+00 0.45761741E+03</pdfrwt>
<pdfrwt beam="2">  1       21 0.99216299E-02 0.45761741E+03</pdfrwt>
<totfact> 0.44806573E+04</totfact>
</mgrwt>
</event>
<event>
 7    0  0.4770865E-002  0.4537072E+03  0.7546771E-02  0.1026622E+00
         21   -1    0    0  502  501  0.00000000000E+00  0.00000000000E+00  0.20826609416E+03  0.20826609416E+03  0.00000000000E+00 0.  1.
         21   -1    0    0  501  502 -0.00000000000E+00 -0.00000000000E+00 -0.24710006143E+03  0.24710006143E+03  0.00000000000E+00 0.  1.
      99926    2    1    2    0    0 -0.14210854715E-13 -0.71054273576E-14 -0.38833967267E+02  0.45536615559E+03  0.45370723891E+03 0.  0.
      99925    2    3    3    0    0 -0.10505572157E+03  0.34455209911E+02 -0.32302857826E+02  0.28829123342E+03  0.26428108998E+03 0.  0.
         25    1    3    3    0    0  0.10505572157E+03 -0.34455209911E+02 -0.65311094416E+01  0.16707492216E+03  0.12509000000E+03 0.  0.
         25    1    4    4    0    0 -0.66326004144E+02 -0.20694057495E+02 -0.29911024975E+02  0.14618331080E+03  0.12509000000E+03 0.  0.
         25    1    4    4    0    0 -0.38729717430E+02  0.55149267406E+02 -0.23918328508E+01  0.14210792262E+03  0.12509000000E+03 0.  0.
<mgrwt>
<rscale>  2 0.45370724E+03</rscale>
<asrwt>0</asrwt>
<pdfrwt beam="1">  1       21 0.30627367E-01 0.45370724E+03</pdfrwt>
<pdfrwt beam="2">  1       21 0.36338244E-01 0.45370724E+03</pdfrwt>
<totfact> 0.69230328E+04</totfact>
</mgrwt>
</event>
<event>
 7    0  0.4770865E-002  0.4266173E+03  0.7546771E-02  0.1034934E+00
         21   -1    0    0  502  501  0.00000000000E+00  0.00000000000E+00  0.23519391003E+03  0.23519391003E+03  0.00000000000E+00 0. -1.
         21   -1    0    0  501  502 -0.00000000000E+00 -0.00000000000E+00 -0.19345982364E+03  0.19345982364E+03  0.00000000000E+00 0. -1.
      99926    2    1    2    0    0  0.71054273576E-14  0.00000000000E+00  0.41734086396E+02  0.42865373367E+03  0.42661726339E+03 0.  0.
      99925    2    3    3    0    0 -0.48127531021E+02 -0.67989043373E+02  0.36855046939E+02  0.27828724011E+03  0.26295764728E+03 0.  0.
         25    1    4    4    0    0 -0.51820400164E+02 -0.33761342878E+02 -0.11057909377E+02  0.13998202601E+03  0.12509000000E+03 0.  0.
         25    1    3    3    0    0  0.48127531021E+02  0.67989043373E+02  0.48790394566E+01  0.15036649356E+03  0.12509000000E+03 0.  0.
         25    1    4    4    0    0  0.36928691436E+01 -0.34227700495E+02  0.47912956317E+02  0.13830521410E+03  0.12509000000E+03 0.  0.
<mgrwt>
<rscale>  2 0.42661726E+03</rscale>
<asrwt>0</asrwt>
<pdfrwt beam="1">  1       21 0.34587340E-01 0.42661726E+03</pdfrwt>
<pdfrwt beam="2">  1       21 0.28449974E-01 0.42661726E+03</pdfrwt>
<totfact> 0.89039130E+04</totfact>
</mgrwt>
</event>
<event>
 7    0  0.4770865E-002  0.4626226E+03  0.7546771E-02  0.1024023E+00
         21   -1    0    0  502  501  0.00000000000E+00  0.00000000000E+00  0.27041032374E+03  0.27041032374E+03  0.00000000000E+00 0. -1.
         21   -1    0    0  501  502 -0.00000000000E+00 -0.00000000000E+00 -0.19786567250E+03  0.19786567250E+03  0.00000000000E+00 0. -1.
      99926    2    1    2    0    0  0.00000000000E+00  0.00000000000E+00  0.72544651246E+02  0.46827599624E+03  0.46262261318E+03 0.  0.
      99925    2    3    3    0    0  0.61962486135E+02  0.92745829671E+02  0.89925929631E+02  0.29978043087E+03  0.26332583486E+03 0.  0.
         25    1    4    4    0    0  0.50874991114E+02  0.16493285355E+02  0.21584144022E+02  0.13774496926E+03  0.12509000000E+03 0.  0.
         25    1    4    4    0    0  0.11087495022E+02  0.76252544316E+02  0.68341785609E+02  0.16203546162E+03  0.12509000000E+03 0.  0.
         25    1    3    3    0    0 -0.61962486135E+02 -0.92745829671E+02 -0.17381278385E+02  0.16849556537E+03  0.12509000000E+03 0.  0.
<mgrwt>
<rscale>  2 0.46262261E+03</rscale>
<asrwt>0</asrwt>
<pdfrwt beam="1">  1       21 0.39766224E-01 0.46262261E+03</pdfrwt>
<pdfrwt beam="2">  1       21 0.29097893E-01 0.46262261E+03</pdfrwt>
<totfact> 0.63624027E+04</totfact>
</mgrwt>
</event>
<event>
 7    0  0.4770865E-002  0.4440119E+03  0.7546771E-02  0.1029523E+00
         21   -1    0    0  502  501  0.00000000000E+00  0.00000000000E+00  0.23020183350E+03  0.23020183350E+03  0.00000000000E+00 0.  1.
         21   -1    0    0  501  502 -0.00000000000E+00 -0.00000000000E+00 -0.21410188407E+03  0.21410188407E+03  0.00000000000E+00 0.  1.
      99926    2    1    2    0    0  0.00000000000E+00 -0.26645352591E-14  0.16099949427E+02  0.44430371757E+03  0.44401191997E+03 0.  0.
      99925    2    3    3    0    0 -0.95317715491E+02 -0.75038086471E+01  0.48743153871E+02  0.28350924961E+03  0.26241155755E+03 0.  0.
         25    1    4    4    0    0 -0.53542724826E+02 -0.42811131682E+02  0.29035311049E+02  0.14556845045E+03  0.12509000000E+03 0.  0.
         25    1    4    4    0    0 -0.41774990664E+02  0.35307323035E+02  0.19707842822E+02  0.13794079916E+03  0.12509000000E+03 0.  0.
         25    1    3    3    0    0  0.95317715491E+02  0.75038086471E+01 -0.32643204444E+02  0.16079446796E+03  0.12509000000E+03 0.  0.
<mgrwt>
<rscale>  2 0.44401192E+03</rscale>
<asrwt>0</asrwt>
<pdfrwt beam="1">  1       21 0.33853211E-01 0.44401192E+03</pdfrwt>
<pdfrwt beam="2">  1       21 0.31485571E-01 0.44401192E+03</pdfrwt>
<totfact> 0.75764390E+04</totfact>
</mgrwt>
</event>
<event>
 7    0  0.4770865E-002  0.4539850E+03  0.7546771E-02  0.1026540E+00
         21   -1    0    0  502  501  0.00000000000E+00  0.00000000000E+00  0.11092135119E+04  0.11092135119E+04  0.00000000000E+00 0.  1.
         21   -1    0    0  501  502 -0.00000000000E+00 -0.00000000000E+00 -0.46452375305E+02  0.46452375305E+02  0.00000000000E+00 0.  1.
      99926    2    1    2    0    0 -0.71054273576E-14  0.00000000000E+00  0.10627611366E+04  0.11556658872E+04  0.45398503212E+03 0.  0.
      99925    2    3    3    0    0 -0.35348656389E+02  0.10415647455E+03  0.72822834008E+03  0.78195771396E+03  0.26276082744E+03 0.  0.
         25    1    4    4    0    0  0.13500521065E+02  0.57592145547E+02  0.42742546215E+03  0.44926512561E+03  0.12509000000E+03 0.  0.
         25    1    3    3    0    0  0.35348656389E+02 -0.10415647455E+03  0.33453279647E+03  0.37370817320E+03  0.12509000000E+03 0.  0.
         25    1    4    4    0    0 -0.48849177454E+02  0.46564329004E+02  0.30080287793E+03  0.33269258835E+03  0.12509000000E+03 0.  0.
<mgrwt>
<rscale>  2 0.45398503E+03</rscale>
<asrwt>0</asrwt>
<pdfrwt beam="1">  1       21 0.16311962E+00 0.45398503E+03</pdfrwt>
<pdfrwt beam="2">  1       21 0.68312323E-02 0.45398503E+03</pdfrwt>
<totfact> 0.33860801E+04</totfact>
</mgrwt>
</event>
<event>
 7    0  0.4770865E-002  0.4379781E+03  0.7546771E-02  0.1031369E+00
         21   -1    0    0  502  501  0.00000000000E+00  0.00000000000E+00  0.99801172061E+02  0.99801172061E+02  0.00000000000E+00 0.  1.
         21   -1    0    0  501  502 -0.00000000000E+00 -0.00000000000E+00 -0.48051739976E+03  0.48051739976E+03  0.00000000000E+00 0.  1.
      99926    2    1    2    0    0  0.00000000000E+00  0.00000000000E+00 -0.38071622769E+03  0.58031857182E+03  0.43797808023E+03 0.  0.
      99925    2    3    3    0    0  0.84989989740E+02  0.41936290999E+02 -0.21529562595E+03  0.35229788320E+03  0.26225872929E+03 0.  0.
         25    1    3    3    0    0 -0.84989989740E+02 -0.41936290999E+02 -0.16542060174E+03  0.22802068862E+03  0.12509000000E+03 0.  0.
         25    1    4    4    0    0  0.75797213619E+02  0.20575034449E+02 -0.86079739051E+02  0.17095548897E+03  0.12509000000E+03 0.  0.
         25    1    4    4    0    0  0.91927761214E+01  0.21361256550E+02 -0.12921588690E+03  0.18134239422E+03  0.12509000000E+03 0.  0.
<mgrwt>
<rscale>  2 0.43797808E+03</rscale>
<asrwt>0</asrwt>
<pdfrwt beam="1">  1       21 0.14676643E-01 0.43797808E+03</pdfrwt>
<pdfrwt beam="2">  1       21 0.70664324E-01 0.43797808E+03</pdfrwt>
<totfact> 0.68693695E+04</totfact>
</mgrwt>
</event>
<event>
 6    0  0.4770865E-002  0.4353832E+03  0.7546771E-02  0.1032173E+00
         21   -1    0    0  502  501  0.00000000000E+00  0.00000000000E+00  0.39764203987E+02  0.39764203987E+02  0.00000000000E+00 0.  1.
         21   -1    0    0  501  502 -0.00000000000E+00 -0.00000000000E+00 -0.11917661462E+04  0.11917661462E+04  0.00000000000E+00 0.  1.
      99926    2    1    2    0    0 -0.35527136788E-14  0.71054273576E-14 -0.11520019422E+04  0.12315303501E+04  0.43538319738E+03 0.  0.
         25    1    3    3    0    0  0.24102965262E+02 -0.37892221651E+01 -0.23923053660E+03  0.27106100583E+03  0.12509000000E+03 0.  0.
         25    1    3    3    0    0  0.17943122228E+02 -0.50886440834E+02 -0.61894883776E+03  0.63376380250E+03  0.12509000000E+03 0.  0.
         25    1    3    3    0    0 -0.42046087490E+02  0.54675662999E+02 -0.29382256782E+03  0.32670554182E+03  0.12509000000E+03 0.  0.
<mgrwt>
<rscale>  2 0.43538320E+03</rscale>
<asrwt>0</asrwt>
<pdfrwt beam="1">  1       21 0.58476784E-02 0.43538320E+03</pdfrwt>
<pdfrwt beam="2">  1       21 0.17525969E+00 0.43538320E+03</pdfrwt>
<totfact> 0.36421269E+04</totfact>
</mgrwt>
</event>
<event>
 7    0  0.4770865E-002  0.4543924E+03  0.7546771E-02  0.1026420E+00
         21   -1    0    0  502  501  0.00000000000E+00  0.00000000000E+00  0.21300912098E+04  0.21300912098E+04  0.00000000000E+00 0. -1.
         21   -1    0    0  501  502 -0.00000000000E+00 -0.00000000000E+00 -0.24232815124E+02  0.24232815124E+02  0.00000000000E+00 0. -1.
      99926    2    1    2    0    0  0.00000000000E+00  0.35527136788E-14  0.21058583947E+04  0.21543240250E+04  0.45439237002E+03 0.  0.
      99925    2    3    3    0    0  0.23291452889E+02 -0.17429297497E+02  0.80960461280E+03  0.85172368433E+03  0.26292077360E+03 0.  0.
         25    1    3    3    0    0 -0.23291452889E+02  0.17429297497E+02  0.12962537819E+04  0.13026003406E+04  0.12509000000E+03 0.  0.
         25    1    4    4    0    0  0.22488393769E+02  0.30140080401E+02  0.40989055004E+03  0.43019986449E+03  0.12509000000E+03 0.  0.
         25    1    4    4    0    0  0.80305911989E+00 -0.47569377899E+02  0.39971406276E+03  0.42152381983E+03  0.12509000000E+03 0.  0.
<mgrwt>
<rscale>  2 0.45439237E+03</rscale>
<asrwt>0</asrwt>
<pdfrwt beam="1">  1       21 0.31324858E+00 0.45439237E+03</pdfrwt>
<pdfrwt beam="2">  1       21 0.35636507E-02 0.45439237E+03</pdfrwt>
<totfact> 0.11403603E+04</totfact>
</mgrwt>
</event>
<event>
 7    0  0.4770865E-002  0.4561772E+03  0.7546771E-02  0.1025896E+00
         21   -1    0    0  502  501  0.00000000000E+00  0.00000000000E+00  0.34717031619E+02  0.34717031619E+02  0.00000000000E+00 0. -1.
         21   -1    0    0  501  502 -0.00000000000E+00 -0.00000000000E+00 -0.14985270777E+04  0.14985270777E+04  0.00000000000E+00 0. -1.
      99926    2    1    2    0    0  0.71054273576E-14  0.00000000000E+00 -0.14638100461E+04  0.15332441093E+04  0.45617721091E+03 0.  0.
      99925    2    3    3    0    0 -0.41799072883E+02 -0.10026519511E+03 -0.10399898784E+04  0.10781932171E+04  0.26290947959E+03 0.  0.
         25    1    3    3    0    0  0.41799072883E+02  0.10026519511E+03 -0.42382016769E+03  0.45505089220E+03  0.12509000000E+03 0.  0.
         25    1    4    4    0    0 -0.33625351134E+02 -0.58914997834E+02 -0.68089489222E+03  0.69560549420E+03  0.12509000000E+03 0.  0.
         25    1    4    4    0    0 -0.81737217491E+01 -0.41350197275E+02 -0.35909498616E+03  0.38258772292E+03  0.12509000000E+03 0.  0.
<mgrwt>
<rscale>  2 0.45617721E+03</rscale>
<asrwt>0</asrwt>
<pdfrwt beam="1">  1       21 0.51054477E-02 0.45617721E+03</pdfrwt>
<pdfrwt beam="2">  1       21 0.22037155E+00 0.45617721E+03</pdfrwt>
<totfact> 0.22767145E+04</totfact>
</mgrwt>
</event>
<event>
 7    0  0.4770865E-002  0.4467687E+03  0.7546771E-02  0.1028690E+00
         21   -1    0    0  502  501  0.00000000000E+00  0.00000000000E+00  0.28255887569E+03  0.28255887569E+03  0.00000000000E+00 0. -1.
         21   -1    0    0  501  502 -0.00000000000E+00 -0.00000000000E+00 -0.17660240219E+03  0.17660240219E+03  0.00000000000E+00 0. -1.
      99926    2    1    2    0    0  0.00000000000E+00  0.00000000000E+00  0.10595647350E+03  0.45916127788E+03  0.44676873753E+03 0.  0.
      99925    2    3    3    0    0  0.97073662619E+02  0.34238755008E+02  0.89879297374E+02  0.29636824360E+03  0.26298338236E+03 0.  0.
         25    1    3    3    0    0 -0.97073662619E+02 -0.34238755008E+02  0.16077176129E+02  0.16279303428E+03  0.12509000000E+03 0.  0.
         25    1    4    4    0    0  0.15200579849E+02  0.90512769574E+01  0.14833550985E+02  0.12720269485E+03  0.12509000000E+03 0.  0.
         25    1    4    4    0    0  0.81873082769E+02  0.25187478051E+02  0.75045746389E+02  0.16916554875E+03  0.12509000000E+03 0.  0.
<mgrwt>
<rscale>  2 0.44676874E+03</rscale>
<asrwt>0</asrwt>
<pdfrwt beam="1">  1       21 0.41552776E-01 0.44676874E+03</pdfrwt>
<pdfrwt beam="2">  1       21 0.25970942E-01 0.44676874E+03</pdfrwt>
<totfact> 0.72894970E+04</totfact>
</mgrwt>
</event>
