<event>
 7    0  0.4732500E-002  0.4573626E+03  0.7546771E-02  0.1025549E+00
         21   -1    0    0  502  501  0.00000000000E+00  0.00000000000E+00  0.17522665903E+03  0.17522665903E+03  0.00000000000E+00 0. -1.
         21   -1    0    0  501  502 -0.00000000000E+00 -0.00000000000E+00 -0.29844279860E+03  0.29844279860E+03  0.00000000000E+00 0. -1.
      99926    2    1    2    0    0  0.00000000000E+00  0.00000000000E+00 -0.12321613957E+03  0.47366945763E+03  0.45736258924E+03 0.  0.
      99925    2    3    3    0    0 -0.26247502497E+02  0.56934260983E+02 -0.17779482567E+03  0.32348030177E+03  0.26286510635E+03 0.  0.
         25    1    4    4    0    0 -0.24920197977E+02  0.20999927484E+02 -0.43314445706E+02  0.13632924312E+03  0.12509000000E+03 0.  0.
         25    1    3    3    0    0  0.26247502497E+02 -0.56934260983E+02  0.54578686094E+02  0.15018915586E+03  0.12509000000E+03 0.  0.
         25    1    4    4    0    0 -0.13273045195E+01  0.35934333499E+02 -0.13448037996E+03  0.18715105866E+03  0.12509000000E+03 0.  0.
<mgrwt>
<rscale>  2 0.45736259E+03</rscale>
<asrwt>0</asrwt>
<pdfrwt beam="1">  1       21 0.25768627E-01 0.45736259E+03</pdfrwt>
<pdfrwt beam="2">  1       21 0.43888646E-01 0.45736259E+03</pdfrwt>
<totfact> 0.65919513E+04</totfact>
</mgrwt>
</event>
<event>
 7    0  0.4732500E-002  0.4498423E+03  0.7546771E-02  0.1027769E+00
         21   -1    0    0  502  501  0.00000000000E+00  0.00000000000E+00  0.60290717177E+02  0.60290717177E+02  0.00000000000E+00 0.  1.
         21   -1    0    0  501  502 -0.00000000000E+00 -0.00000000000E+00 -0.83909320233E+03  0.83909320233E+03  0.00000000000E+00 0.  1.
      99926    2    1    2    0    0 -0.14210854715E-13  0.71054273576E-14 -0.77880248516E+03  0.89938391951E+03  0.44984233214E+03 0.  0.
      99925    2    3    3    0    0  0.91110399201E+02 -0.45404955416E+02 -0.56733685021E+03  0.63343667346E+03  0.26269412414E+03 0.  0.
         25    1    4    4    0    0  0.84580768110E+02 -0.19363987913E+02 -0.27492561502E+03  0.31426178937E+03  0.12509000000E+03 0.  0.
         25    1    3    3    0    0 -0.91110399201E+02  0.45404955416E+02 -0.21146563495E+03  0.26594724605E+03  0.12509000000E+03 0.  0.
         25    1    4    4    0    0  0.65296310907E+01 -0.26040967503E+02 -0.29241123519E+03  0.31917488409E+03  0.12509000000E+03 0.  0.
<mgrwt>
<rscale>  2 0.44984233E+03</rscale>
<asrwt>0</asrwt>
<pdfrwt beam="1">  1       21 0.88662822E-02 0.44984233E+03</pdfrwt>
<pdfrwt beam="2">  1       21 0.12339606E+00 0.44984233E+03</pdfrwt>
<totfact> 0.45052073E+04</totfact>
</mgrwt>
</event>
<event>
 7    0  0.4732500E-002  0.4546084E+03  0.7546771E-02  0.1026357E+00
         21   -1    0    0  502  501  0.00000000000E+00  0.00000000000E+00  0.52998404622E+03  0.52998404622E+03  0.00000000000E+00 0.  1.
         21   -1    0    0  501  502 -0.00000000000E+00 -0.00000000000E+00 -0.97488202914E+02  0.97488202914E+02  0.00000000000E+00 0.  1.
      99926    2    1    2    0    0  0.88817841970E-15  0.71054273576E-14  0.43249584331E+03  0.62747224913E+03  0.45460836877E+03 0.  0.
      99925    2    3    3    0    0 -0.42839352646E+01 -0.24335242220E+02  0.42390431617E+03  0.49967601072E+03  0.26338316253E+03 0.  0.
         25    1    3    3    0    0  0.42839352646E+01  0.24335242220E+02  0.85915271376E+01  0.12779623842E+03  0.12509000000E+03 0.  0.
         25    1    4    4    0    0 -0.20702404377E+02 -0.48769390967E+02  0.22716638083E+03  0.26468682574E+03  0.12509000000E+03 0.  0.
         25    1    4    4    0    0  0.16418469112E+02  0.24434148747E+02  0.19673793534E+03  0.23498918498E+03  0.12509000000E+03 0.  0.
<mgrwt>
<rscale>  2 0.45460837E+03</rscale>
<asrwt>0</asrwt>
<pdfrwt beam="1">  1       21 0.77938829E-01 0.45460837E+03</pdfrwt>
<pdfrwt beam="2">  1       21 0.14336501E-01 0.45460837E+03</pdfrwt>
<totfact> 0.57194987E+04</totfact>
</mgrwt>
</event>
<event>
 7    0  0.4732500E-002  0.4450846E+03  0.7546771E-02  0.1029198E+00
         21   -1    0    0  502  501  0.00000000000E+00  0.00000000000E+00  0.44426771351E+03  0.44426771351E+03  0.00000000000E+00 0.  1.
         21   -1    0    0  501  502 -0.00000000000E+00 -0.00000000000E+00 -0.11147573611E+03  0.11147573611E+03  0.00000000000E+00 0.  1.
      99926    2    1    2    0    0  0.00000000000E+00  0.00000000000E+00  0.33279197739E+03  0.55574344962E+03  0.44508457801E+03 0.  0.
      99925    2    3    3    0    0  0.80441131890E+01  0.80785595407E+02  0.29172934472E+03  0.40106743958E+03  0.26297920133E+03 0.  0.
         25    1    4    4    0    0  0.32778980602E+02  0.54053497650E+02  0.11379761790E+03  0.18053711008E+03  0.12509000000E+03 0.  0.
         25    1    3    3    0    0 -0.80441131890E+01 -0.80785595407E+02  0.41062632673E+02  0.15467601005E+03  0.12509000000E+03 0.  0.
         25    1    4    4    0    0 -0.24734867413E+02  0.26732097758E+02  0.17793172682E+03  0.22053032949E+03  0.12509000000E+03 0.  0.
<mgrwt>
<rscale>  2 0.44508458E+03</rscale>
<asrwt>0</asrwt>
<pdfrwt beam="1">  1       21 0.65333487E-01 0.44508458E+03</pdfrwt>
<pdfrwt beam="2">  1       21 0.16393491E-01 0.44508458E+03</pdfrwt>
<totfact> 0.66557528E+04</totfact>
</mgrwt>
</event>
<event>
 7    0  0.4732500E-002  0.4549430E+03  0.7546771E-02  0.1026258E+00
         21   -1    0    0  502  501  0.00000000000E+00  0.00000000000E+00  0.32102031774E+03  0.32102031774E+03  0.00000000000E+00 0.  1.
         21   -1    0    0  501  502 -0.00000000000E+00 -0.00000000000E+00 -0.16118383982E+03  0.16118383982E+03  0.00000000000E+00 0.  1.
      99926    2    1    2    0    0  0.00000000000E+00  0.00000000000E+00  0.15983647792E+03  0.48220415756E+03  0.45494301829E+03 0.  0.
      99925    2    3    3    0    0  0.15653211439E+02  0.11107272436E+03  0.85187546313E+02  0.29835056305E+03  0.26300944337E+03 0.  0.
         25    1    4    4    0    0  0.18076546014E+02  0.20660357467E+02  0.61898420911E+02  0.14224111395E+03  0.12509000000E+03 0.  0.
         25    1    3    3    0    0 -0.15653211439E+02 -0.11107272436E+03  0.74648931603E+02  0.18385359451E+03  0.12509000000E+03 0.  0.
         25    1    4    4    0    0 -0.24233345750E+01  0.90412366888E+02  0.23289125402E+02  0.15610944910E+03  0.12509000000E+03 0.  0.
<mgrwt>
<rscale>  2 0.45494302E+03</rscale>
<asrwt>0</asrwt>
<pdfrwt beam="1">  1       21 0.47208870E-01 0.45494302E+03</pdfrwt>
<pdfrwt beam="2">  1       21 0.23703506E-01 0.45494302E+03</pdfrwt>
<totfact> 0.66570108E+04</totfact>
</mgrwt>
</event>
<event>
 7    0  0.4732500E-002  0.4522177E+03  0.7546771E-02  0.1027063E+00
         21   -1    0    0  502  501  0.00000000000E+00  0.00000000000E+00  0.48813050397E+02  0.48813050397E+02  0.00000000000E+00 0.  1.
         21   -1    0    0  501  502 -0.00000000000E+00 -0.00000000000E+00 -0.10473676486E+04  0.10473676486E+04  0.00000000000E+00 0.  1.
      99926    2    1    2    0    0  0.00000000000E+00  0.14210854715E-13 -0.99855459816E+03  0.10961806990E+04  0.45221769011E+03 0.  0.
      99925    2    3    3    0    0  0.94006871144E+01  0.10927682762E+03 -0.66450883339E+03  0.72299993976E+03  0.26292037819E+03 0.  0.
         25    1    4    4    0    0 -0.57080261850E+01  0.88690435300E+02 -0.42024682425E+03  0.44738515428E+03  0.12509000000E+03 0.  0.
         25    1    3    3    0    0 -0.94006871144E+01 -0.10927682762E+03 -0.33404576477E+03  0.37318075919E+03  0.12509000000E+03 0.  0.
         25    1    4    4    0    0  0.15108713299E+02  0.20586392317E+02 -0.24426200914E+03  0.27561478548E+03  0.12509000000E+03 0.  0.
<mgrwt>
<rscale>  2 0.45221769E+03</rscale>
<asrwt>0</asrwt>
<pdfrwt beam="1">  1       21 0.71783898E-02 0.45221769E+03</pdfrwt>
<pdfrwt beam="2">  1       21 0.15402465E+00 0.45221769E+03</pdfrwt>
<totfact> 0.36410900E+04</totfact>
</mgrwt>
</event>
<event>
 7    0  0.4732500E-002  0.4554064E+03  0.7546771E-02  0.1026122E+00
         21   -1    0    0  502  501  0.00000000000E+00  0.00000000000E+00  0.11436808832E+04  0.11436808832E+04  0.00000000000E+00 0. -1.
         21   -1    0    0  501  502 -0.00000000000E+00 -0.00000000000E+00 -0.45334980223E+02  0.45334980223E+02  0.00000000000E+00 0. -1.
      99926    2    1    2    0    0  0.66613381478E-15  0.14210854715E-13  0.10983459029E+04  0.11890158634E+04  0.45540641286E+03 0.  0.
      99925    2    3    3    0    0  0.13245561536E+01 -0.68889910081E+02  0.45515982184E+03  0.53016579153E+03  0.26297857124E+03 0.  0.
         25    1    4    4    0    0 -0.10910131413E+02 -0.46319958340E+02  0.30485679865E+03  0.33294105378E+03  0.12509000000E+03 0.  0.
         25    1    3    3    0    0 -0.13245561536E+01  0.68889910081E+02  0.64318608111E+03  0.65885007186E+03  0.12509000000E+03 0.  0.
         25    1    4    4    0    0  0.12234687566E+02 -0.22569951741E+02  0.15030302318E+03  0.19722473775E+03  0.12509000000E+03 0.  0.
<mgrwt>
<rscale>  2 0.45540641E+03</rscale>
<asrwt>0</asrwt>
<pdfrwt beam="1">  1       21 0.16818835E+00 0.45540641E+03</pdfrwt>
<pdfrwt beam="2">  1       21 0.66669096E-02 0.45540641E+03</pdfrwt>
<totfact> 0.32403315E+04</totfact>
</mgrwt>
</event>
<event>
 7    0  0.4732500E-002  0.4541320E+03  0.7546771E-02  0.1026497E+00
         21   -1    0    0  502  501  0.00000000000E+00  0.00000000000E+00  0.38508271171E+02  0.38508271171E+02  0.00000000000E+00 0.  1.
         21   -1    0    0  501  502 -0.00000000000E+00 -0.00000000000E+00 -0.13389061357E+04  0.13389061357E+04  0.00000000000E+00 0.  1.
      99926    2    1    2    0    0  0.00000000000E+00  0.00000000000E+00 -0.13003978645E+04  0.13774144068E+04  0.45413196560E+03 0.  0.
      99925    2    3    3    0    0 -0.37321630893E+02 -0.95481886172E+02 -0.95852194852E+03  0.99921294631E+03  0.26296861327E+03 0.  0.
         25    1    4    4    0    0  0.11651028695E+02 -0.59307789744E+02 -0.39308988840E+03  0.41691765237E+03  0.12509000000E+03 0.  0.
         25    1    3    3    0    0  0.37321630893E+02  0.95481886172E+02 -0.34187591599E+03  0.37820146054E+03  0.12509000000E+03 0.  0.
         25    1    4    4    0    0 -0.48972659589E+02 -0.36174096428E+02 -0.56543206012E+03  0.58229529394E+03  0.12509000000E+03 0.  0.
<mgrwt>
<rscale>  2 0.45413197E+03</rscale>
<asrwt>0</asrwt>
<pdfrwt beam="1">  1       21 0.56629818E-02 0.45413197E+03</pdfrwt>
<pdfrwt beam="2">  1       21 0.19689794E+00 0.45413197E+03</pdfrwt>
<totfact> 0.27122664E+04</totfact>
</mgrwt>
</event>
<event>
 7    0  0.4732500E-002  0.4511174E+03  0.7546771E-02  0.1027389E+00
         21   -1    0    0  502  501  0.00000000000E+00  0.00000000000E+00  0.29958160835E+03  0.29958160835E+03  0.00000000000E+00 0. -1.
         21   -1    0    0  501  502 -0.00000000000E+00 -0.00000000000E+00 -0.16982590652E+03  0.16982590652E+03  0.00000000000E+00 0. -1.
      99926    2    1    2    0    0  0.00000000000E+00  0.00000000000E+00  0.12975570183E+03  0.46940751487E+03  0.45111736041E+03 0.  0.
      99925    2    3    3    0    0  0.27485277667E+02 -0.76105885208E+01  0.19191534094E+03  0.32684282647E+03  0.26302352287E+03 0.  0.
         25    1    4    4    0    0  0.79714043531E+01  0.11778016543E+02  0.49424736514E+02  0.13525005597E+03  0.12509000000E+03 0.  0.
         25    1    4    4    0    0  0.19513873314E+02 -0.19388605063E+02  0.14249060442E+03  0.19159277050E+03  0.12509000000E+03 0.  0.
         25    1    3    3    0    0 -0.27485277667E+02  0.76105885208E+01 -0.62159639107E+02  0.14256468840E+03  0.12509000000E+03 0.  0.
<mgrwt>
<rscale>  2 0.45111736E+03</rscale>
<asrwt>0</asrwt>
<pdfrwt beam="1">  1       21 0.44056119E-01 0.45111736E+03</pdfrwt>
<pdfrwt beam="2">  1       21 0.24974398E-01 0.45111736E+03</pdfrwt>
<totfact> 0.69599192E+04</totfact>
</mgrwt>
</event>
<event>
 7    0  0.4732500E-002  0.4558387E+03  0.7546771E-02  0.1025995E+00
         21   -1    0    0  502  501  0.00000000000E+00  0.00000000000E+00  0.13440682136E+03  0.13440682136E+03  0.00000000000E+00 0.  1.
         21   -1    0    0  501  502 -0.00000000000E+00 -0.00000000000E+00 -0.38649250892E+03  0.38649250892E+03  0.00000000000E+00 0.  1.
      99926    2    1    2    0    0 -0.44408920985E-15  0.14210854715E-13 -0.25208568755E+03  0.52089933028E+03  0.45583869780E+03 0.  0.
      99925    2    3    3    0    0  0.26032665980E+01 -0.79203549775E+02 -0.65023660186E+02  0.28232085372E+03  0.26305324322E+03 0.  0.
         25    1    3    3    0    0 -0.26032665980E+01  0.79203549775E+02 -0.18706202737E+03  0.23857847656E+03  0.12509000000E+03 0.  0.
         25    1    4    4    0    0 -0.18103988002E+02 -0.76664603077E+02 -0.38525317156E+02  0.15276427563E+03  0.12509000000E+03 0.  0.
         25    1    4    4    0    0  0.20707254600E+02 -0.25389466981E+01 -0.26498343031E+02  0.12955657809E+03  0.12509000000E+03 0.  0.
<mgrwt>
<rscale>  2 0.45583870E+03</rscale>
<asrwt>0</asrwt>
<pdfrwt beam="1">  1       21 0.19765710E-01 0.45583870E+03</pdfrwt>
<pdfrwt beam="2">  1       21 0.56837132E-01 0.45583870E+03</pdfrwt>
<totfact> 0.63403098E+04</totfact>
</mgrwt>
</event>
<event>
 7    0  0.4732500E-002  0.4612855E+03  0.7546771E-02  0.1024409E+00
         21   -1    0    0  502  501  0.00000000000E+00  0.00000000000E+00  0.15416473259E+03  0.15416473259E+03  0.00000000000E+00 0.  1.
         21   -1    0    0  501  502 -0.00000000000E+00 -0.00000000000E+00 -0.34505994210E+03  0.34505994210E+03  0.00000000000E+00 0.  1.
      99926    2    1    2    0    0  0.00000000000E+00  0.00000000000E+00 -0.19089520951E+03  0.49922467469E+03  0.46128548081E+03 0.  0.
      99925    2    3    3    0    0  0.72615253916E+02 -0.94032227192E+02 -0.12461970444E+03  0.31441399988E+03  0.26307994552E+03 0.  0.
         25    1    3    3    0    0 -0.72615253916E+02  0.94032227192E+02 -0.66275505070E+02  0.18481067481E+03  0.12509000000E+03 0.  0.
         25    1    4    4    0    0  0.71368783002E+02 -0.66070398774E+02 -0.50289816817E+02  0.16623890807E+03  0.12509000000E+03 0.  0.
         25    1    4    4    0    0  0.12464709139E+01 -0.27961828418E+02 -0.74329887627E+02  0.14817509181E+03  0.12509000000E+03 0.  0.
<mgrwt>
<rscale>  2 0.46128548E+03</rscale>
<asrwt>0</asrwt>
<pdfrwt beam="1">  1       21 0.22671284E-01 0.46128548E+03</pdfrwt>
<pdfrwt beam="2">  1       21 0.50744109E-01 0.46128548E+03</pdfrwt>
<totfact> 0.62164927E+04</totfact>
</mgrwt>
</event>
<event>
 7    0  0.4732500E-002  0.4508825E+03  0.7546771E-02  0.1027459E+00
         21   -1    0    0  502  501  0.00000000000E+00  0.00000000000E+00  0.69456867830E+02  0.69456867830E+02  0.00000000000E+00 0.  1.
         21   -1    0    0  501  502 -0.00000000000E+00 -0.00000000000E+00 -0.73173104650E+03  0.73173104650E+03  0.00000000000E+00 0.  1.
      99926    2    1    2    0    0  0.00000000000E+00  0.00000000000E+00 -0.66227417867E+03  0.80118791433E+03  0.45088245290E+03 0.  0.
      99925    2    3    3    0    0  0.62922727825E+02  0.69458454879E+02 -0.31846647040E+03  0.42351742965E+03  0.26298740239E+03 0.  0.
         25    1    4    4    0    0  0.98182402568E+00  0.57680529077E+02 -0.17874696731E+03  0.22566788393E+03  0.12509000000E+03 0.  0.
         25    1    3    3    0    0 -0.62922727825E+02 -0.69458454879E+02 -0.34380770827E+03  0.37767048468E+03  0.12509000000E+03 0.  0.
         25    1    4    4    0    0  0.61940903800E+02  0.11777925803E+02 -0.13971950309E+03  0.19784954572E+03  0.12509000000E+03 0.  0.
<mgrwt>
<rscale>  2 0.45088245E+03</rscale>
<asrwt>0</asrwt>
<pdfrwt beam="1">  1       21 0.10214244E-01 0.45088245E+03</pdfrwt>
<pdfrwt beam="2">  1       21 0.10760752E+00 0.45088245E+03</pdfrwt>
<totfact> 0.49280638E+04</totfact>
</mgrwt>
</event>
<event>
 7    0  0.4732500E-002  0.4560246E+03  0.7546771E-02  0.1025941E+00
         21   -1    0    0  502  501  0.00000000000E+00  0.00000000000E+00  0.67394212323E+02  0.67394212323E+02  0.00000000000E+00 0. -1.
         21   -1    0    0  501  502 -0.00000000000E+00 -0.00000000000E+00 -0.77142546508E+03  0.77142546508E+03  0.00000000000E+00 0. -1.
      99926    2    1    2    0    0 -0.71054273576E-14  0.00000000000E+00 -0.70403125276E+03  0.83881967740E+03  0.45602461155E+03 0.  0.
      99925    2    3    3    0    0  0.39207754579E+02  0.88025679740E+02 -0.55415761981E+03  0.62111487207E+03  0.26345255436E+03 0.  0.
         25    1    3    3    0    0 -0.39207754579E+02 -0.88025679740E+02 -0.14987363294E+03  0.21770480533E+03  0.12509000000E+03 0.  0.
         25    1    4    4    0    0  0.55916664151E+02  0.38078810725E+02 -0.32548321903E+03  0.35519502126E+03  0.12509000000E+03 0.  0.
         25    1    4    4    0    0 -0.16708909572E+02  0.49946869015E+02 -0.22867440078E+03  0.26591985081E+03  0.12509000000E+03 0.  0.
<mgrwt>
<rscale>  2 0.45602461E+03</rscale>
<asrwt>0</asrwt>
<pdfrwt beam="1">  1       21 0.99109135E-02 0.45602461E+03</pdfrwt>
<pdfrwt beam="2">  1       21 0.11344492E+00 0.45602461E+03</pdfrwt>
<totfact> 0.45576255E+04</totfact>
</mgrwt>
</event>
<event>
 7    0  0.4732500E-002  0.4760206E+03  0.7546771E-02  0.1020235E+00
         21   -1    0    0  502  501  0.00000000000E+00  0.00000000000E+00  0.14063433809E+04  0.14063433809E+04  0.00000000000E+00 0.  1.
         21   -1    0    0  501  502 -0.00000000000E+00 -0.00000000000E+00 -0.40280994004E+02  0.40280994004E+02  0.00000000000E+00 0.  1.
      99926    2    1    2    0    0  0.00000000000E+00 -0.71054273576E-14  0.13660623869E+04  0.14466243749E+04  0.47602062684E+03 0.  0.
      99925    2    3    3    0    0 -0.56608284875E+02 -0.41925611588E+02  0.50536930485E+03  0.57404065720E+03  0.26298723735E+03 0.  0.
         25    1    3    3    0    0  0.56608284875E+02  0.41925611588E+02  0.86069308209E+03  0.87258371775E+03  0.12509000000E+03 0.  0.
         25    1    4    4    0    0 -0.32892698060E+02 -0.96750888747E+01  0.16969993453E+03  0.21359099421E+03  0.12509000000E+03 0.  0.
         25    1    4    4    0    0 -0.23715586814E+02 -0.32250522713E+02  0.33566937032E+03  0.36044966299E+03  0.12509000000E+03 0.  0.
<mgrwt>
<rscale>  2 0.47602063E+03</rscale>
<asrwt>0</asrwt>
<pdfrwt beam="1">  1       21 0.20681517E+00 0.47602063E+03</pdfrwt>
<pdfrwt beam="2">  1       21 0.59236765E-02 0.47602063E+03</pdfrwt>
<totfact> 0.21401086E+04</totfact>
</mgrwt>
</event>
<event>
 7    0  0.4732500E-002  0.4445981E+03  0.7546771E-02  0.1029345E+00
         21   -1    0    0  502  501  0.00000000000E+00  0.00000000000E+00  0.68476222548E+02  0.68476222548E+02  0.00000000000E+00 0. -1.
         21   -1    0    0  501  502 -0.00000000000E+00 -0.00000000000E+00 -0.72166463863E+03  0.72166463863E+03  0.00000000000E+00 0. -1.
      99926    2    1    2    0    0  0.35527136788E-14  0.14210854715E-13 -0.65318841608E+03  0.79014086118E+03  0.44459810346E+03 0.  0.
      99925    2    3    3    0    0 -0.27333033364E+02 -0.91930668496E+02 -0.34095363816E+03  0.44037464331E+03  0.26169084922E+03 0.  0.
         25    1    4    4    0    0 -0.23411855402E+02 -0.82495514746E+01 -0.14165124781E+03  0.19060103404E+03  0.12509000000E+03 0.  0.
         25    1    4    4    0    0 -0.39211779620E+01 -0.83681117021E+02 -0.19930239036E+03  0.24977360926E+03  0.12509000000E+03 0.  0.
         25    1    3    3    0    0  0.27333033364E+02  0.91930668496E+02 -0.31223477792E+03  0.34976621787E+03  0.12509000000E+03 0.  0.
<mgrwt>
<rscale>  2 0.44459810E+03</rscale>
<asrwt>0</asrwt>
<pdfrwt beam="1">  1       21 0.10070033E-01 0.44459810E+03</pdfrwt>
<pdfrwt beam="2">  1       21 0.10612715E+00 0.44459810E+03</pdfrwt>
<totfact> 0.52393637E+04</totfact>
</mgrwt>
</event>
<event>
 7    0  0.4732500E-002  0.4857410E+03  0.7546771E-02  0.1017569E+00
         21   -1    0    0  502  501  0.00000000000E+00  0.00000000000E+00  0.67318637181E+02  0.67318637181E+02  0.00000000000E+00 0.  1.
         21   -1    0    0  501  502 -0.00000000000E+00 -0.00000000000E+00 -0.87622200524E+03  0.87622200524E+03  0.00000000000E+00 0.  1.
      99926    2    1    2    0    0  0.00000000000E+00  0.00000000000E+00 -0.80890336805E+03  0.94354064242E+03  0.48574096496E+03 0.  0.
      99925    2    3    3    0    0 -0.33531829524E+02 -0.15757432268E+01 -0.23218359639E+03  0.35245683306E+03  0.26303940803E+03 0.  0.
         25    1    4    4    0    0  0.24007149791E+02  0.29931773944E+01 -0.11158658158E+03  0.16936462334E+03  0.12509000000E+03 0.  0.
         25    1    3    3    0    0  0.33531829524E+02  0.15757432268E+01 -0.57671977167E+03  0.59108380936E+03  0.12509000000E+03 0.  0.
         25    1    4    4    0    0 -0.57538979315E+02 -0.45689206212E+01 -0.12059701481E+03  0.18309220971E+03  0.12509000000E+03 0.  0.
<mgrwt>
<rscale>  2 0.48574096E+03</rscale>
<asrwt>0</asrwt>
<pdfrwt beam="1">  1       21 0.98998006E-02 0.48574096E+03</pdfrwt>
<pdfrwt beam="2">  1       21 0.12885616E+00 0.48574096E+03</pdfrwt>
<totfact> 0.32778678E+04</totfact>
</mgrwt>
</event>
<event>
 7    0  0.4732500E-002  0.4568871E+03  0.7546771E-02  0.1025688E+00
         21   -1    0    0  502  501  0.00000000000E+00  0.00000000000E+00  0.13350026283E+03  0.13350026283E+03  0.00000000000E+00 0.  1.
         21   -1    0    0  501  502 -0.00000000000E+00 -0.00000000000E+00 -0.39090894569E+03  0.39090894569E+03  0.00000000000E+00 0.  1.
      99926    2    1    2    0    0  0.00000000000E+00 -0.35527136788E-14 -0.25740868286E+03  0.52440920852E+03  0.45688706260E+03 0.  0.
      99925    2    3    3    0    0  0.87247273593E+02 -0.20515650150E+02 -0.24430787844E+03  0.36996789984E+03  0.26297704994E+03 0.  0.
         25    1    4    4    0    0  0.22680831036E+02 -0.40092511455E+02 -0.14257673044E+03  0.19518571088E+03  0.12509000000E+03 0.  0.
         25    1    4    4    0    0  0.64566442557E+02  0.19576861305E+02 -0.10173114800E+03  0.17478218896E+03  0.12509000000E+03 0.  0.
         25    1    3    3    0    0 -0.87247273593E+02  0.20515650150E+02 -0.13100804419E+02  0.15444130868E+03  0.12509000000E+03 0.  0.
<mgrwt>
<rscale>  2 0.45688706E+03</rscale>
<asrwt>0</asrwt>
<pdfrwt beam="1">  1       21 0.19632392E-01 0.45688706E+03</pdfrwt>
<pdfrwt beam="2">  1       21 0.57486610E-01 0.45688706E+03</pdfrwt>
<totfact> 0.62644124E+04</totfact>
</mgrwt>
</event>
<event>
 7    0  0.4732500E-002  0.4530078E+03  0.7546771E-02  0.1026829E+00
         21   -1    0    0  502  501  0.00000000000E+00  0.00000000000E+00  0.44245785284E+03  0.44245785284E+03  0.00000000000E+00 0. -1.
         21   -1    0    0  501  502 -0.00000000000E+00 -0.00000000000E+00 -0.11595233061E+03  0.11595233061E+03  0.00000000000E+00 0. -1.
      99926    2    1    2    0    0 -0.14210854715E-13  0.00000000000E+00  0.32650552223E+03  0.55841018345E+03  0.45300781111E+03 0.  0.
      99925    2    3    3    0    0  0.92625346004E+02 -0.41300894808E+02  0.26178754437E+03  0.38485574417E+03  0.26324134705E+03 0.  0.
         25    1    4    4    0    0  0.30864915607E+02  0.10508385689E+00  0.16805212077E+03  0.21175853573E+03  0.12509000000E+03 0.  0.
         25    1    4    4    0    0  0.61760430397E+02 -0.41405978665E+02  0.93735423595E+02  0.17309720844E+03  0.12509000000E+03 0.  0.
         25    1    3    3    0    0 -0.92625346004E+02  0.41300894808E+02  0.64717977866E+02  0.17355443928E+03  0.12509000000E+03 0.  0.
<mgrwt>
<rscale>  2 0.45300781E+03</rscale>
<asrwt>0</asrwt>
<pdfrwt beam="1">  1       21 0.65067331E-01 0.45300781E+03</pdfrwt>
<pdfrwt beam="2">  1       21 0.17051813E-01 0.45300781E+03</pdfrwt>
<totfact> 0.62289970E+04</totfact>
</mgrwt>
</event>
<event>
 7    0  0.4732500E-002  0.4519881E+03  0.7546771E-02  0.1027131E+00
         21   -1    0    0  502  501  0.00000000000E+00  0.00000000000E+00  0.45989582917E+03  0.45989582917E+03  0.00000000000E+00 0.  1.
         21   -1    0    0  501  502 -0.00000000000E+00 -0.00000000000E+00 -0.11105406770E+03  0.11105406770E+03  0.00000000000E+00 0.  1.
      99926    2    1    2    0    0  0.00000000000E+00  0.00000000000E+00  0.34884176147E+03  0.57094989687E+03  0.45198806421E+03 0.  0.
      99925    2    3    3    0    0 -0.20943157558E+02 -0.40008767644E+02  0.92125323221E+02  0.28183027611E+03  0.26249173705E+03 0.  0.
         25    1    3    3    0    0  0.20943157558E+02  0.40008767644E+02  0.25671643825E+03  0.28911962075E+03  0.12509000000E+03 0.  0.
         25    1    4    4    0    0 -0.26230117159E+02 -0.20144901571E+01  0.79153478295E+02  0.15034912186E+03  0.12509000000E+03 0.  0.
         25    1    4    4    0    0  0.52869596012E+01 -0.37994277487E+02  0.12971844927E+02  0.13148115426E+03  0.12509000000E+03 0.  0.
<mgrwt>
<rscale>  2 0.45198806E+03</rscale>
<asrwt>0</asrwt>
<pdfrwt beam="1">  1       21 0.67631739E-01 0.45198806E+03</pdfrwt>
<pdfrwt beam="2">  1       21 0.16331481E-01 0.45198806E+03</pdfrwt>
<totfact> 0.61965691E+04</totfact>
</mgrwt>
</event>
<event>
 7    0  0.4732500E-002  0.4551342E+03  0.7546771E-02  0.1026202E+00
         21   -1    0    0  502  501  0.00000000000E+00  0.00000000000E+00  0.83200356616E+02  0.83200356616E+02  0.00000000000E+00 0.  1.
         21   -1    0    0  501  502 -0.00000000000E+00 -0.00000000000E+00 -0.62243458452E+03  0.62243458452E+03  0.00000000000E+00 0.  1.
      99926    2    1    2    0    0 -0.71054273576E-14  0.00000000000E+00 -0.53923422790E+03  0.70563494114E+03  0.45513417539E+03 0.  0.
      99925    2    3    3    0    0 -0.63423239623E+02 -0.90572531547E+02 -0.30251446907E+03  0.41596332858E+03  0.26321967240E+03 0.  0.
         25    1    3    3    0    0  0.63423239623E+02  0.90572531547E+02 -0.23671975884E+03  0.28967161255E+03  0.12509000000E+03 0.  0.
         25    1    4    4    0    0  0.39162638097E+01 -0.61528259832E+02 -0.16606258223E+03  0.21685329879E+03  0.12509000000E+03 0.  0.
         25    1    4    4    0    0 -0.67339503432E+02 -0.29044271715E+02 -0.13645188684E+03  0.19911002979E+03  0.12509000000E+03 0.  0.
<mgrwt>
<rscale>  2 0.45513418E+03</rscale>
<asrwt>0</asrwt>
<pdfrwt beam="1">  1       21 0.12235347E-01 0.45513418E+03</pdfrwt>
<pdfrwt beam="2">  1       21 0.91534497E-01 0.45513418E+03</pdfrwt>
<totfact> 0.52542588E+04</totfact>
</mgrwt>
</event>
<event>
 7    0  0.4732500E-002  0.4568524E+03  0.7546771E-02  0.1025698E+00
         21   -1    0    0  502  501  0.00000000000E+00  0.00000000000E+00  0.18561771138E+03  0.18561771138E+03  0.00000000000E+00 0.  1.
         21   -1    0    0  501  502 -0.00000000000E+00 -0.00000000000E+00 -0.28110748135E+03  0.28110748135E+03  0.00000000000E+00 0.  1.
      99926    2    1    2    0    0  0.00000000000E+00  0.00000000000E+00 -0.95489769967E+02  0.46672519273E+03  0.45685239340E+03 0.  0.
      99925    2    3    3    0    0  0.85699072500E+02 -0.74875882565E+02 -0.75645367911E+02  0.29645471023E+03  0.26308258155E+03 0.  0.
         25    1    4    4    0    0  0.26559583698E+02 -0.16172724085E+02 -0.16108256029E+01  0.12890721993E+03  0.12509000000E+03 0.  0.
         25    1    3    3    0    0 -0.85699072500E+02  0.74875882565E+02 -0.19844402056E+02  0.17027048250E+03  0.12509000000E+03 0.  0.
         25    1    4    4    0    0  0.59139488802E+02 -0.58703158480E+02 -0.74034542308E+02  0.16754749030E+03  0.12509000000E+03 0.  0.
<mgrwt>
<rscale>  2 0.45685239E+03</rscale>
<asrwt>0</asrwt>
<pdfrwt beam="1">  1       21 0.27296723E-01 0.45685239E+03</pdfrwt>
<pdfrwt beam="2">  1       21 0.41339335E-01 0.45685239E+03</pdfrwt>
<totfact> 0.66694929E+04</totfact>
</mgrwt>
</event>
<event>
 7    0  0.4732500E-002  0.4521558E+03  0.7546771E-02  0.1027081E+00
         21   -1    0    0  502  501  0.00000000000E+00  0.00000000000E+00  0.11663346715E+04  0.11663346715E+04  0.00000000000E+00 0.  1.
         21   -1    0    0  501  502 -0.00000000000E+00 -0.00000000000E+00 -0.43822084330E+02  0.43822084330E+02  0.00000000000E+00 0.  1.
      99926    2    1    2    0    0  0.00000000000E+00  0.00000000000E+00  0.11225125872E+04  0.12101567559E+04  0.45215579763E+03 0.  0.
      99925    2    3    3    0    0 -0.63204264407E+02 -0.31103775203E+02  0.48067592926E+03  0.55246075660E+03  0.26306142769E+03 0.  0.
         25    1    4    4    0    0  0.66637505826E+01 -0.20741252079E+02  0.25649528943E+03  0.28620263226E+03  0.12509000000E+03 0.  0.
         25    1    3    3    0    0  0.63204264407E+02  0.31103775203E+02  0.64183665794E+03  0.65769599926E+03  0.12509000000E+03 0.  0.
         25    1    4    4    0    0 -0.69868014989E+02 -0.10362523124E+02  0.22418063983E+03  0.26625812434E+03  0.12509000000E+03 0.  0.
<mgrwt>
<rscale>  2 0.45215580E+03</rscale>
<asrwt>0</asrwt>
<pdfrwt beam="1">  1       21 0.17151978E+00 0.45215580E+03</pdfrwt>
<pdfrwt beam="2">  1       21 0.64444249E-02 0.45215580E+03</pdfrwt>
<totfact> 0.32550862E+04</totfact>
</mgrwt>
</event>
<event>
 7    0  0.4732500E-002  0.4313268E+03  0.7546771E-02  0.1033442E+00
         21   -1    0    0  502  501  0.00000000000E+00  0.00000000000E+00  0.24640873761E+03  0.24640873761E+03  0.00000000000E+00 0.  1.
         21   -1    0    0  501  502 -0.00000000000E+00 -0.00000000000E+00 -0.18875429279E+03  0.18875429279E+03  0.00000000000E+00 0.  1.
      99926    2    1    2    0    0  0.00000000000E+00  0.00000000000E+00  0.57654444820E+02  0.43516303039E+03  0.43132682274E+03 0.  0.
      99925    2    3    3    0    0  0.53648004189E+02  0.70645792690E+02  0.40587191522E+02  0.28086547496E+03  0.26338025463E+03 0.  0.
         25    1    4    4    0    0 -0.13679111439E+02  0.34814269154E+02  0.81926796289E+01  0.13081964503E+03  0.12509000000E+03 0.  0.
         25    1    3    3    0    0 -0.53648004189E+02 -0.70645792690E+02  0.17067253298E+02  0.15429755544E+03  0.12509000000E+03 0.  0.
         25    1    4    4    0    0  0.67327115628E+02  0.35831523536E+02  0.32394511893E+02  0.15004582993E+03  0.12509000000E+03 0.  0.
<mgrwt>
<rscale>  2 0.43132682E+03</rscale>
<asrwt>0</asrwt>
<pdfrwt beam="1">  1       21 0.36236579E-01 0.43132682E+03</pdfrwt>
<pdfrwt beam="2">  1       21 0.27757984E-01 0.43132682E+03</pdfrwt>
<totfact> 0.84974153E+04</totfact>
</mgrwt>
</event>
<event>
 7    0  0.4732500E-002  0.4223683E+03  0.7546771E-02  0.1036298E+00
         21   -1    0    0  502  501  0.00000000000E+00  0.00000000000E+00  0.10616263646E+04  0.10616263646E+04  0.00000000000E+00 0.  1.
         21   -1    0    0  501  502 -0.00000000000E+00 -0.00000000000E+00 -0.42009822176E+02  0.42009822176E+02  0.00000000000E+00 0.  1.
      99926    2    1    2    0    0  0.00000000000E+00  0.00000000000E+00  0.10196165424E+04  0.11036361868E+04  0.42236825067E+03 0.  0.
      99925    2    3    3    0    0 -0.33098566021E+02 -0.70099450284E+02  0.62638762288E+03  0.68377199532E+03  0.26300805973E+03 0.  0.
         25    1    3    3    0    0  0.33098566021E+02  0.70099450284E+02  0.39322891954E+03  0.41986419146E+03  0.12509000000E+03 0.  0.
         25    1    4    4    0    0 -0.77722861287E+01 -0.60064693435E+01  0.22339894613E+03  0.25622467356E+03  0.12509000000E+03 0.  0.
         25    1    4    4    0    0 -0.25326279893E+02 -0.64092980940E+02  0.40298867675E+03  0.42754732176E+03  0.12509000000E+03 0.  0.
<mgrwt>
<rscale>  2 0.42236825E+03</rscale>
<asrwt>0</asrwt>
<pdfrwt beam="1">  1       21 0.15612151E+00 0.42236825E+03</pdfrwt>
<pdfrwt beam="2">  1       21 0.61779157E-02 0.42236825E+03</pdfrwt>
<totfact> 0.46006970E+04</totfact>
</mgrwt>
</event>
<event>
 7    0  0.4732500E-002  0.4361492E+03  0.7546771E-02  0.1031935E+00
         21   -1    0    0  502  501  0.00000000000E+00  0.00000000000E+00  0.27776697796E+02  0.27776697796E+02  0.00000000000E+00 0. -1.
         21   -1    0    0  501  502 -0.00000000000E+00 -0.00000000000E+00 -0.17121016951E+04  0.17121016951E+04  0.00000000000E+00 0. -1.
      99926    2    1    2    0    0  0.00000000000E+00  0.14210854715E-13 -0.16843249973E+04  0.17398783929E+04  0.43614920099E+03 0.  0.
      99925    2    3    3    0    0 -0.39152590279E+02  0.77008677576E+02 -0.92737630952E+03  0.96781486844E+03  0.26301243008E+03 0.  0.
         25    1    4    4    0    0 -0.25434152991E+02  0.64969262292E+02 -0.38175336621E+03  0.40773893841E+03  0.12509000000E+03 0.  0.
         25    1    4    4    0    0 -0.13718437287E+02  0.12039415284E+02 -0.54562294331E+03  0.56007593003E+03  0.12509000000E+03 0.  0.
         25    1    3    3    0    0  0.39152590279E+02 -0.77008677576E+02 -0.75694868778E+03  0.77206352444E+03  0.12509000000E+03 0.  0.
<mgrwt>
<rscale>  2 0.43614920E+03</rscale>
<asrwt>0</asrwt>
<pdfrwt beam="1">  1       21 0.40848069E-02 0.43614920E+03</pdfrwt>
<pdfrwt beam="2">  1       21 0.25177976E+00 0.43614920E+03</pdfrwt>
<totfact> 0.21409383E+04</totfact>
</mgrwt>
</event>
<event>
 7    0  0.4732500E-002  0.4541713E+03  0.7546771E-02  0.1026485E+00
         21   -1    0    0  502  501  0.00000000000E+00  0.00000000000E+00  0.12388649670E+03  0.12388649670E+03  0.00000000000E+00 0. -1.
         21   -1    0    0  501  502 -0.00000000000E+00 -0.00000000000E+00 -0.41625120559E+03  0.41625120559E+03  0.00000000000E+00 0. -1.
      99926    2    1    2    0    0  0.00000000000E+00  0.00000000000E+00 -0.29236470889E+03  0.54013770229E+03  0.45417134919E+03 0.  0.
      99925    2    3    3    0    0  0.93851678406E+02  0.47219551803E+02 -0.13632853034E+03  0.31423369451E+03  0.26290592037E+03 0.  0.
         25    1    4    4    0    0  0.77346026943E+02  0.47202107877E+02 -0.95587008796E+02  0.18164479410E+03  0.12509000000E+03 0.  0.
         25    1    4    4    0    0  0.16505651463E+02  0.17443926402E-01 -0.40741521540E+02  0.13258890041E+03  0.12509000000E+03 0.  0.
         25    1    3    3    0    0 -0.93851678406E+02 -0.47219551803E+02 -0.15603617856E+03  0.22590400778E+03  0.12509000000E+03 0.  0.
<mgrwt>
<rscale>  2 0.45417135E+03</rscale>
<asrwt>0</asrwt>
<pdfrwt beam="1">  1       21 0.18218603E-01 0.45417135E+03</pdfrwt>
<pdfrwt beam="2">  1       21 0.61213411E-01 0.45417135E+03</pdfrwt>
<totfact> 0.62934665E+04</totfact>
</mgrwt>
</event>
<event>
 7    0  0.4732500E-002  0.4483661E+03  0.7546771E-02  0.1028210E+00
         21   -1    0    0  502  501  0.00000000000E+00  0.00000000000E+00  0.64289349748E+02  0.64289349748E+02  0.00000000000E+00 0. -1.
         21   -1    0    0  501  502 -0.00000000000E+00 -0.00000000000E+00 -0.78174754116E+03  0.78174754116E+03  0.00000000000E+00 0. -1.
      99926    2    1    2    0    0 -0.88817841970E-15  0.00000000000E+00 -0.71745819141E+03  0.84603689091E+03  0.44836610527E+03 0.  0.
      99925    2    3    3    0    0  0.78405577013E+01  0.82805474667E+01 -0.65469081620E+03  0.70561861111E+03  0.26295915598E+03 0.  0.
         25    1    3    3    0    0 -0.78405577013E+01 -0.82805474667E+01 -0.62767375214E+02  0.14041827980E+03  0.12509000000E+03 0.  0.
         25    1    4    4    0    0  0.29362323552E+01  0.13826832493E+02 -0.43339363900E+03  0.45130627868E+03  0.12509000000E+03 0.  0.
         25    1    4    4    0    0  0.49043253462E+01 -0.55462850268E+01 -0.22129717720E+03  0.25431233242E+03  0.12509000000E+03 0.  0.
<mgrwt>
<rscale>  2 0.44836611E+03</rscale>
<asrwt>0</asrwt>
<pdfrwt beam="1">  1       21 0.94543166E-02 0.44836611E+03</pdfrwt>
<pdfrwt beam="2">  1       21 0.11496287E+00 0.44836611E+03</pdfrwt>
<totfact> 0.48070435E+04</totfact>
</mgrwt>
</event>
<event>
 7    0  0.4732500E-002  0.4560225E+03  0.7546771E-02  0.1025941E+00
         21   -1    0    0  502  501  0.00000000000E+00  0.00000000000E+00  0.19362130749E+04  0.19362130749E+04  0.00000000000E+00 0.  1.
         21   -1    0    0  501  502 -0.00000000000E+00 -0.00000000000E+00 -0.26850934489E+02  0.26850934489E+02  0.00000000000E+00 0.  1.
      99926    2    1    2    0    0  0.00000000000E+00 -0.35527136788E-14  0.19093621404E+04  0.19630640094E+04  0.45602250133E+03 0.  0.
      99925    2    3    3    0    0  0.75519056814E+02  0.16899848952E+02  0.83929972026E+03  0.88293909811E+03  0.26299942531E+03 0.  0.
         25    1    4    4    0    0  0.14858235983E+02  0.44491554496E+01  0.29049828582E+03  0.31666595069E+03  0.12509000000E+03 0.  0.
         25    1    4    4    0    0  0.60660820831E+02  0.12450693503E+02  0.54880143444E+03  0.56627314742E+03  0.12509000000E+03 0.  0.
         25    1    3    3    0    0 -0.75519056814E+02 -0.16899848952E+02  0.10700624201E+04  0.10801249113E+04  0.12509000000E+03 0.  0.
<mgrwt>
<rscale>  2 0.45602250E+03</rscale>
<asrwt>0</asrwt>
<pdfrwt beam="1">  1       21 0.28473712E+00 0.45602250E+03</pdfrwt>
<pdfrwt beam="2">  1       21 0.39486681E-02 0.45602250E+03</pdfrwt>
<totfact> 0.14209333E+04</totfact>
</mgrwt>
</event>
<event>
 7    0  0.4732500E-002  0.4537873E+03  0.7546771E-02  0.1026599E+00
         21   -1    0    0  502  501  0.00000000000E+00  0.00000000000E+00  0.68079976691E+03  0.68079976691E+03  0.00000000000E+00 0.  1.
         21   -1    0    0  501  502 -0.00000000000E+00 -0.00000000000E+00 -0.75618031238E+02  0.75618031238E+02  0.00000000000E+00 0.  1.
      99926    2    1    2    0    0  0.00000000000E+00  0.00000000000E+00  0.60518173567E+03  0.75641779814E+03  0.45378734244E+03 0.  0.
      99925    2    3    3    0    0 -0.67043228034E+02 -0.84184933164E+02  0.43350372301E+03  0.51829441515E+03  0.26291010920E+03 0.  0.
         25    1    4    4    0    0 -0.32325062118E+02 -0.52118797630E+02  0.29240916623E+03  0.32390107641E+03  0.12509000000E+03 0.  0.
         25    1    4    4    0    0 -0.34718165916E+02 -0.32066135533E+02  0.14109455678E+03  0.19439333874E+03  0.12509000000E+03 0.  0.
         25    1    3    3    0    0  0.67043228034E+02  0.84184933164E+02  0.17167801266E+03  0.23812338299E+03  0.12509000000E+03 0.  0.
<mgrwt>
<rscale>  2 0.45378734E+03</rscale>
<asrwt>0</asrwt>
<pdfrwt beam="1">  1       21 0.10011761E+00 0.45378734E+03</pdfrwt>
<pdfrwt beam="2">  1       21 0.11120299E-01 0.45378734E+03</pdfrwt>
<totfact> 0.50422735E+04</totfact>
</mgrwt>
</event>
<event>
 7    0  0.4732500E-002  0.4571808E+03  0.7546771E-02  0.1025602E+00
         21   -1    0    0  502  501  0.00000000000E+00  0.00000000000E+00  0.28706842738E+03  0.28706842738E+03  0.00000000000E+00 0.  1.
         21   -1    0    0  501  502 -0.00000000000E+00 -0.00000000000E+00 -0.18202478977E+03  0.18202478977E+03  0.00000000000E+00 0.  1.
      99926    2    1    2    0    0  0.00000000000E+00  0.00000000000E+00  0.10504363762E+03  0.46909321715E+03  0.45718079637E+03 0.  0.
      99925    2    3    3    0    0  0.64624954347E+02 -0.82533256700E+02  0.16877331433E+02  0.28359677828E+03  0.26297179535E+03 0.  0.
         25    1    4    4    0    0  0.13432864125E+02 -0.27360787680E+02  0.42076576648E+02  0.13545110167E+03  0.12509000000E+03 0.  0.
         25    1    4    4    0    0  0.51192090222E+02 -0.55172469020E+02 -0.25199245216E+02  0.14814567661E+03  0.12509000000E+03 0.  0.
         25    1    3    3    0    0 -0.64624954347E+02  0.82533256700E+02  0.88166306184E+02  0.18549643887E+03  0.12509000000E+03 0.  0.
<mgrwt>
<rscale>  2 0.45718080E+03</rscale>
<asrwt>0</asrwt>
<pdfrwt beam="1">  1       21 0.42215945E-01 0.45718080E+03</pdfrwt>
<pdfrwt beam="2">  1       21 0.26768351E-01 0.45718080E+03</pdfrwt>
<totfact> 0.66348254E+04</totfact>
</mgrwt>
</event>
<event>
 7    0  0.4732500E-002  0.4778308E+03  0.7546771E-02  0.1019733E+00
         21   -1    0    0  502  501  0.00000000000E+00  0.00000000000E+00  0.55548915358E+03  0.55548915358E+03  0.00000000000E+00 0.  1.
         21   -1    0    0  501  502 -0.00000000000E+00 -0.00000000000E+00 -0.10275729896E+03  0.10275729896E+03  0.00000000000E+00 0.  1.
      99926    2    1    2    0    0  0.00000000000E+00  0.71054273576E-14  0.45273185462E+03  0.65824645253E+03  0.47783078604E+03 0.  0.
      99925    2    3    3    0    0 -0.91226797203E+02  0.54113599158E+02  0.39265940523E+03  0.48358444345E+03  0.26157579262E+03 0.  0.
         25    1    4    4    0    0 -0.57638425796E+02 -0.29653774095E+01  0.15880594875E+03  0.21023277349E+03  0.12509000000E+03 0.  0.
         25    1    4    4    0    0 -0.33588371407E+02  0.57078976568E+02  0.23385345648E+03  0.27335166996E+03  0.12509000000E+03 0.  0.
         25    1    3    3    0    0  0.91226797203E+02 -0.54113599158E+02  0.60072449385E+02  0.17466200908E+03  0.12509000000E+03 0.  0.
<mgrwt>
<rscale>  2 0.47783079E+03</rscale>
<asrwt>0</asrwt>
<pdfrwt beam="1">  1       21 0.81689580E-01 0.47783079E+03</pdfrwt>
<pdfrwt beam="2">  1       21 0.15111368E-01 0.47783079E+03</pdfrwt>
<totfact> 0.46308107E+04</totfact>
</mgrwt>
</event>
<event>
 7    0  0.4732500E-002  0.4576144E+03  0.7546771E-02  0.1025475E+00
         21   -1    0    0  502  501  0.00000000000E+00  0.00000000000E+00  0.92233166353E+02  0.92233166353E+02  0.00000000000E+00 0.  1.
         21   -1    0    0  501  502 -0.00000000000E+00 -0.00000000000E+00 -0.56761295931E+03  0.56761295931E+03  0.00000000000E+00 0.  1.
      99926    2    1    2    0    0 -0.35527136788E-14  0.00000000000E+00 -0.47537979295E+03  0.65984612566E+03  0.45761442503E+03 0.  0.
      99925    2    3    3    0    0  0.26146784938E+02  0.79878589587E+02 -0.41287309668E+03  0.49669331809E+03  0.26301295566E+03 0.  0.
         25    1    3    3    0    0 -0.26146784938E+02 -0.79878589587E+02 -0.62506696278E+02  0.16315280757E+03  0.12509000000E+03 0.  0.
         25    1    4    4    0    0 -0.13956182945E+01  0.60246228006E+02 -0.15502107389E+03  0.20811198233E+03  0.12509000000E+03 0.  0.
         25    1    4    4    0    0  0.27542403232E+02  0.19632361581E+02 -0.25785202278E+03  0.28858133576E+03  0.12509000000E+03 0.  0.
<mgrwt>
<rscale>  2 0.45761443E+03</rscale>
<asrwt>0</asrwt>
<pdfrwt beam="1">  1       21 0.13563701E-01 0.45761443E+03</pdfrwt>
<pdfrwt beam="2">  1       21 0.83472494E-01 0.45761443E+03</pdfrwt>
<totfact> 0.54015130E+04</totfact>
</mgrwt>
</event>
<event>
 7    0  0.4732500E-002  0.4551783E+03  0.7546771E-02  0.1026189E+00
         21   -1    0    0  502  501  0.00000000000E+00  0.00000000000E+00  0.79441881780E+02  0.79441881780E+02  0.00000000000E+00 0. -1.
         21   -1    0    0  501  502 -0.00000000000E+00 -0.00000000000E+00 -0.65200885228E+03  0.65200885228E+03  0.00000000000E+00 0. -1.
      99926    2    1    2    0    0  0.17763568394E-14 -0.17763568394E-14 -0.57256697050E+03  0.73145073406E+03  0.45517825151E+03 0.  0.
      99925    2    3    3    0    0  0.15596849347E+02  0.87897841222E+01 -0.54006019561E+03  0.60097192149E+03  0.26302416909E+03 0.  0.
         25    1    4    4    0    0 -0.16176941777E+02 -0.20079862288E+02 -0.21555753866E+03  0.25055429529E+03  0.12509000000E+03 0.  0.
         25    1    4    4    0    0  0.31773791125E+02  0.28869646410E+02 -0.32450265695E+03  0.35041762620E+03  0.12509000000E+03 0.  0.
         25    1    3    3    0    0 -0.15596849347E+02 -0.87897841222E+01 -0.32506774886E+02  0.13047881256E+03  0.12509000000E+03 0.  0.
<mgrwt>
<rscale>  2 0.45517825E+03</rscale>
<asrwt>0</asrwt>
<pdfrwt beam="1">  1       21 0.11682629E-01 0.45517825E+03</pdfrwt>
<pdfrwt beam="2">  1       21 0.95883658E-01 0.45517825E+03</pdfrwt>
<totfact> 0.51156719E+04</totfact>
</mgrwt>
</event>
<event>
 7    0  0.4732500E-002  0.4528195E+03  0.7546771E-02  0.1026885E+00
         21   -1    0    0  502  501  0.00000000000E+00  0.00000000000E+00  0.16001014797E+03  0.16001014797E+03  0.00000000000E+00 0. -1.
         21   -1    0    0  501  502 -0.00000000000E+00 -0.00000000000E+00 -0.32036325042E+03  0.32036325042E+03  0.00000000000E+00 0. -1.
      99926    2    1    2    0    0  0.00000000000E+00  0.00000000000E+00 -0.16035310245E+03  0.48037339838E+03  0.45281948325E+03 0.  0.
      99925    2    3    3    0    0  0.38792105223E+02  0.69093981442E+01  0.96156394052E+01  0.26568886583E+03  0.26257483827E+03 0.  0.
         25    1    4    4    0    0 -0.99305280196E+01  0.17349306909E+02 -0.18826451684E+02  0.12806856453E+03  0.12509000000E+03 0.  0.
         25    1    4    4    0    0  0.48722633242E+02 -0.10439908765E+02  0.28442091090E+02  0.13762030130E+03  0.12509000000E+03 0.  0.
         25    1    3    3    0    0 -0.38792105223E+02 -0.69093981442E+01 -0.16996874186E+03  0.21468453255E+03  0.12509000000E+03 0.  0.
<mgrwt>
<rscale>  2 0.45281948E+03</rscale>
<asrwt>0</asrwt>
<pdfrwt beam="1">  1       21 0.23530905E-01 0.45281948E+03</pdfrwt>
<pdfrwt beam="2">  1       21 0.47112242E-01 0.45281948E+03</pdfrwt>
<totfact> 0.67839550E+04</totfact>
</mgrwt>
</event>
<event>
 7    0  0.4732500E-002  0.4555420E+03  0.7546771E-02  0.1026082E+00
         21   -1    0    0  502  501  0.00000000000E+00  0.00000000000E+00  0.40323669495E+02  0.40323669495E+02  0.00000000000E+00 0. -1.
         21   -1    0    0  501  502 -0.00000000000E+00 -0.00000000000E+00 -0.12865800525E+04  0.12865800525E+04  0.00000000000E+00 0. -1.
      99926    2    1    2    0    0 -0.35527136788E-14  0.00000000000E+00 -0.12462563831E+04  0.13269037220E+04  0.45554200165E+03 0.  0.
      99925    2    3    3    0    0  0.24490260814E+02 -0.75310316101E+02 -0.10213169184E+04  0.10576144957E+04  0.26303755824E+03 0.  0.
         25    1    3    3    0    0 -0.24490260814E+02  0.75310316101E+02 -0.22493946467E+03  0.26928922639E+03  0.12509000000E+03 0.  0.
         25    1    4    4    0    0  0.33872486475E+02 -0.47654466698E+02 -0.65592952123E+03  0.67030540685E+03  0.12509000000E+03 0.  0.
         25    1    4    4    0    0 -0.93822256617E+01 -0.27655849403E+02 -0.36538739715E+03  0.38730908880E+03  0.12509000000E+03 0.  0.
<mgrwt>
<rscale>  2 0.45554200E+03</rscale>
<asrwt>0</asrwt>
<pdfrwt beam="1">  1       21 0.59299525E-02 0.45554200E+03</pdfrwt>
<pdfrwt beam="2">  1       21 0.18920291E+00 0.45554200E+03</pdfrwt>
<totfact> 0.28224162E+04</totfact>
</mgrwt>
</event>
<event>
 7    0  0.4732500E-002  0.4558587E+03  0.7546771E-02  0.1025989E+00
         21   -1    0    0  502  501  0.00000000000E+00  0.00000000000E+00  0.22787729601E+03  0.22787729601E+03  0.00000000000E+00 0. -1.
         21   -1    0    0  501  502 -0.00000000000E+00 -0.00000000000E+00 -0.22798145310E+03  0.22798145310E+03  0.00000000000E+00 0. -1.
      99926    2    1    2    0    0  0.00000000000E+00  0.00000000000E+00 -0.10415709455E+00  0.45585874911E+03  0.45585873721E+03 0.  0.
      99925    2    3    3    0    0  0.64589013668E+02  0.79665793959E+02  0.49141710261E+02  0.28676988796E+03  0.26325592403E+03 0.  0.
         25    1    3    3    0    0 -0.64589013668E+02 -0.79665793959E+02 -0.49245867356E+02  0.16908886115E+03  0.12509000000E+03 0.  0.
         25    1    4    4    0    0  0.12142434881E+02  0.75809062224E+02  0.22542813100E+02  0.14849289263E+03  0.12509000000E+03 0.  0.
         25    1    4    4    0    0  0.52446578787E+02  0.38567317354E+01  0.26598897162E+02  0.13827699533E+03  0.12509000000E+03 0.  0.
<mgrwt>
<rscale>  2 0.45585874E+03</rscale>
<asrwt>0</asrwt>
<pdfrwt beam="1">  1       21 0.33511367E-01 0.45585874E+03</pdfrwt>
<pdfrwt beam="2">  1       21 0.33526684E-01 0.45585874E+03</pdfrwt>
<totfact> 0.68015696E+04</totfact>
</mgrwt>
</event>
<event>
 7    0  0.4732500E-002  0.4164180E+03  0.7546771E-02  0.1038238E+00
         21   -1    0    0  502  501  0.00000000000E+00  0.00000000000E+00  0.50276282008E+03  0.50276282008E+03  0.00000000000E+00 0. -1.
         21   -1    0    0  501  502 -0.00000000000E+00 -0.00000000000E+00 -0.86225516065E+02  0.86225516065E+02  0.00000000000E+00 0. -1.
      99926    2    1    2    0    0  0.00000000000E+00  0.00000000000E+00  0.41653730402E+03  0.58898833615E+03  0.41641798049E+03 0.  0.
      99925    2    3    3    0    0 -0.44932610290E+02  0.47764116444E+02  0.31152966558E+03  0.41299270405E+03  0.26308152876E+03 0.  0.
         25    1    4    4    0    0  0.10039047897E+02  0.20605774775E+02  0.18695309636E+03  0.22610694101E+03  0.12509000000E+03 0.  0.
         25    1    3    3    0    0  0.44932610290E+02 -0.47764116444E+02  0.10500763844E+03  0.17599563210E+03  0.12509000000E+03 0.  0.
         25    1    4    4    0    0 -0.54971658187E+02  0.27158341669E+02  0.12457656922E+03  0.18688576304E+03  0.12509000000E+03 0.  0.
<mgrwt>
<rscale>  2 0.41641798E+03</rscale>
<asrwt>0</asrwt>
<pdfrwt beam="1">  1       21 0.73935708E-01 0.41641798E+03</pdfrwt>
<pdfrwt beam="2">  1       21 0.12680223E-01 0.41641798E+03</pdfrwt>
<totfact> 0.81512080E+04</totfact>
</mgrwt>
</event>
<event>
 7    0  0.4732500E-002  0.4528407E+03  0.7546771E-02  0.1026878E+00
         21   -1    0    0  502  501  0.00000000000E+00  0.00000000000E+00  0.31151315608E+02  0.31151315608E+02  0.00000000000E+00 0. -1.
         21   -1    0    0  501  502 -0.00000000000E+00 -0.00000000000E+00 -0.16457149149E+04  0.16457149149E+04  0.00000000000E+00 0. -1.
      99926    2    1    2    0    0  0.00000000000E+00  0.35527136788E-14 -0.16145635993E+04  0.16768662305E+04  0.45284074338E+03 0.  0.
      99925    2    3    3    0    0  0.23493130077E+02 -0.22754893441E+02 -0.14114060684E+04  0.14360546802E+04  0.26289968063E+03 0.  0.
         25    1    4    4    0    0  0.35725879427E+02  0.19315028755E+01 -0.87177715407E+03  0.88143234773E+03  0.12509000000E+03 0.  0.
         25    1    4    4    0    0 -0.12232749350E+02 -0.24686396317E+02 -0.53962891435E+03  0.55462233243E+03  0.12509000000E+03 0.  0.
         25    1    3    3    0    0 -0.23493130077E+02  0.22754893441E+02 -0.20315753089E+03  0.24081155037E+03  0.12509000000E+03 0.  0.
<mgrwt>
<rscale>  2 0.45284074E+03</rscale>
<asrwt>0</asrwt>
<pdfrwt beam="1">  1       21 0.45810743E-02 0.45284074E+03</pdfrwt>
<pdfrwt beam="2">  1       21 0.24201698E+00 0.45284074E+03</pdfrwt>
<totfact> 0.20081849E+04</totfact>
</mgrwt>
</event>
<event>
 7    0  0.4732500E-002  0.4587823E+03  0.7546771E-02  0.1025135E+00
         21   -1    0    0  502  501  0.00000000000E+00  0.00000000000E+00  0.47515051674E+03  0.47515051674E+03  0.00000000000E+00 0. -1.
         21   -1    0    0  501  502 -0.00000000000E+00 -0.00000000000E+00 -0.11074449648E+03  0.11074449648E+03  0.00000000000E+00 0. -1.
      99926    2    1    2    0    0  0.88817841970E-15  0.00000000000E+00  0.36440602026E+03  0.58589501322E+03  0.45878232193E+03 0.  0.
      99925    2    3    3    0    0  0.49625666767E+01  0.10050098501E+03  0.30395429569E+03  0.41435203272E+03  0.26301011025E+03 0.  0.
         25    1    4    4    0    0  0.30278609097E+02  0.78802991877E+02  0.14419643839E+03  0.20872667928E+03  0.12509000000E+03 0.  0.
         25    1    4    4    0    0 -0.25316042420E+02  0.21697993134E+02  0.15975785730E+03  0.20562535344E+03  0.12509000000E+03 0.  0.
         25    1    3    3    0    0 -0.49625666767E+01 -0.10050098501E+03  0.60451724573E+02  0.17154298050E+03  0.12509000000E+03 0.  0.
<mgrwt>
<rscale>  2 0.45878232E+03</rscale>
<asrwt>0</asrwt>
<pdfrwt beam="1">  1       21 0.69875075E-01 0.45878232E+03</pdfrwt>
<pdfrwt beam="2">  1       21 0.16285956E-01 0.45878232E+03</pdfrwt>
<totfact> 0.57807199E+04</totfact>
</mgrwt>
</event>
<event>
 7    0  0.4732500E-002  0.4457200E+03  0.7546771E-02  0.1029006E+00
         21   -1    0    0  502  501  0.00000000000E+00  0.00000000000E+00  0.23994234994E+03  0.23994234994E+03  0.00000000000E+00 0. -1.
         21   -1    0    0  501  502 -0.00000000000E+00 -0.00000000000E+00 -0.20699377431E+03  0.20699377431E+03  0.00000000000E+00 0. -1.
      99926    2    1    2    0    0  0.00000000000E+00 -0.71054273576E-14  0.32948575632E+02  0.44693612426E+03  0.44571996873E+03 0.  0.
      99925    2    3    3    0    0 -0.79937572938E+02  0.34018307072E+02 -0.36775944033E+02  0.27943604209E+03  0.26302998075E+03 0.  0.
         25    1    3    3    0    0  0.79937572938E+02 -0.34018307072E+02  0.69724519665E+02  0.16750008217E+03  0.12509000000E+03 0.  0.
         25    1    4    4    0    0 -0.31709080729E+02 -0.59428248144E+01  0.15465631463E+02  0.13010563717E+03  0.12509000000E+03 0.  0.
         25    1    4    4    0    0 -0.48228492209E+02  0.39961131886E+02 -0.52241575496E+02  0.14933040492E+03  0.12509000000E+03 0.  0.
<mgrwt>
<rscale>  2 0.44571997E+03</rscale>
<asrwt>0</asrwt>
<pdfrwt beam="1">  1       21 0.35285640E-01 0.44571997E+03</pdfrwt>
<pdfrwt beam="2">  1       21 0.30440261E-01 0.44571997E+03</pdfrwt>
<totfact> 0.74506389E+04</totfact>
</mgrwt>
</event>
<event>
 7    0  0.4732500E-002  0.4340239E+03  0.7546771E-02  0.1032596E+00
         21   -1    0    0  502  501  0.00000000000E+00  0.00000000000E+00  0.64149700378E+02  0.64149700378E+02  0.00000000000E+00 0.  1.
         21   -1    0    0  501  502 -0.00000000000E+00 -0.00000000000E+00 -0.73412934601E+03  0.73412934601E+03  0.00000000000E+00 0.  1.
      99926    2    1    2    0    0  0.00000000000E+00  0.14210854715E-13 -0.66997964563E+03  0.79827904639E+03  0.43402385918E+03 0.  0.
      99925    2    3    3    0    0  0.33711475835E+02  0.84710932573E+02 -0.45499564685E+03  0.53336767719E+03  0.26295937845E+03 0.  0.
         25    1    4    4    0    0  0.17941301643E+02  0.77432366955E+02 -0.28906203196E+03  0.32484154318E+03  0.12509000000E+03 0.  0.
         25    1    4    4    0    0  0.15770174191E+02  0.72785656179E+01 -0.16593361489E+03  0.20852613400E+03  0.12509000000E+03 0.  0.
         25    1    3    3    0    0 -0.33711475835E+02 -0.84710932573E+02 -0.21498399878E+03  0.26491136920E+03  0.12509000000E+03 0.  0.
<mgrwt>
<rscale>  2 0.43402386E+03</rscale>
<asrwt>0</asrwt>
<pdfrwt beam="1">  1       21 0.94337801E-02 0.43402386E+03</pdfrwt>
<pdfrwt beam="2">  1       21 0.10796019E+00 0.43402386E+03</pdfrwt>
<totfact> 0.56607483E+04</totfact>
</mgrwt>
</event>
<event>
 7    0  0.4732500E-002  0.4563791E+03  0.7546771E-02  0.1025837E+00
         21   -1    0    0  502  501  0.00000000000E+00  0.00000000000E+00  0.41614257256E+03  0.41614257256E+03  0.00000000000E+00 0.  1.
         21   -1    0    0  501  502 -0.00000000000E+00 -0.00000000000E+00 -0.12512652918E+03  0.12512652918E+03  0.00000000000E+00 0.  1.
      99926    2    1    2    0    0  0.00000000000E+00 -0.35527136788E-14  0.29101604338E+03  0.54126910174E+03  0.45637912200E+03 0.  0.
      99925    2    3    3    0    0 -0.10455578178E+03 -0.27448960182E+02  0.22748687081E+03  0.36415664937E+03  0.26301032673E+03 0.  0.
         25    1    4    4    0    0 -0.43668928431E+02  0.16307899560E+02  0.74845099986E+02  0.15304319648E+03  0.12509000000E+03 0.  0.
         25    1    4    4    0    0 -0.60886853352E+02 -0.43756859742E+02  0.15264177083E+03  0.21111345288E+03  0.12509000000E+03 0.  0.
         25    1    3    3    0    0  0.10455578178E+03  0.27448960182E+02  0.63529172568E+02  0.17711245238E+03  0.12509000000E+03 0.  0.
<mgrwt>
<rscale>  2 0.45637912E+03</rscale>
<asrwt>0</asrwt>
<pdfrwt beam="1">  1       21 0.61197437E-01 0.45637912E+03</pdfrwt>
<pdfrwt beam="2">  1       21 0.18400960E-01 0.45637912E+03</pdfrwt>
<totfact> 0.61770248E+04</totfact>
</mgrwt>
</event>
<event>
 7    0  0.4732500E-002  0.4560314E+03  0.7546771E-02  0.1025939E+00
         21   -1    0    0  502  501  0.00000000000E+00  0.00000000000E+00  0.24961557345E+03  0.24961557345E+03  0.00000000000E+00 0.  1.
         21   -1    0    0  501  502 -0.00000000000E+00 -0.00000000000E+00 -0.20828494979E+03  0.20828494979E+03  0.00000000000E+00 0.  1.
      99926    2    1    2    0    0 -0.71054273576E-14  0.00000000000E+00  0.41330623662E+02  0.45790052324E+03  0.45603143393E+03 0.  0.
      99925    2    3    3    0    0 -0.42812543828E+02  0.10547160118E+03  0.34844760021E+02  0.28864702375E+03  0.26295584126E+03 0.  0.
         25    1    3    3    0    0  0.42812543828E+02 -0.10547160118E+03  0.64858636412E+01  0.16925349949E+03  0.12509000000E+03 0.  0.
         25    1    4    4    0    0 -0.78530247459E+01  0.11055164157E+02  0.19769549218E+02  0.12736651769E+03  0.12509000000E+03 0.  0.
         25    1    4    4    0    0 -0.34959519083E+02  0.94416437021E+02  0.15075210802E+02  0.16128050606E+03  0.12509000000E+03 0.  0.
<mgrwt>
<rscale>  2 0.45603143E+03</rscale>
<asrwt>0</asrwt>
<pdfrwt beam="1">  1       21 0.36708173E-01 0.45603143E+03</pdfrwt>
<pdfrwt beam="2">  1       21 0.30630140E-01 0.45603143E+03</pdfrwt>
<totfact> 0.67774376E+04</totfact>
</mgrwt>
</event>
<event>
 6    0  0.4732500E-002  0.4854710E+03  0.7546771E-02  0.1017642E+00
         21   -1    0    0  502  501  0.00000000000E+00  0.00000000000E+00  0.23204188986E+03  0.23204188986E+03  0.00000000000E+00 0.  1.
         21   -1    0    0  501  502 -0.00000000000E+00 -0.00000000000E+00 -0.25392194465E+03  0.25392194465E+03  0.00000000000E+00 0.  1.
      99926    2    1    2    0    0 -0.14210854715E-13  0.71054273576E-14 -0.21880054789E+02  0.48596383452E+03  0.48547102041E+03 0.  0.
         25    1    3    3    0    0 -0.12506306419E+03  0.48897275389E+02 -0.41972701746E+02  0.18825761434E+03  0.12509000000E+03 0.  0.
         25    1    3    3    0    0  0.37746628134E+02  0.51250123998E+00 -0.20587010824E+02  0.13227397215E+03  0.12509000000E+03 0.  0.
         25    1    3    3    0    0  0.87316436053E+02 -0.49409776629E+02  0.40679657781E+02  0.16543224803E+03  0.12509000000E+03 0.  0.
<mgrwt>
<rscale>  2 0.48547102E+03</rscale>
<asrwt>0</asrwt>
<pdfrwt beam="1">  1       21 0.34123808E-01 0.48547102E+03</pdfrwt>
<pdfrwt beam="2">  1       21 0.37341462E-01 0.48547102E+03</pdfrwt>
<totfact> 0.52390674E+04</totfact>
</mgrwt>
</event>
<event>
 6    0  0.4732500E-002  0.4490838E+03  0.7546771E-02  0.1027996E+00
         21   -1    0    0  502  501  0.00000000000E+00  0.00000000000E+00  0.13202819301E+03  0.13202819301E+03  0.00000000000E+00 0. -1.
         21   -1    0    0  501  502 -0.00000000000E+00 -0.00000000000E+00 -0.38188103825E+03  0.38188103825E+03  0.00000000000E+00 0. -1.
      99926    2    1    2    0    0  0.88817841970E-15  0.00000000000E+00 -0.24985284524E+03  0.51390923126E+03  0.44908379363E+03 0.  0.
         25    1    3    3    0    0 -0.14912732840E+02 -0.28731536200E+02 -0.47081711050E+02  0.13752122159E+03  0.12509000000E+03 0.  0.
         25    1    3    3    0    0  0.46191553454E+01  0.98320183804E+02 -0.50138285965E+02  0.16688184730E+03  0.12509000000E+03 0.  0.
         25    1    3    3    0    0  0.10293577495E+02 -0.69588647604E+02 -0.15263284822E+03  0.20950616237E+03  0.12509000000E+03 0.  0.
<mgrwt>
<rscale>  2 0.44908379E+03</rscale>
<asrwt>0</asrwt>
<pdfrwt beam="1">  1       21 0.19415911E-01 0.44908379E+03</pdfrwt>
<pdfrwt beam="2">  1       21 0.56158974E-01 0.44908379E+03</pdfrwt>
<totfact> 0.67413504E+04</totfact>
</mgrwt>
</event>
<event>
 7    0  0.4732500E-002  0.4487742E+03  0.7546771E-02  0.1028088E+00
         21   -1    0    0  502  501  0.00000000000E+00  0.00000000000E+00  0.19009970839E+03  0.19009970839E+03  0.00000000000E+00 0.  1.
         21   -1    0    0  501  502 -0.00000000000E+00 -0.00000000000E+00 -0.26485876031E+03  0.26485876031E+03  0.00000000000E+00 0.  1.
      99926    2    1    2    0    0 -0.35527136788E-14  0.14210854715E-13 -0.74759051927E+02  0.45495846870E+03  0.44877421093E+03 0.  0.
      99925    2    3    3    0    0  0.19038590951E+02 -0.10057629744E+03 -0.79600561590E+02  0.29325192007E+03  0.26302543540E+03 0.  0.
         25    1    3    3    0    0 -0.19038590951E+02  0.10057629744E+03  0.48415096631E+01  0.16170654863E+03  0.12509000000E+03 0.  0.
         25    1    4    4    0    0  0.35771060887E+02 -0.75933587313E+02 -0.21577124984E+02  0.15217936424E+03  0.12509000000E+03 0.  0.
         25    1    4    4    0    0 -0.16732469935E+02 -0.24642710131E+02 -0.58023436606E+02  0.14107255583E+03  0.12509000000E+03 0.  0.
<mgrwt>
<rscale>  2 0.44877421E+03</rscale>
<asrwt>0</asrwt>
<pdfrwt beam="1">  1       21 0.27955840E-01 0.44877421E+03</pdfrwt>
<pdfrwt beam="2">  1       21 0.38949817E-01 0.44877421E+03</pdfrwt>
<totfact> 0.72061206E+04</totfact>
</mgrwt>
</event>
<event>
 7    0  0.4732500E-002  0.4595807E+03  0.7546771E-02  0.1024903E+00
         21   -1    0    0  502  501  0.00000000000E+00  0.00000000000E+00  0.55074909744E+02  0.55074909744E+02  0.00000000000E+00 0.  1.
         21   -1    0    0  501  502 -0.00000000000E+00 -0.00000000000E+00 -0.95875970590E+03  0.95875970590E+03  0.00000000000E+00 0.  1.
      99926    2    1    2    0    0  0.00000000000E+00  0.00000000000E+00 -0.90368479616E+03  0.10138346156E+04  0.45958069702E+03 0.  0.
      99925    2    3    3    0    0  0.67834475287E+02 -0.40499921651E+02 -0.37077208353E+03  0.46076569853E+03  0.26189946799E+03 0.  0.
         25    1    4    4    0    0  0.20970930443E+02 -0.56401785002E+02 -0.17900971943E+03  0.22652357278E+03  0.12509000000E+03 0.  0.
         25    1    3    3    0    0 -0.67834475287E+02  0.40499921651E+02 -0.53291271263E+03  0.55306891711E+03  0.12509000000E+03 0.  0.
         25    1    4    4    0    0  0.46863544844E+02  0.15901863351E+02 -0.19176236409E+03  0.23424212575E+03  0.12509000000E+03 0.  0.
<mgrwt>
<rscale>  2 0.45958070E+03</rscale>
<asrwt>0</asrwt>
<pdfrwt beam="1">  1       21 0.80992516E-02 0.45958070E+03</pdfrwt>
<pdfrwt beam="2">  1       21 0.14099407E+00 0.45958070E+03</pdfrwt>
<totfact> 0.37281501E+04</totfact>
</mgrwt>
</event>
<event>
 7    0  0.4732500E-002  0.4577130E+03  0.7546771E-02  0.1025447E+00
         21   -1    0    0  502  501  0.00000000000E+00  0.00000000000E+00  0.67779015086E+02  0.67779015086E+02  0.00000000000E+00 0.  1.
         21   -1    0    0  501  502 -0.00000000000E+00 -0.00000000000E+00 -0.77273614839E+03  0.77273614839E+03  0.00000000000E+00 0.  1.
      99926    2    1    2    0    0  0.00000000000E+00 -0.71054273576E-14 -0.70495713330E+03  0.84051516347E+03  0.45771298893E+03 0.  0.
      99925    2    3    3    0    0  0.72882312755E+02  0.56272748985E+02 -0.57133894456E+03  0.63562548034E+03  0.26289371978E+03 0.  0.
         25    1    4    4    0    0  0.42557723674E+02  0.66301989648E+02 -0.33887484191E+03  0.36971716251E+03  0.12509000000E+03 0.  0.
         25    1    4    4    0    0  0.30324589080E+02 -0.10029240663E+02 -0.23246410265E+03  0.26590831783E+03  0.12509000000E+03 0.  0.
         25    1    3    3    0    0 -0.72882312755E+02 -0.56272748985E+02 -0.13361818874E+03  0.20488968313E+03  0.12509000000E+03 0.  0.
<mgrwt>
<rscale>  2 0.45771299E+03</rscale>
<asrwt>0</asrwt>
<pdfrwt beam="1">  1       21 0.99675019E-02 0.45771299E+03</pdfrwt>
<pdfrwt beam="2">  1       21 0.11363767E+00 0.45771299E+03</pdfrwt>
<totfact> 0.44903296E+04</totfact>
</mgrwt>
</event>
<event>
 7    0  0.4732500E-002  0.4551959E+03  0.7546771E-02  0.1026184E+00
         21   -1    0    0  502  501  0.00000000000E+00  0.00000000000E+00  0.40475293663E+02  0.40475293663E+02  0.00000000000E+00 0.  1.
         21   -1    0    0  501  502 -0.00000000000E+00 -0.00000000000E+00 -0.12798134507E+04  0.12798134507E+04  0.00000000000E+00 0.  1.
      99926    2    1    2    0    0  0.00000000000E+00  0.00000000000E+00 -0.12393381570E+04  0.13202887443E+04  0.45519589299E+03 0.  0.
      99925    2    3    3    0    0 -0.48887622251E+02  0.88713644531E+02 -0.63220576087E+03  0.69218257108E+03  0.26300661075E+03 0.  0.
         25    1    4    4    0    0 -0.25031026514E+02  0.61042822990E+02 -0.23636677883E+03  0.27544426072E+03  0.12509000000E+03 0.  0.
         25    1    3    3    0    0  0.48887622251E+02 -0.88713644531E+02 -0.60713239613E+03  0.62810617324E+03  0.12509000000E+03 0.  0.
         25    1    4    4    0    0 -0.23856595737E+02  0.27670821541E+02 -0.39583898204E+03  0.41673831036E+03  0.12509000000E+03 0.  0.
<mgrwt>
<rscale>  2 0.45519589E+03</rscale>
<asrwt>0</asrwt>
<pdfrwt beam="1">  1       21 0.59522478E-02 0.45519589E+03</pdfrwt>
<pdfrwt beam="2">  1       21 0.18820790E+00 0.45519589E+03</pdfrwt>
<totfact> 0.28487701E+04</totfact>
</mgrwt>
</event>
<event>
 7    0  0.4732500E-002  0.4390536E+03  0.7546771E-02  0.1031038E+00
         21   -1    0    0  502  501  0.00000000000E+00  0.00000000000E+00  0.19021066114E+04  0.19021066114E+04  0.00000000000E+00 0. -1.
         21   -1    0    0  501  502 -0.00000000000E+00 -0.00000000000E+00 -0.25336130747E+02  0.25336130747E+02  0.00000000000E+00 0. -1.
      99926    2    1    2    0    0  0.00000000000E+00  0.00000000000E+00  0.18767704806E+04  0.19274427421E+04  0.43905362679E+03 0.  0.
      99925    2    3    3    0    0  0.82494873528E+02 -0.31810634967E+02  0.13778618614E+04  0.14055475045E+04  0.26314094613E+03 0.  0.
         25    1    4    4    0    0  0.28700692649E+02 -0.43238860094E+02  0.54646994212E+03  0.56300109637E+03  0.12509000000E+03 0.  0.
         25    1    4    4    0    0  0.53794180879E+02  0.11428225127E+02  0.83139191930E+03  0.84254640810E+03  0.12509000000E+03 0.  0.
         25    1    3    3    0    0 -0.82494873528E+02  0.31810634967E+02  0.49890861922E+03  0.52189523765E+03  0.12509000000E+03 0.  0.
<mgrwt>
<rscale>  2 0.43905363E+03</rscale>
<asrwt>0</asrwt>
<pdfrwt beam="1">  1       21 0.27972146E+00 0.43905363E+03</pdfrwt>
<pdfrwt beam="2">  1       21 0.37259029E-02 0.43905363E+03</pdfrwt>
<totfact> 0.16931405E+04</totfact>
</mgrwt>
</event>
<event>
 7    0  0.4732500E-002  0.4538089E+03  0.7546771E-02  0.1026592E+00
         21   -1    0    0  502  501  0.00000000000E+00  0.00000000000E+00  0.69982285928E+02  0.69982285928E+02  0.00000000000E+00 0.  1.
         21   -1    0    0  501  502 -0.00000000000E+00 -0.00000000000E+00 -0.73569502205E+03  0.73569502205E+03  0.00000000000E+00 0.  1.
      99926    2    1    2    0    0  0.00000000000E+00  0.00000000000E+00 -0.66571273612E+03  0.80567730798E+03  0.45380885575E+03 0.  0.
      99925    2    3    3    0    0 -0.87682177648E+01 -0.36373793475E+01 -0.22139968692E+03  0.34399375189E+03  0.26310410069E+03 0.  0.
         25    1    4    4    0    0  0.10239384585E+01 -0.41910782609E+02 -0.10489259171E+03  0.16854532341E+03  0.12509000000E+03 0.  0.
         25    1    3    3    0    0  0.87682177648E+01  0.36373793475E+01 -0.44431304920E+03  0.46168355609E+03  0.12509000000E+03 0.  0.
         25    1    4    4    0    0 -0.97921562233E+01  0.38273403261E+02 -0.11650709522E+03  0.17544842848E+03  0.12509000000E+03 0.  0.
<mgrwt>
<rscale>  2 0.45380886E+03</rscale>
<asrwt>0</asrwt>
<pdfrwt beam="1">  1       21 0.10291512E-01 0.45380886E+03</pdfrwt>
<pdfrwt beam="2">  1       21 0.10819045E+00 0.45380886E+03</pdfrwt>
<totfact> 0.47937957E+04</totfact>
</mgrwt>
</event>
<event>
 7    0  0.4732500E-002  0.4538755E+03  0.7546771E-02  0.1026573E+00
         21   -1    0    0  502  501  0.00000000000E+00  0.00000000000E+00  0.13128144818E+03  0.13128144818E+03  0.00000000000E+00 0. -1.
         21   -1    0    0  501  502 -0.00000000000E+00 -0.00000000000E+00 -0.39229265168E+03  0.39229265168E+03  0.00000000000E+00 0. -1.
      99926    2    1    2    0    0 -0.71054273576E-14  0.71054273576E-14 -0.26101120350E+03  0.52357409986E+03  0.45387552225E+03 0.  0.
      99925    2    3    3    0    0  0.35202297474E+02  0.63139309325E+02 -0.26327564512E+03  0.37908046704E+03  0.26298699787E+03 0.  0.
         25    1    3    3    0    0 -0.35202297474E+02 -0.63139309325E+02  0.22644416254E+01  0.14449363282E+03  0.12509000000E+03 0.  0.
         25    1    4    4    0    0  0.12219944633E+01  0.63113290378E+02 -0.16467472028E+03  0.21621760403E+03  0.12509000000E+03 0.  0.
         25    1    4    4    0    0  0.33980303011E+02  0.26018947281E-01 -0.98600924837E+02  0.16286286301E+03  0.12509000000E+03 0.  0.
<mgrwt>
<rscale>  2 0.45387552E+03</rscale>
<asrwt>0</asrwt>
<pdfrwt beam="1">  1       21 0.19306095E-01 0.45387552E+03</pdfrwt>
<pdfrwt beam="2">  1       21 0.57690096E-01 0.45387552E+03</pdfrwt>
<totfact> 0.64214107E+04</totfact>
</mgrwt>
</event>
<event>
 7    0  0.4732500E-002  0.4553181E+03  0.7546771E-02  0.1026148E+00
         21   -1    0    0  502  501  0.00000000000E+00  0.00000000000E+00  0.56213182758E+03  0.56213182758E+03  0.00000000000E+00 0. -1.
         21   -1    0    0  501  502 -0.00000000000E+00 -0.00000000000E+00 -0.92200141189E+02  0.92200141189E+02  0.00000000000E+00 0. -1.
      99926    2    1    2    0    0  0.35527136788E-14  0.00000000000E+00  0.46993168639E+03  0.65433196877E+03  0.45531805969E+03 0.  0.
      99925    2    3    3    0    0  0.16593660496E+02  0.11193379484E+03  0.27854821276E+03  0.39922480291E+03  0.26265340742E+03 0.  0.
         25    1    3    3    0    0 -0.16593660496E+02 -0.11193379484E+03  0.19138347362E+03  0.25510716586E+03  0.12509000000E+03 0.  0.
         25    1    4    4    0    0 -0.21820030785E+00  0.40831596495E+02  0.18409989345E+03  0.22629084328E+03  0.12509000000E+03 0.  0.
         25    1    4    4    0    0  0.16811860804E+02  0.71102198342E+02  0.94448319320E+02  0.17293395964E+03  0.12509000000E+03 0.  0.
<mgrwt>
<rscale>  2 0.45531806E+03</rscale>
<asrwt>0</asrwt>
<pdfrwt beam="1">  1       21 0.82666443E-01 0.45531806E+03</pdfrwt>
<pdfrwt beam="2">  1       21 0.13558845E-01 0.45531806E+03</pdfrwt>
<totfact> 0.55313716E+04</totfact>
</mgrwt>
</event>
<event>
 7    0  0.4732500E-002  0.4572192E+03  0.7546771E-02  0.1025591E+00
         21   -1    0    0  502  501  0.00000000000E+00  0.00000000000E+00  0.51625792372E+03  0.51625792372E+03  0.00000000000E+00 0.  1.
         21   -1    0    0  501  502 -0.00000000000E+00 -0.00000000000E+00 -0.10123304068E+03  0.10123304068E+03  0.00000000000E+00 0.  1.
      99926    2    1    2    0    0  0.00000000000E+00  0.00000000000E+00  0.41502488304E+03  0.61749096440E+03  0.45721924453E+03 0.  0.
      99925    2    3    3    0    0 -0.10127343584E+03 -0.49179628675E+02  0.29437790464E+03  0.41042057497E+03  0.26289114274E+03 0.  0.
         25    1    4    4    0    0 -0.78903015521E+02 -0.55928670685E+02  0.17638353875E+03  0.23688048232E+03  0.12509000000E+03 0.  0.
         25    1    4    4    0    0 -0.22370420317E+02  0.67490420104E+01  0.11799436590E+03  0.17354009265E+03  0.12509000000E+03 0.  0.
         25    1    3    3    0    0  0.10127343584E+03  0.49179628675E+02  0.12064697840E+03  0.20707038943E+03  0.12509000000E+03 0.  0.
<mgrwt>
<rscale>  2 0.45721924E+03</rscale>
<asrwt>0</asrwt>
<pdfrwt beam="1">  1       21 0.75920282E-01 0.45721924E+03</pdfrwt>
<pdfrwt beam="2">  1       21 0.14887212E-01 0.45721924E+03</pdfrwt>
<totfact> 0.56615585E+04</totfact>
</mgrwt>
</event>
<event>
 7    0  0.4732500E-002  0.4517363E+03  0.7546771E-02  0.1027206E+00
         21   -1    0    0  502  501  0.00000000000E+00  0.00000000000E+00  0.67503062021E+02  0.67503062021E+02  0.00000000000E+00 0.  1.
         21   -1    0    0  501  502 -0.00000000000E+00 -0.00000000000E+00 -0.75576458101E+03  0.75576458101E+03  0.00000000000E+00 0.  1.
      99926    2    1    2    0    0  0.00000000000E+00  0.35527136788E-14 -0.68826151899E+03  0.82326764303E+03  0.45173630975E+03 0.  0.
      99925    2    3    3    0    0  0.10248459844E+03  0.22089128519E+02 -0.49537111620E+03  0.57059149041E+03  0.26304198077E+03 0.  0.
         25    1    4    4    0    0  0.32901705539E+02 -0.15517035236E+02 -0.28515761022E+03  0.31350545670E+03  0.12509000000E+03 0.  0.
         25    1    3    3    0    0 -0.10248459844E+03 -0.22089128519E+02 -0.19289040280E+03  0.25267615263E+03  0.12509000000E+03 0.  0.
         25    1    4    4    0    0  0.69582892898E+02  0.37606163755E+02 -0.21021350597E+03  0.25708603371E+03  0.12509000000E+03 0.  0.
<mgrwt>
<rscale>  2 0.45173631E+03</rscale>
<asrwt>0</asrwt>
<pdfrwt beam="1">  1       21 0.99269206E-02 0.45173631E+03</pdfrwt>
<pdfrwt beam="2">  1       21 0.11114185E+00 0.45173631E+03</pdfrwt>
<totfact> 0.47874149E+04</totfact>
</mgrwt>
</event>
<event>
 7    0  0.4732500E-002  0.4442744E+03  0.7546771E-02  0.1029443E+00
         21   -1    0    0  502  501  0.00000000000E+00  0.00000000000E+00  0.25685976808E+03  0.25685976808E+03  0.00000000000E+00 0. -1.
         21   -1    0    0  501  502 -0.00000000000E+00 -0.00000000000E+00 -0.19210842254E+03  0.19210842254E+03  0.00000000000E+00 0. -1.
      99926    2    1    2    0    0  0.00000000000E+00  0.35527136788E-14  0.64751345545E+02  0.44896819062E+03  0.44427435154E+03 0.  0.
      99925    2    3    3    0    0 -0.10998704609E+02 -0.26592143664E+02  0.14085779997E+03  0.29974415062E+03  0.26301620181E+03 0.  0.
         25    1    4    4    0    0 -0.32636398245E+01 -0.52812211582E+02  0.83558511466E+02  0.15946571411E+03  0.12509000000E+03 0.  0.
         25    1    3    3    0    0  0.10998704609E+02  0.26592143664E+02 -0.76106454421E+02  0.14922403999E+03  0.12509000000E+03 0.  0.
         25    1    4    4    0    0 -0.77350647847E+01  0.26220067918E+02  0.57299288501E+02  0.14027843652E+03  0.12509000000E+03 0.  0.
<mgrwt>
<rscale>  2 0.44427435E+03</rscale>
<asrwt>0</asrwt>
<pdfrwt beam="1">  1       21 0.37773495E-01 0.44427435E+03</pdfrwt>
<pdfrwt beam="2">  1       21 0.28251239E-01 0.44427435E+03</pdfrwt>
<totfact> 0.75223263E+04</totfact>
</mgrwt>
</event>
<event>
 7    0  0.4732500E-002  0.4355781E+03  0.7546771E-02  0.1032112E+00
         21   -1    0    0  502  501  0.00000000000E+00  0.00000000000E+00  0.30826743145E+04  0.30826743145E+04  0.00000000000E+00 0.  1.
         21   -1    0    0  501  502 -0.00000000000E+00 -0.00000000000E+00 -0.15386662191E+02  0.15386662191E+02  0.00000000000E+00 0.  1.
      99926    2    1    2    0    0  0.00000000000E+00  0.00000000000E+00  0.30672876523E+04  0.30980609767E+04  0.43557809092E+03 0.  0.
      99925    2    3    3    0    0  0.16308442022E+02  0.87089386146E+02  0.17456359317E+04  0.17675493063E+04  0.26293576699E+03 0.  0.
         25    1    3    3    0    0 -0.16308442022E+02 -0.87089386146E+02  0.13216517206E+04  0.13305116704E+04  0.12509000000E+03 0.  0.
         25    1    4    4    0    0 -0.25295481634E+02  0.32793120062E+02  0.97136877551E+03  0.98026529891E+03  0.12509000000E+03 0.  0.
         25    1    4    4    0    0  0.41603923656E+02  0.54296266085E+02  0.77426715618E+03  0.78728400734E+03  0.12509000000E+03 0.  0.
<mgrwt>
<rscale>  2 0.43557809E+03</rscale>
<asrwt>0</asrwt>
<pdfrwt beam="1">  1       21 0.45333403E+00 0.43557809E+03</pdfrwt>
<pdfrwt beam="2">  1       21 0.22627466E-02 0.43557809E+03</pdfrwt>
<totfact> 0.31934431E+03</totfact>
</mgrwt>
</event>
<event>
 7    0  0.4732500E-002  0.4545205E+03  0.7546771E-02  0.1026383E+00
         21   -1    0    0  502  501  0.00000000000E+00  0.00000000000E+00  0.16049860029E+03  0.16049860029E+03  0.00000000000E+00 0. -1.
         21   -1    0    0  501  502 -0.00000000000E+00 -0.00000000000E+00 -0.32179232406E+03  0.32179232406E+03  0.00000000000E+00 0. -1.
      99926    2    1    2    0    0  0.00000000000E+00  0.00000000000E+00 -0.16129372378E+03  0.48229092435E+03  0.45452048400E+03 0.  0.
      99925    2    3    3    0    0 -0.48628083176E+02  0.93886248127E+02 -0.14288048132E+03  0.31747019246E+03  0.26304595245E+03 0.  0.
         25    1    4    4    0    0  0.75260210032E+01  0.62435110264E+02 -0.48958207952E+02  0.14832126689E+03  0.12509000000E+03 0.  0.
         25    1    3    3    0    0  0.48628083176E+02 -0.93886248127E+02 -0.18413242460E+02  0.16482073188E+03  0.12509000000E+03 0.  0.
         25    1    4    4    0    0 -0.56154104179E+02  0.31451137863E+02 -0.93922273365E+02  0.16914892557E+03  0.12509000000E+03 0.  0.
<mgrwt>
<rscale>  2 0.45452048E+03</rscale>
<asrwt>0</asrwt>
<pdfrwt beam="1">  1       21 0.23602736E-01 0.45452048E+03</pdfrwt>
<pdfrwt beam="2">  1       21 0.47322400E-01 0.45452048E+03</pdfrwt>
<totfact> 0.66787572E+04</totfact>
</mgrwt>
</event>
<event>
 7    0  0.4732500E-002  0.4509769E+03  0.7546771E-02  0.1027431E+00
         21   -1    0    0  502  501  0.00000000000E+00  0.00000000000E+00  0.84673992431E+02  0.84673992431E+02  0.00000000000E+00 0. -1.
         21   -1    0    0  501  502 -0.00000000000E+00 -0.00000000000E+00 -0.60048000621E+03  0.60048000621E+03  0.00000000000E+00 0. -1.
      99926    2    1    2    0    0  0.00000000000E+00  0.00000000000E+00 -0.51580601378E+03  0.68515399864E+03  0.45097689298E+03 0.  0.
      99925    2    3    3    0    0 -0.57431916949E+02  0.40053443766E+02 -0.19821424277E+03  0.33670781262E+03  0.26302197931E+03 0.  0.
         25    1    3    3    0    0  0.57431916949E+02 -0.40053443766E+02 -0.31759177100E+03  0.34844618602E+03  0.12509000000E+03 0.  0.
         25    1    4    4    0    0 -0.19717461499E+02 -0.13401259148E+02 -0.12168487646E+03  0.17613372560E+03  0.12509000000E+03 0.  0.
         25    1    4    4    0    0 -0.37714455449E+02  0.53454702914E+02 -0.76529366315E+02  0.16057408702E+03  0.12509000000E+03 0.  0.
<mgrwt>
<rscale>  2 0.45097689E+03</rscale>
<asrwt>0</asrwt>
<pdfrwt beam="1">  1       21 0.12452057E-01 0.45097689E+03</pdfrwt>
<pdfrwt beam="2">  1       21 0.88305888E-01 0.45097689E+03</pdfrwt>
<totfact> 0.55452272E+04</totfact>
</mgrwt>
</event>
<event>
 7    0  0.4732500E-002  0.4587426E+03  0.7546771E-02  0.1025147E+00
         21   -1    0    0  502  501  0.00000000000E+00  0.00000000000E+00  0.53591658325E+03  0.53591658325E+03  0.00000000000E+00 0.  1.
         21   -1    0    0  501  502 -0.00000000000E+00 -0.00000000000E+00 -0.98170488068E+02  0.98170488068E+02  0.00000000000E+00 0.  1.
      99926    2    1    2    0    0  0.00000000000E+00  0.00000000000E+00  0.43774609518E+03  0.63408707132E+03  0.45874259685E+03 0.  0.
      99925    2    3    3    0    0 -0.10021892979E+03  0.39886178590E+02  0.21319090589E+03  0.35532681183E+03  0.26300577887E+03 0.  0.
         25    1    3    3    0    0  0.10021892979E+03 -0.39886178590E+02  0.22455518929E+03  0.27876025949E+03  0.12509000000E+03 0.  0.
         25    1    4    4    0    0 -0.52691227910E+02  0.55499355222E+02  0.13631106638E+03  0.20021178499E+03  0.12509000000E+03 0.  0.
         25    1    4    4    0    0 -0.47527701883E+02 -0.15613176633E+02  0.76879839505E+02  0.15511502685E+03  0.12509000000E+03 0.  0.
<mgrwt>
<rscale>  2 0.45874260E+03</rscale>
<asrwt>0</asrwt>
<pdfrwt beam="1">  1       21 0.78811261E-01 0.45874260E+03</pdfrwt>
<pdfrwt beam="2">  1       21 0.14436837E-01 0.45874260E+03</pdfrwt>
<totfact> 0.54985247E+04</totfact>
</mgrwt>
</event>
<event>
 7    0  0.4732500E-002  0.4547064E+03  0.7546771E-02  0.1026328E+00
         21   -1    0    0  502  501  0.00000000000E+00  0.00000000000E+00  0.25990927455E+03  0.25990927455E+03  0.00000000000E+00 0. -1.
         21   -1    0    0  501  502 -0.00000000000E+00 -0.00000000000E+00 -0.19887509013E+03  0.19887509013E+03  0.00000000000E+00 0. -1.
      99926    2    1    2    0    0  0.00000000000E+00 -0.71054273576E-14  0.61034184423E+02  0.45878436468E+03  0.45470641254E+03 0.  0.
      99925    2    3    3    0    0 -0.25145748348E+02 -0.53180584023E+02 -0.58493864766E+02  0.27604152400E+03  0.26328104295E+03 0.  0.
         25    1    4    4    0    0 -0.24399927056E+02  0.10778785499E+02 -0.13985021747E+02  0.12866478769E+03  0.12509000000E+03 0.  0.
         25    1    3    3    0    0  0.25145748348E+02  0.53180584023E+02  0.11952804919E+03  0.18274284068E+03  0.12509000000E+03 0.  0.
         25    1    4    4    0    0 -0.74582129164E+00 -0.63959369522E+02 -0.44508843019E+02  0.14737673631E+03  0.12509000000E+03 0.  0.
<mgrwt>
<rscale>  2 0.45470641E+03</rscale>
<asrwt>0</asrwt>
<pdfrwt beam="1">  1       21 0.38221952E-01 0.45470641E+03</pdfrwt>
<pdfrwt beam="2">  1       21 0.29246337E-01 0.45470641E+03</pdfrwt>
<totfact> 0.68429322E+04</totfact>
</mgrwt>
</event>
<event>
 7    0  0.4732500E-002  0.4573483E+03  0.7546771E-02  0.1025553E+00
         21   -1    0    0  502  501  0.00000000000E+00  0.00000000000E+00  0.95642888885E+03  0.95642888885E+03  0.00000000000E+00 0. -1.
         21   -1    0    0  501  502 -0.00000000000E+00 -0.00000000000E+00 -0.54674077512E+02  0.54674077512E+02  0.00000000000E+00 0. -1.
      99926    2    1    2    0    0  0.00000000000E+00 -0.14210854715E-13  0.90175481134E+03  0.10111029664E+04  0.45734830142E+03 0.  0.
      99925    2    3    3    0    0  0.48842248161E+02 -0.70719942919E+02  0.73640666756E+03  0.78666056332E+03  0.26296993426E+03 0.  0.
         25    1    4    4    0    0 -0.12188579623E+01 -0.43794034640E+01  0.29708743143E+03  0.32238038836E+03  0.12509000000E+03 0.  0.
         25    1    4    4    0    0  0.50061106123E+02 -0.66340539455E+02  0.43931923614E+03  0.46428017496E+03  0.12509000000E+03 0.  0.
         25    1    3    3    0    0 -0.48842248161E+02  0.70719942919E+02  0.16534814378E+03  0.22444240304E+03  0.12509000000E+03 0.  0.
<mgrwt>
<rscale>  2 0.45734830E+03</rscale>
<asrwt>0</asrwt>
<pdfrwt beam="1">  1       21 0.14065130E+00 0.45734830E+03</pdfrwt>
<pdfrwt beam="2">  1       21 0.80403061E-02 0.45734830E+03</pdfrwt>
<totfact> 0.38035423E+04</totfact>
</mgrwt>
</event>
<event>
 7    0  0.4732500E-002  0.4589715E+03  0.7546771E-02  0.1025080E+00
         21   -1    0    0  502  501  0.00000000000E+00  0.00000000000E+00  0.35683141807E+03  0.35683141807E+03  0.00000000000E+00 0.  1.
         21   -1    0    0  501  502 -0.00000000000E+00 -0.00000000000E+00 -0.14758711589E+03  0.14758711589E+03  0.00000000000E+00 0.  1.
      99926    2    1    2    0    0  0.00000000000E+00 -0.44408920985E-15  0.20924430218E+03  0.50441853396E+03  0.45897154531E+03 0.  0.
      99925    2    3    3    0    0 -0.11616848080E+03  0.31047500096E+01  0.12031417121E+03  0.31190663381E+03  0.26325936454E+03 0.  0.
         25    1    4    4    0    0 -0.80652189158E+02  0.11673900075E+02  0.27221798089E+02  0.15175503270E+03  0.12509000000E+03 0.  0.
         25    1    4    4    0    0 -0.35516291642E+02 -0.85691500652E+01  0.93092373117E+02  0.16015160111E+03  0.12509000000E+03 0.  0.
         25    1    3    3    0    0  0.11616848080E+03 -0.31047500096E+01  0.88930130972E+02  0.19251190015E+03  0.12509000000E+03 0.  0.
<mgrwt>
<rscale>  2 0.45897155E+03</rscale>
<asrwt>0</asrwt>
<pdfrwt beam="1">  1       21 0.52475209E-01 0.45897155E+03</pdfrwt>
<pdfrwt beam="2">  1       21 0.21703988E-01 0.45897155E+03</pdfrwt>
<totfact> 0.62953209E+04</totfact>
</mgrwt>
</event>
<event>
 7    0  0.4732500E-002  0.4568195E+03  0.7546771E-02  0.1025708E+00
         21   -1    0    0  502  501  0.00000000000E+00  0.00000000000E+00  0.31834155987E+03  0.31834155987E+03  0.00000000000E+00 0.  1.
         21   -1    0    0  501  502 -0.00000000000E+00 -0.00000000000E+00 -0.16388377033E+03  0.16388377033E+03  0.00000000000E+00 0.  1.
      99926    2    1    2    0    0  0.00000000000E+00  0.00000000000E+00  0.15445778953E+03  0.48222533020E+03  0.45681950521E+03 0.  0.
      99925    2    3    3    0    0 -0.75405697543E+02  0.74664018621E+02  0.50437890155E+02  0.28798737700E+03  0.26292967434E+03 0.  0.
         25    1    4    4    0    0 -0.28480184232E+02 -0.26596793874E+01  0.11797591824E+02  0.12885994747E+03  0.12509000000E+03 0.  0.
         25    1    3    3    0    0  0.75405697543E+02 -0.74664018621E+02  0.10401989938E+03  0.19423795321E+03  0.12509000000E+03 0.  0.
         25    1    4    4    0    0 -0.46925513311E+02  0.77323698008E+02  0.38640298331E+02  0.15912742953E+03  0.12509000000E+03 0.  0.
<mgrwt>
<rscale>  2 0.45681951E+03</rscale>
<asrwt>0</asrwt>
<pdfrwt beam="1">  1       21 0.46814935E-01 0.45681951E+03</pdfrwt>
<pdfrwt beam="2">  1       21 0.24100555E-01 0.45681951E+03</pdfrwt>
<totfact> 0.65586094E+04</totfact>
</mgrwt>
</event>
<event>
 7    0  0.4732500E-002  0.4509115E+03  0.7546771E-02  0.1027451E+00
         21   -1    0    0  502  501  0.00000000000E+00  0.00000000000E+00  0.54701780018E+02  0.54701780018E+02  0.00000000000E+00 0.  1.
         21   -1    0    0  501  502 -0.00000000000E+00 -0.00000000000E+00 -0.92922551500E+03  0.92922551500E+03  0.00000000000E+00 0.  1.
      99926    2    1    2    0    0  0.00000000000E+00  0.00000000000E+00 -0.87452373498E+03  0.98392729501E+03  0.45091147560E+03 0.  0.
      99925    2    3    3    0    0  0.99681141394E+02  0.74511586090E+00 -0.45468024863E+03  0.53464681883E+03  0.26301370163E+03 0.  0.
         25    1    4    4    0    0  0.14100152545E+02 -0.12105404499E+02 -0.24360796431E+03  0.27447714567E+03  0.12509000000E+03 0.  0.
         25    1    4    4    0    0  0.85580988849E+02  0.12850520359E+02 -0.21107228432E+03  0.26016967316E+03  0.12509000000E+03 0.  0.
         25    1    3    3    0    0 -0.99681141394E+02 -0.74511586090E+00 -0.41984348635E+03  0.44928047618E+03  0.12509000000E+03 0.  0.
<mgrwt>
<rscale>  2 0.45091148E+03</rscale>
<asrwt>0</asrwt>
<pdfrwt beam="1">  1       21 0.80443806E-02 0.45091148E+03</pdfrwt>
<pdfrwt beam="2">  1       21 0.13665079E+00 0.45091148E+03</pdfrwt>
<totfact> 0.41094062E+04</totfact>
</mgrwt>
</event>
<event>
 7    0  0.4732500E-002  0.4483361E+03  0.7546771E-02  0.1028219E+00
         21   -1    0    0  502  501  0.00000000000E+00  0.00000000000E+00  0.21236692759E+03  0.21236692759E+03  0.00000000000E+00 0.  1.
         21   -1    0    0  501  502 -0.00000000000E+00 -0.00000000000E+00 -0.23662495589E+03  0.23662495589E+03  0.00000000000E+00 0.  1.
      99926    2    1    2    0    0  0.00000000000E+00  0.00000000000E+00 -0.24258028298E+02  0.44899188349E+03  0.44833610105E+03 0.  0.
      99925    2    3    3    0    0 -0.25462284179E+02  0.57409712078E+02 -0.10178917749E+03  0.28898316450E+03  0.26307038935E+03 0.  0.
         25    1    4    4    0    0  0.48249468235E+01 -0.28919246455E+01 -0.69575431177E+02  0.14324765989E+03  0.12509000000E+03 0.  0.
         25    1    3    3    0    0  0.25462284179E+02 -0.57409712078E+02  0.77531149192E+02  0.16000871899E+03  0.12509000000E+03 0.  0.
         25    1    4    4    0    0 -0.30287231003E+02  0.60301636724E+02 -0.32213746312E+02  0.14573550461E+03  0.12509000000E+03 0.  0.
<mgrwt>
<rscale>  2 0.44833610E+03</rscale>
<asrwt>0</asrwt>
<pdfrwt beam="1">  1       21 0.31230431E-01 0.44833610E+03</pdfrwt>
<pdfrwt beam="2">  1       21 0.34797787E-01 0.44833610E+03</pdfrwt>
<totfact> 0.72781751E+04</totfact>
</mgrwt>
</event>
<event>
 7    0  0.4732500E-002  0.4541276E+03  0.7546771E-02  0.1026498E+00
         21   -1    0    0  502  501  0.00000000000E+00  0.00000000000E+00  0.18027668763E+03  0.18027668763E+03  0.00000000000E+00 0. -1.
         21   -1    0    0  501  502 -0.00000000000E+00 -0.00000000000E+00 -0.28599358776E+03  0.28599358776E+03  0.00000000000E+00 0. -1.
      99926    2    1    2    0    0  0.00000000000E+00 -0.17763568394E-14 -0.10571690013E+03  0.46627027538E+03  0.45412763264E+03 0.  0.
      99925    2    3    3    0    0  0.10664346810E+03  0.85100623180E+01 -0.31112697197E+02  0.28555352009E+03  0.26292120960E+03 0.  0.
         25    1    4    4    0    0  0.30787563767E+02  0.38241544028E+02 -0.95156734931E+01  0.13471579683E+03  0.12509000000E+03 0.  0.
         25    1    4    4    0    0  0.75855904329E+02 -0.29731481710E+02 -0.21597023703E+02  0.15083772326E+03  0.12509000000E+03 0.  0.
         25    1    3    3    0    0 -0.10664346810E+03 -0.85100623180E+01 -0.74604202935E+02  0.18071675529E+03  0.12509000000E+03 0.  0.
<mgrwt>
<rscale>  2 0.45412763E+03</rscale>
<asrwt>0</asrwt>
<pdfrwt beam="1">  1       21 0.26511278E-01 0.45412763E+03</pdfrwt>
<pdfrwt beam="2">  1       21 0.42057881E-01 0.45412763E+03</pdfrwt>
<totfact> 0.68184971E+04</totfact>
</mgrwt>
</event>
<event>
 7    0  0.4732500E-002  0.4456969E+03  0.7546771E-02  0.1029013E+00
         21   -1    0    0  502  501  0.00000000000E+00  0.00000000000E+00  0.30246149046E+03  0.30246149046E+03  0.00000000000E+00 0. -1.
         21   -1    0    0  501  502 -0.00000000000E+00 -0.00000000000E+00 -0.16419090758E+03  0.16419090758E+03  0.00000000000E+00 0. -1.
      99926    2    1    2    0    0  0.00000000000E+00  0.00000000000E+00  0.13827058288E+03  0.46665239804E+03  0.44569687737E+03 0.  0.
      99925    2    3    3    0    0 -0.14774764399E+02  0.89901470462E+02  0.14065404221E+03  0.31188238469E+03  0.26303325689E+03 0.  0.
         25    1    3    3    0    0  0.14774764399E+02 -0.89901470462E+02 -0.23834593300E+01  0.15477001335E+03  0.12509000000E+03 0.  0.
         25    1    4    4    0    0 -0.46241627017E+02  0.49316190187E+02  0.84976449917E+02  0.16564685274E+03  0.12509000000E+03 0.  0.
         25    1    4    4    0    0  0.31466862618E+02  0.40585280274E+02  0.55677592296E+02  0.14623553194E+03  0.12509000000E+03 0.  0.
<mgrwt>
<rscale>  2 0.44569688E+03</rscale>
<asrwt>0</asrwt>
<pdfrwt beam="1">  1       21 0.44479631E-01 0.44569688E+03</pdfrwt>
<pdfrwt beam="2">  1       21 0.24145722E-01 0.44569688E+03</pdfrwt>
<totfact> 0.72921278E+04</totfact>
</mgrwt>
</event>
<event>
 7    0  0.4732500E-002  0.4473102E+03  0.7546771E-02  0.1028527E+00
         21   -1    0    0  502  501  0.00000000000E+00  0.00000000000E+00  0.32774121601E+03  0.32774121601E+03  0.00000000000E+00 0.  1.
         21   -1    0    0  501  502 -0.00000000000E+00 -0.00000000000E+00 -0.15262532144E+03  0.15262532144E+03  0.00000000000E+00 0.  1.
      99926    2    1    2    0    0 -0.35527136788E-14  0.14210854715E-13  0.17511589457E+03  0.48036653745E+03  0.44731022096E+03 0.  0.
      99925    2    3    3    0    0  0.21343063131E+02 -0.10112838989E+03  0.13526029720E+03  0.31327837412E+03  0.26299337274E+03 0.  0.
         25    1    4    4    0    0  0.31217265592E+02 -0.88474290750E+02  0.70845656446E+02  0.17166488555E+03  0.12509000000E+03 0.  0.
         25    1    3    3    0    0 -0.21343063131E+02  0.10112838989E+03  0.39855597367E+02  0.16708816334E+03  0.12509000000E+03 0.  0.
         25    1    4    4    0    0 -0.98742024611E+01 -0.12654099140E+02  0.64414640756E+02  0.14161348856E+03  0.12509000000E+03 0.  0.
<mgrwt>
<rscale>  2 0.44731022E+03</rscale>
<asrwt>0</asrwt>
<pdfrwt beam="1">  1       21 0.48197238E-01 0.44731022E+03</pdfrwt>
<pdfrwt beam="2">  1       21 0.22444900E-01 0.44731022E+03</pdfrwt>
<totfact> 0.70903815E+04</totfact>
</mgrwt>
</event>
<event>
 7    0  0.4732500E-002  0.4489457E+03  0.7546771E-02  0.1028037E+00
         21   -1    0    0  502  501  0.00000000000E+00  0.00000000000E+00  0.20425034635E+03  0.20425034635E+03  0.00000000000E+00 0.  1.
         21   -1    0    0  501  502 -0.00000000000E+00 -0.00000000000E+00 -0.24669755352E+03  0.24669755352E+03  0.00000000000E+00 0.  1.
      99926    2    1    2    0    0 -0.26645352591E-14  0.00000000000E+00 -0.42447207164E+02  0.45094789987E+03  0.44894570162E+03 0.  0.
      99925    2    3    3    0    0 -0.50823840003E+01 -0.62530919674E+02 -0.11436454097E+03  0.29360891060E+03  0.26304181723E+03 0.  0.
         25    1    4    4    0    0 -0.40175836201E+02 -0.19314492089E+02 -0.45714662387E+02  0.14044388871E+03  0.12509000000E+03 0.  0.
         25    1    4    4    0    0  0.35093452201E+02 -0.43216427585E+02 -0.68649878583E+02  0.15316502189E+03  0.12509000000E+03 0.  0.
         25    1    3    3    0    0  0.50823840003E+01  0.62530919674E+02  0.71917333806E+02  0.15733898927E+03  0.12509000000E+03 0.  0.
<mgrwt>
<rscale>  2 0.44894570E+03</rscale>
<asrwt>0</asrwt>
<pdfrwt beam="1">  1       21 0.30036816E-01 0.44894570E+03</pdfrwt>
<pdfrwt beam="2">  1       21 0.36279052E-01 0.44894570E+03</pdfrwt>
<totfact> 0.72272185E+04</totfact>
</mgrwt>
</event>
<event>
 7    0  0.4732500E-002  0.4636967E+03  0.7546771E-02  0.1023715E+00
         21   -1    0    0  502  501  0.00000000000E+00  0.00000000000E+00  0.13305425190E+03  0.13305425190E+03  0.00000000000E+00 0. -1.
         21   -1    0    0  501  502 -0.00000000000E+00 -0.00000000000E+00 -0.40399801423E+03  0.40399801423E+03  0.00000000000E+00 0. -1.
      99926    2    1    2    0    0  0.71054273576E-14  0.14210854715E-13 -0.27094376233E+03  0.53705226613E+03  0.46369668341E+03 0.  0.
      99925    2    3    3    0    0 -0.56860601712E+02 -0.10684858878E+03 -0.17605641565E+03  0.33880780690E+03  0.26295459604E+03 0.  0.
         25    1    4    4    0    0 -0.54732628618E+02 -0.89029334818E+02 -0.10361317427E+03  0.19314523312E+03  0.12509000000E+03 0.  0.
         25    1    3    3    0    0  0.56860601712E+02  0.10684858878E+03 -0.94887346686E+02  0.19824445922E+03  0.12509000000E+03 0.  0.
         25    1    4    4    0    0 -0.21279730941E+01 -0.17819253963E+02 -0.72443241376E+02  0.14566257379E+03  0.12509000000E+03 0.  0.
<mgrwt>
<rscale>  2 0.46369668E+03</rscale>
<asrwt>0</asrwt>
<pdfrwt beam="1">  1       21 0.19566802E-01 0.46369668E+03</pdfrwt>
<pdfrwt beam="2">  1       21 0.59411471E-01 0.46369668E+03</pdfrwt>
<totfact> 0.58588007E+04</totfact>
</mgrwt>
</event>
<event>
 7    0  0.4732500E-002  0.4447866E+03  0.7546771E-02  0.1029288E+00
         21   -1    0    0  502  501  0.00000000000E+00  0.00000000000E+00  0.34059145156E+03  0.34059145156E+03  0.00000000000E+00 0.  1.
         21   -1    0    0  501  502 -0.00000000000E+00 -0.00000000000E+00 -0.14521438717E+03  0.14521438717E+03  0.00000000000E+00 0.  1.
      99926    2    1    2    0    0 -0.17763568394E-14  0.00000000000E+00  0.19537706439E+03  0.48580583874E+03  0.44478659564E+03 0.  0.
      99925    2    3    3    0    0 -0.14480868606E+02  0.80329857122E+02  0.54959036350E+02  0.28080019930E+03  0.26299367816E+03 0.  0.
         25    1    4    4    0    0  0.27815174429E+02  0.19719073901E+02  0.18158924878E+02  0.13091898433E+03  0.12509000000E+03 0.  0.
         25    1    4    4    0    0 -0.42296043034E+02  0.60610783221E+02  0.36800111472E+02  0.14988121498E+03  0.12509000000E+03 0.  0.
         25    1    3    3    0    0  0.14480868606E+02 -0.80329857122E+02  0.14041802804E+03  0.20500563943E+03  0.12509000000E+03 0.  0.
<mgrwt>
<rscale>  2 0.44478660E+03</rscale>
<asrwt>0</asrwt>
<pdfrwt beam="1">  1       21 0.50086978E-01 0.44478660E+03</pdfrwt>
<pdfrwt beam="2">  1       21 0.21355057E-01 0.44478660E+03</pdfrwt>
<totfact> 0.71938063E+04</totfact>
</mgrwt>
</event>
<event>
 7    0  0.4732500E-002  0.4441587E+03  0.7546771E-02  0.1029478E+00
         21   -1    0    0  502  501  0.00000000000E+00  0.00000000000E+00  0.16264517818E+04  0.16264517818E+04  0.00000000000E+00 0.  1.
         21   -1    0    0  501  502 -0.00000000000E+00 -0.00000000000E+00 -0.30323208105E+02  0.30323208105E+02  0.00000000000E+00 0.  1.
      99926    2    1    2    0    0  0.00000000000E+00  0.00000000000E+00  0.15961285737E+04  0.16567749899E+04  0.44415869169E+03 0.  0.
      99925    2    3    3    0    0 -0.17182140069E+02  0.94954860697E+02  0.88535647441E+03  0.92865677373E+03  0.26312670922E+03 0.  0.
         25    1    4    4    0    0 -0.71989318625E+01  0.81999209970E+02  0.39802197552E+03  0.42525838751E+03  0.12509000000E+03 0.  0.
         25    1    4    4    0    0 -0.99832082065E+01  0.12955650727E+02  0.48733449889E+03  0.50339838621E+03  0.12509000000E+03 0.  0.
         25    1    3    3    0    0  0.17182140069E+02 -0.94954860697E+02  0.71077209927E+03  0.72811821616E+03  0.12509000000E+03 0.  0.
<mgrwt>
<rscale>  2 0.44415869E+03</rscale>
<asrwt>0</asrwt>
<pdfrwt beam="1">  1       21 0.23918403E+00 0.44415869E+03</pdfrwt>
<pdfrwt beam="2">  1       21 0.44592964E-02 0.44415869E+03</pdfrwt>
<totfact> 0.21968595E+04</totfact>
</mgrwt>
</event>
<event>
 7    0  0.4732500E-002  0.4523566E+03  0.7546771E-02  0.1027022E+00
         21   -1    0    0  502  501  0.00000000000E+00  0.00000000000E+00  0.35161745552E+03  0.35161745552E+03  0.00000000000E+00 0. -1.
         21   -1    0    0  501  502 -0.00000000000E+00 -0.00000000000E+00 -0.14548944978E+03  0.14548944978E+03  0.00000000000E+00 0. -1.
      99926    2    1    2    0    0  0.17763568394E-14  0.00000000000E+00  0.20612800574E+03  0.49710690530E+03  0.45235662983E+03 0.  0.
      99925    2    3    3    0    0  0.14829058115E+01  0.58489260175E+02  0.23400230388E+03  0.35622512095E+03  0.26213749448E+03 0.  0.
         25    1    3    3    0    0 -0.14829058115E+01 -0.58489260175E+02 -0.27874298135E+02  0.14088178435E+03  0.12509000000E+03 0.  0.
         25    1    4    4    0    0  0.27431064576E+02  0.25995880150E+02  0.15423517393E+03  0.20214906892E+03  0.12509000000E+03 0.  0.
         25    1    4    4    0    0 -0.25948158765E+02  0.32493380025E+02  0.79767129947E+02  0.15407605203E+03  0.12509000000E+03 0.  0.
<mgrwt>
<rscale>  2 0.45235663E+03</rscale>
<asrwt>0</asrwt>
<pdfrwt beam="1">  1       21 0.51708449E-01 0.45235663E+03</pdfrwt>
<pdfrwt beam="2">  1       21 0.21395507E-01 0.45235663E+03</pdfrwt>
<totfact> 0.66866515E+04</totfact>
</mgrwt>
</event>
<event>
 7    0  0.4732500E-002  0.4830800E+03  0.7546771E-02  0.1018292E+00
         21   -1    0    0  502  501  0.00000000000E+00  0.00000000000E+00  0.16465724524E+03  0.16465724524E+03  0.00000000000E+00 0. -1.
         21   -1    0    0  501  502 -0.00000000000E+00 -0.00000000000E+00 -0.35432128457E+03  0.35432128457E+03  0.00000000000E+00 0. -1.
      99926    2    1    2    0    0  0.14210854715E-13  0.00000000000E+00 -0.18966403933E+03  0.51897852982E+03  0.48307997950E+03 0.  0.
      99925    2    3    3    0    0  0.10008254436E+03 -0.33838320844E+02 -0.21474179786E+02  0.28425127405E+03  0.26301349540E+03 0.  0.
         25    1    4    4    0    0  0.64558275053E+02 -0.34053005934E+02 -0.45928457681E+02  0.15193521454E+03  0.12509000000E+03 0.  0.
         25    1    3    3    0    0 -0.10008254436E+03  0.33838320844E+02 -0.16818985955E+03  0.23472725576E+03  0.12509000000E+03 0.  0.
         25    1    4    4    0    0  0.35524269304E+02  0.21468509009E+00  0.24454277895E+02  0.13231605952E+03  0.12509000000E+03 0.  0.
<mgrwt>
<rscale>  2 0.48307998E+03</rscale>
<asrwt>0</asrwt>
<pdfrwt beam="1">  1       21 0.24214301E-01 0.48307998E+03</pdfrwt>
<pdfrwt beam="2">  1       21 0.52106071E-01 0.48307998E+03</pdfrwt>
<totfact> 0.51488177E+04</totfact>
</mgrwt>
</event>
<event>
 7    0  0.4732500E-002  0.4528684E+03  0.7546771E-02  0.1026870E+00
         21   -1    0    0  502  501  0.00000000000E+00  0.00000000000E+00  0.16197856460E+03  0.16197856460E+03  0.00000000000E+00 0.  1.
         21   -1    0    0  501  502 -0.00000000000E+00 -0.00000000000E+00 -0.31653840185E+03  0.31653840185E+03  0.00000000000E+00 0.  1.
      99926    2    1    2    0    0  0.00000000000E+00  0.00000000000E+00 -0.15455983725E+03  0.47851696645E+03  0.45286835161E+03 0.  0.
      99925    2    3    3    0    0 -0.12788174595E+02  0.11028795521E+03 -0.10388341807E+03  0.30375261644E+03  0.26295801370E+03 0.  0.
         25    1    4    4    0    0  0.12151230896E+02  0.73063223852E+02 -0.20317317692E+02  0.14678620027E+03  0.12509000000E+03 0.  0.
         25    1    4    4    0    0 -0.24939405491E+02  0.37224731362E+02 -0.83566100377E+02  0.15696641616E+03  0.12509000000E+03 0.  0.
         25    1    3    3    0    0  0.12788174595E+02 -0.11028795521E+03 -0.50676419181E+02  0.17476435001E+03  0.12509000000E+03 0.  0.
<mgrwt>
<rscale>  2 0.45286835E+03</rscale>
<asrwt>0</asrwt>
<pdfrwt beam="1">  1       21 0.23820377E-01 0.45286835E+03</pdfrwt>
<pdfrwt beam="2">  1       21 0.46549765E-01 0.45286835E+03</pdfrwt>
<totfact> 0.67950656E+04</totfact>
</mgrwt>
</event>
<event>
 7    0  0.4732500E-002  0.4536586E+03  0.7546771E-02  0.1026637E+00
         21   -1    0    0  502  501  0.00000000000E+00  0.00000000000E+00  0.11953013463E+03  0.11953013463E+03  0.00000000000E+00 0.  1.
         21   -1    0    0  501  502 -0.00000000000E+00 -0.00000000000E+00 -0.43044818414E+03  0.43044818414E+03  0.00000000000E+00 0.  1.
      99926    2    1    2    0    0  0.14210854715E-13 -0.35527136788E-14 -0.31091804951E+03  0.54997831877E+03  0.45365859146E+03 0.  0.
      99925    2    3    3    0    0 -0.11062374243E+03  0.15199030696E+02 -0.18783173371E+03  0.34197261654E+03  0.26305111167E+03 0.  0.
         25    1    4    4    0    0 -0.76939931670E+02  0.28099577197E+02 -0.65185770553E+02  0.16311355586E+03  0.12509000000E+03 0.  0.
         25    1    3    3    0    0  0.11062374243E+03 -0.15199030696E+02 -0.12308631580E+03  0.20800570223E+03  0.12509000000E+03 0.  0.
         25    1    4    4    0    0 -0.33683810755E+02 -0.12900546501E+02 -0.12264596315E+03  0.17885906067E+03  0.12509000000E+03 0.  0.
<mgrwt>
<rscale>  2 0.45365859E+03</rscale>
<asrwt>0</asrwt>
<pdfrwt beam="1">  1       21 0.17577961E-01 0.45365859E+03</pdfrwt>
<pdfrwt beam="2">  1       21 0.63301204E-01 0.45365859E+03</pdfrwt>
<totfact> 0.62528931E+04</totfact>
</mgrwt>
</event>
<event>
 7    0  0.4732500E-002  0.4408100E+03  0.7546771E-02  0.1030499E+00
         21   -1    0    0  502  501  0.00000000000E+00  0.00000000000E+00  0.46287587086E+03  0.46287587086E+03  0.00000000000E+00 0. -1.
         21   -1    0    0  501  502 -0.00000000000E+00 -0.00000000000E+00 -0.10494898724E+03  0.10494898724E+03  0.00000000000E+00 0. -1.
      99926    2    1    2    0    0  0.00000000000E+00  0.00000000000E+00  0.35792688361E+03  0.56782485810E+03  0.44080995391E+03 0.  0.
      99925    2    3    3    0    0 -0.32000494901E+02  0.91370928903E+02  0.21069178783E+03  0.35172682513E+03  0.26447693989E+03 0.  0.
         25    1    4    4    0    0 -0.16706192654E+01  0.23251270166E+01  0.92822570987E+02  0.15579388617E+03  0.12509000000E+03 0.  0.
         25    1    4    4    0    0 -0.30329875636E+02  0.89045801887E+02  0.11786921684E+03  0.19593293896E+03  0.12509000000E+03 0.  0.
         25    1    3    3    0    0  0.32000494901E+02 -0.91370928903E+02  0.14723509579E+03  0.21609803297E+03  0.12509000000E+03 0.  0.
<mgrwt>
<rscale>  2 0.44080995E+03</rscale>
<asrwt>0</asrwt>
<pdfrwt beam="1">  1       21 0.68069980E-01 0.44080995E+03</pdfrwt>
<pdfrwt beam="2">  1       21 0.15433675E-01 0.44080995E+03</pdfrwt>
<totfact> 0.68021467E+04</totfact>
</mgrwt>
</event>
<event>
 7    0  0.4732500E-002  0.4582416E+03  0.7546771E-02  0.1025292E+00
         21   -1    0    0  502  501  0.00000000000E+00  0.00000000000E+00  0.33015528212E+02  0.33015528212E+02  0.00000000000E+00 0. -1.
         21   -1    0    0  501  502 -0.00000000000E+00 -0.00000000000E+00 -0.15900499527E+04  0.15900499527E+04  0.00000000000E+00 0. -1.
      99926    2    1    2    0    0 -0.71054273576E-14  0.00000000000E+00 -0.15570344245E+04  0.16230654809E+04  0.45824159162E+03 0.  0.
      99925    2    3    3    0    0  0.61128212403E+02  0.91607386178E+02 -0.84371190777E+03  0.89053214207E+03  0.26281008580E+03 0.  0.
         25    1    4    4    0    0  0.57019055845E+02  0.57803759140E+02 -0.35807216556E+03  0.38788610590E+03  0.12509000000E+03 0.  0.
         25    1    3    3    0    0 -0.61128212403E+02 -0.91607386178E+02 -0.71332251676E+03  0.73253333888E+03  0.12509000000E+03 0.  0.
         25    1    4    4    0    0  0.41091565583E+01  0.33803627039E+02 -0.48563974221E+03  0.50264603617E+03  0.12509000000E+03 0.  0.
<mgrwt>
<rscale>  2 0.45824159E+03</rscale>
<asrwt>0</asrwt>
<pdfrwt beam="1">  1       21 0.48552246E-02 0.45824159E+03</pdfrwt>
<pdfrwt beam="2">  1       21 0.23383088E+00 0.45824159E+03</pdfrwt>
<totfact> 0.20395344E+04</totfact>
</mgrwt>
</event>
<event>
 7    0  0.4732500E-002  0.4531636E+03  0.7546771E-02  0.1026783E+00
         21   -1    0    0  502  501  0.00000000000E+00  0.00000000000E+00  0.33065794584E+03  0.33065794584E+03  0.00000000000E+00 0.  1.
         21   -1    0    0  501  502 -0.00000000000E+00 -0.00000000000E+00 -0.15526407760E+03  0.15526407760E+03  0.00000000000E+00 0.  1.
      99926    2    1    2    0    0  0.14210854715E-13  0.00000000000E+00  0.17539386824E+03  0.48592202344E+03  0.45316355089E+03 0.  0.
      99925    2    3    3    0    0 -0.91826169036E+02 -0.33029183302E+02  0.52843273097E+02  0.28544975918E+03  0.26299464108E+03 0.  0.
         25    1    4    4    0    0 -0.13548007700E+02 -0.70353453314E+01 -0.16044121943E+01  0.12602827792E+03  0.12509000000E+03 0.  0.
         25    1    4    4    0    0 -0.78278161336E+02 -0.25993837970E+02  0.54447685291E+02  0.15942148126E+03  0.12509000000E+03 0.  0.
         25    1    3    3    0    0  0.91826169036E+02  0.33029183302E+02  0.12255059514E+03  0.20047226426E+03  0.12509000000E+03 0.  0.
<mgrwt>
<rscale>  2 0.45316355E+03</rscale>
<asrwt>0</asrwt>
<pdfrwt beam="1">  1       21 0.48626168E-01 0.45316355E+03</pdfrwt>
<pdfrwt beam="2">  1       21 0.22832953E-01 0.45316355E+03</pdfrwt>
<totfact> 0.67246520E+04</totfact>
</mgrwt>
</event>
<event>
 7    0  0.4732500E-002  0.4521934E+03  0.7546771E-02  0.1027070E+00
         21   -1    0    0  502  501  0.00000000000E+00  0.00000000000E+00  0.49445349484E+02  0.49445349484E+02  0.00000000000E+00 0. -1.
         21   -1    0    0  501  502 -0.00000000000E+00 -0.00000000000E+00 -0.10338630707E+04  0.10338630707E+04  0.00000000000E+00 0. -1.
      99926    2    1    2    0    0  0.00000000000E+00  0.00000000000E+00 -0.98441772120E+03  0.10833084202E+04  0.45219341370E+03 0.  0.
      99925    2    3    3    0    0 -0.10620816522E+02 -0.10917450660E+03 -0.58607098228E+03  0.65161465470E+03  0.26285088418E+03 0.  0.
         25    1    4    4    0    0  0.20699540074E+02 -0.35982096209E+02 -0.33549987013E+03  0.36045922539E+03  0.12509000000E+03 0.  0.
         25    1    4    4    0    0 -0.31320356596E+02 -0.73192410393E+02 -0.25057111215E+03  0.29115542932E+03  0.12509000000E+03 0.  0.
         25    1    3    3    0    0  0.10620816522E+02  0.10917450660E+03 -0.39834673892E+03  0.43169376547E+03  0.12509000000E+03 0.  0.
<mgrwt>
<rscale>  2 0.45219341E+03</rscale>
<asrwt>0</asrwt>
<pdfrwt beam="1">  1       21 0.72713748E-02 0.45219341E+03</pdfrwt>
<pdfrwt beam="2">  1       21 0.15203869E+00 0.45219341E+03</pdfrwt>
<totfact> 0.36879414E+04</totfact>
</mgrwt>
</event>
<event>
 7    0  0.4732500E-002  0.4601918E+03  0.7546771E-02  0.1024726E+00
         21   -1    0    0  502  501  0.00000000000E+00  0.00000000000E+00  0.36153924815E+03  0.36153924815E+03  0.00000000000E+00 0.  1.
         21   -1    0    0  501  502 -0.00000000000E+00 -0.00000000000E+00 -0.14644089345E+03  0.14644089345E+03  0.00000000000E+00 0.  1.
      99926    2    1    2    0    0  0.71054273576E-14  0.00000000000E+00  0.21509835470E+03  0.50798014160E+03  0.46019183181E+03 0.  0.
      99925    2    3    3    0    0 -0.60724173022E+02  0.72507896949E+02  0.21273546221E+03  0.35114292768E+03  0.26286908998E+03 0.  0.
         25    1    3    3    0    0  0.60724173022E+02 -0.72507896949E+02  0.23628924896E+01  0.15683721392E+03  0.12509000000E+03 0.  0.
         25    1    4    4    0    0 -0.52279583722E+02  0.49517193451E+01  0.12060748589E+03  0.18152506204E+03  0.12509000000E+03 0.  0.
         25    1    4    4    0    0 -0.84445892997E+01  0.67556177604E+02  0.92127976328E+02  0.16961786564E+03  0.12509000000E+03 0.  0.
<mgrwt>
<rscale>  2 0.46019183E+03</rscale>
<asrwt>0</asrwt>
<pdfrwt beam="1">  1       21 0.53167537E-01 0.46019183E+03</pdfrwt>
<pdfrwt beam="2">  1       21 0.21535425E-01 0.46019183E+03</pdfrwt>
<totfact> 0.62114189E+04</totfact>
</mgrwt>
</event>
<event>
 7    0  0.4732500E-002  0.4529767E+03  0.7546771E-02  0.1026838E+00
         21   -1    0    0  502  501  0.00000000000E+00  0.00000000000E+00  0.24717213545E+03  0.24717213545E+03  0.00000000000E+00 0.  1.
         21   -1    0    0  501  502 -0.00000000000E+00 -0.00000000000E+00 -0.20753537771E+03  0.20753537771E+03  0.00000000000E+00 0.  1.
      99926    2    1    2    0    0  0.00000000000E+00  0.00000000000E+00  0.39636757741E+02  0.45470751316E+03  0.45297665498E+03 0.  0.
      99925    2    3    3    0    0  0.72597496349E+02 -0.84586689771E+02  0.25256850476E+02  0.28654213505E+03  0.26276069360E+03 0.  0.
         25    1    4    4    0    0  0.39475720178E+02 -0.23853715510E+02 -0.23768600159E+02  0.13542446855E+03  0.12509000000E+03 0.  0.
         25    1    4    4    0    0  0.33121776171E+02 -0.60732974261E+02  0.49025450636E+02  0.15111766650E+03  0.12509000000E+03 0.  0.
         25    1    3    3    0    0 -0.72597496349E+02  0.84586689771E+02  0.14379907265E+02  0.16816537811E+03  0.12509000000E+03 0.  0.
<mgrwt>
<rscale>  2 0.45297665E+03</rscale>
<asrwt>0</asrwt>
<pdfrwt beam="1">  1       21 0.36348844E-01 0.45297665E+03</pdfrwt>
<pdfrwt beam="2">  1       21 0.30519908E-01 0.45297665E+03</pdfrwt>
<totfact> 0.69685443E+04</totfact>
</mgrwt>
</event>
<event>
 7    0  0.4732500E-002  0.4475180E+03  0.7546771E-02  0.1028465E+00
         21   -1    0    0  502  501  0.00000000000E+00  0.00000000000E+00  0.93670635506E+03  0.93670635506E+03  0.00000000000E+00 0.  1.
         21   -1    0    0  501  502 -0.00000000000E+00 -0.00000000000E+00 -0.53451216181E+02  0.53451216181E+02  0.00000000000E+00 0.  1.
      99926    2    1    2    0    0  0.71054273576E-14  0.00000000000E+00  0.88325513888E+03  0.99015757124E+03  0.44751801699E+03 0.  0.
      99925    2    3    3    0    0  0.56006058173E+02  0.88816714942E+02  0.59041570022E+03  0.65485542043E+03  0.26309662711E+03 0.  0.
         25    1    4    4    0    0  0.22810706301E+02  0.35639956489E+02  0.37887393069E+03  0.40122748943E+03  0.12509000000E+03 0.  0.
         25    1    3    3    0    0 -0.56006058173E+02 -0.88816714942E+02  0.29283943866E+03  0.33530215081E+03  0.12509000000E+03 0.  0.
         25    1    4    4    0    0  0.33195351872E+02  0.53176758453E+02  0.21154176953E+03  0.25362793099E+03  0.12509000000E+03 0.  0.
<mgrwt>
<rscale>  2 0.44751802E+03</rscale>
<asrwt>0</asrwt>
<pdfrwt beam="1">  1       21 0.13775092E+00 0.44751802E+03</pdfrwt>
<pdfrwt beam="2">  1       21 0.78604735E-02 0.44751802E+03</pdfrwt>
<totfact> 0.41950236E+04</totfact>
</mgrwt>
</event>
<event>
 7    0  0.4732500E-002  0.4480947E+03  0.7546771E-02  0.1028292E+00
         21   -1    0    0  502  501  0.00000000000E+00  0.00000000000E+00  0.79907781928E+02  0.79907781928E+02  0.00000000000E+00 0. -1.
         21   -1    0    0  501  502 -0.00000000000E+00 -0.00000000000E+00 -0.62818927559E+03  0.62818927559E+03  0.00000000000E+00 0. -1.
      99926    2    1    2    0    0  0.00000000000E+00  0.00000000000E+00 -0.54828149366E+03  0.70809705751E+03  0.44809468483E+03 0.  0.
      99925    2    3    3    0    0 -0.59899959749E+01 -0.83171927249E+02 -0.45206846140E+03  0.52960922821E+03  0.26299542064E+03 0.  0.
         25    1    3    3    0    0  0.59899959749E+01  0.83171927249E+02 -0.96213032259E+02  0.17848782931E+03  0.12509000000E+03 0.  0.
         25    1    4    4    0    0  0.36647293627E+02 -0.46639478471E+02 -0.24035409435E+03  0.27737314912E+03  0.12509000000E+03 0.  0.
         25    1    4    4    0    0 -0.42637289602E+02 -0.36532448778E+02 -0.21171436705E+03  0.25223607909E+03  0.12509000000E+03 0.  0.
<mgrwt>
<rscale>  2 0.44809468E+03</rscale>
<asrwt>0</asrwt>
<pdfrwt beam="1">  1       21 0.11751144E-01 0.44809468E+03</pdfrwt>
<pdfrwt beam="2">  1       21 0.92380778E-01 0.44809468E+03</pdfrwt>
<totfact> 0.55415498E+04</totfact>
</mgrwt>
</event>
<event>
 7    0  0.4732500E-002  0.4478061E+03  0.7546771E-02  0.1028378E+00
         21   -1    0    0  502  501  0.00000000000E+00  0.00000000000E+00  0.57149465870E+02  0.57149465870E+02  0.00000000000E+00 0. -1.
         21   -1    0    0  501  502 -0.00000000000E+00 -0.00000000000E+00 -0.87721881548E+03  0.87721881548E+03  0.00000000000E+00 0. -1.
      99926    2    1    2    0    0  0.14210854715E-13  0.00000000000E+00 -0.82006934961E+03  0.93436828135E+03  0.44780614894E+03 0.  0.
      99925    2    3    3    0    0 -0.91952018167E+02  0.24473550270E+02 -0.42054902676E+03  0.50504541360E+03  0.26297387242E+03 0.  0.
         25    1    3    3    0    0  0.91952018167E+02 -0.24473550270E+02 -0.39952032284E+03  0.42932286775E+03  0.12509000000E+03 0.  0.
         25    1    4    4    0    0 -0.62385306232E+02  0.44328909857E+02 -0.18606907066E+03  0.23690965755E+03  0.12509000000E+03 0.  0.
         25    1    4    4    0    0 -0.29566711935E+02 -0.19855359587E+02 -0.23447995610E+03  0.26813575605E+03  0.12509000000E+03 0.  0.
<mgrwt>
<rscale>  2 0.44780615E+03</rscale>
<asrwt>0</asrwt>
<pdfrwt beam="1">  1       21 0.84043332E-02 0.44780615E+03</pdfrwt>
<pdfrwt beam="2">  1       21 0.12900277E+00 0.44780615E+03</pdfrwt>
<totfact> 0.44216175E+04</totfact>
</mgrwt>
</event>
<event>
 7    0  0.4732500E-002  0.4480504E+03  0.7546771E-02  0.1028305E+00
         21   -1    0    0  502  501  0.00000000000E+00  0.00000000000E+00  0.79935879226E+03  0.79935879226E+03  0.00000000000E+00 0. -1.
         21   -1    0    0  501  502 -0.00000000000E+00 -0.00000000000E+00 -0.62784436808E+02  0.62784436808E+02  0.00000000000E+00 0. -1.
      99926    2    1    2    0    0  0.00000000000E+00 -0.14210854715E-13  0.73657435545E+03  0.86214322907E+03  0.44805040600E+03 0.  0.
      99925    2    3    3    0    0  0.33745292585E+02 -0.98029167668E+02  0.51084539708E+03  0.58402538852E+03  0.26338977244E+03 0.  0.
         25    1    3    3    0    0 -0.33745292585E+02  0.98029167668E+02  0.22572895838E+03  0.27811784055E+03  0.12509000000E+03 0.  0.
         25    1    4    4    0    0  0.10316619617E+02 -0.10377917048E+02  0.26905645016E+03  0.29707409055E+03  0.12509000000E+03 0.  0.
         25    1    4    4    0    0  0.23428672968E+02 -0.87651250620E+02  0.24178894692E+03  0.28695129796E+03  0.12509000000E+03 0.  0.
<mgrwt>
<rscale>  2 0.44805041E+03</rscale>
<asrwt>0</asrwt>
<pdfrwt beam="1">  1       21 0.11755276E+00 0.44805041E+03</pdfrwt>
<pdfrwt beam="2">  1       21 0.92330059E-02 0.44805041E+03</pdfrwt>
<totfact> 0.47433992E+04</totfact>
</mgrwt>
</event>
<event>
 7    0  0.4732500E-002  0.4558094E+03  0.7546771E-02  0.1026004E+00
         21   -1    0    0  502  501  0.00000000000E+00  0.00000000000E+00  0.83656877299E+02  0.83656877299E+02  0.00000000000E+00 0.  1.
         21   -1    0    0  501  502 -0.00000000000E+00 -0.00000000000E+00 -0.62087595796E+03  0.62087595796E+03  0.00000000000E+00 0.  1.
      99926    2    1    2    0    0  0.00000000000E+00  0.00000000000E+00 -0.53721908066E+03  0.70453283526E+03  0.45580936293E+03 0.  0.
      99925    2    3    3    0    0  0.89793158453E+02 -0.31038456597E+02 -0.24025454764E+03  0.36858397149E+03  0.26287962889E+03 0.  0.
         25    1    4    4    0    0  0.48500986944E+02 -0.31338441643E+02 -0.17151362733E+03  0.21999744571E+03  0.12509000000E+03 0.  0.
         25    1    3    3    0    0 -0.89793158453E+02  0.31038456597E+02 -0.29696453302E+03  0.33594886377E+03  0.12509000000E+03 0.  0.
         25    1    4    4    0    0  0.41292171509E+02  0.29998504625E+00 -0.68740920307E+02  0.14858652578E+03  0.12509000000E+03 0.  0.
<mgrwt>
<rscale>  2 0.45580936E+03</rscale>
<asrwt>0</asrwt>
<pdfrwt beam="1">  1       21 0.12302482E-01 0.45580936E+03</pdfrwt>
<pdfrwt beam="2">  1       21 0.91305289E-01 0.45580936E+03</pdfrwt>
<totfact> 0.52323508E+04</totfact>
</mgrwt>
</event>
<event>
 7    0  0.4732500E-002  0.4540164E+03  0.7546771E-02  0.1026531E+00
         21   -1    0    0  502  501  0.00000000000E+00  0.00000000000E+00  0.32744241297E+02  0.32744241297E+02  0.00000000000E+00 0.  1.
         21   -1    0    0  501  502 -0.00000000000E+00 -0.00000000000E+00 -0.15737949059E+04  0.15737949059E+04  0.00000000000E+00 0.  1.
      99926    2    1    2    0    0  0.00000000000E+00  0.00000000000E+00 -0.15410506646E+04  0.16065391472E+04  0.45401638803E+03 0.  0.
      99925    2    3    3    0    0 -0.47913892167E+02  0.10120795046E+03 -0.94422777857E+03  0.98655216694E+03  0.26302146293E+03 0.  0.
         25    1    4    4    0    0 -0.44786773873E+02  0.27868961253E+02 -0.54950601368E+03  0.56602729730E+03  0.12509000000E+03 0.  0.
         25    1    3    3    0    0  0.47913892167E+02 -0.10120795046E+03 -0.59682288599E+03  0.61998698022E+03  0.12509000000E+03 0.  0.
         25    1    4    4    0    0 -0.31271182932E+01  0.73338989207E+02 -0.39472176489E+03  0.42052486964E+03  0.12509000000E+03 0.  0.
<mgrwt>
<rscale>  2 0.45401639E+03</rscale>
<asrwt>0</asrwt>
<pdfrwt beam="1">  1       21 0.48153281E-02 0.45401639E+03</pdfrwt>
<pdfrwt beam="2">  1       21 0.23144050E+00 0.45401639E+03</pdfrwt>
<totfact> 0.21445738E+04</totfact>
</mgrwt>
</event>
<event>
 6    0  0.4732500E-002  0.4630836E+03  0.7546771E-02  0.1023891E+00
         21   -1    0    0  502  501  0.00000000000E+00  0.00000000000E+00  0.16161640059E+04  0.16161640059E+04  0.00000000000E+00 0. -1.
         21   -1    0    0  501  502 -0.00000000000E+00 -0.00000000000E+00 -0.33172134754E+02  0.33172134754E+02  0.00000000000E+00 0. -1.
      99926    2    1    2    0    0  0.14210854715E-13  0.00000000000E+00  0.15829918712E+04  0.16493361407E+04  0.46308362178E+03 0.  0.
         25    1    3    3    0    0  0.62334154387E+02  0.51962405898E+02  0.65397346706E+03  0.67075661916E+03  0.12509000000E+03 0.  0.
         25    1    3    3    0    0 -0.91791521764E+02 -0.36577162779E+02  0.34008279528E+03  0.37558938757E+03  0.12509000000E+03 0.  0.
         25    1    3    3    0    0  0.29457367377E+02 -0.15385243119E+02  0.58893560884E+03  0.60299013396E+03  0.12509000000E+03 0.  0.
<mgrwt>
<rscale>  2 0.46308362E+03</rscale>
<asrwt>0</asrwt>
<pdfrwt beam="1">  1       21 0.23767113E+00 0.46308362E+03</pdfrwt>
<pdfrwt beam="2">  1       21 0.48782562E-02 0.46308362E+03</pdfrwt>
<totfact> 0.19109698E+04</totfact>
</mgrwt>
</event>
<event>
 7    0  0.4732500E-002  0.4573586E+03  0.7546771E-02  0.1025550E+00
         21   -1    0    0  502  501  0.00000000000E+00  0.00000000000E+00  0.90396788987E+03  0.90396788987E+03  0.00000000000E+00 0.  1.
         21   -1    0    0  501  502 -0.00000000000E+00 -0.00000000000E+00 -0.57849657826E+02  0.57849657826E+02  0.00000000000E+00 0.  1.
      99926    2    1    2    0    0  0.00000000000E+00  0.26645352591E-14  0.84611823204E+03  0.96181754770E+03  0.45735864752E+03 0.  0.
      99925    2    3    3    0    0  0.41545578969E+02  0.43372389728E+01  0.75744130040E+03  0.80289633112E+03  0.26302157362E+03 0.  0.
         25    1    4    4    0    0  0.44016841307E+02 -0.28470869750E+02  0.34735881233E+03  0.37289908199E+03  0.12509000000E+03 0.  0.
         25    1    4    4    0    0 -0.24712623384E+01  0.32808108723E+02  0.41008248807E+03  0.42999724913E+03  0.12509000000E+03 0.  0.
         25    1    3    3    0    0 -0.41545578969E+02 -0.43372389728E+01  0.88676931640E+02  0.15892121658E+03  0.12509000000E+03 0.  0.
<mgrwt>
<rscale>  2 0.45735865E+03</rscale>
<asrwt>0</asrwt>
<pdfrwt beam="1">  1       21 0.13293645E+00 0.45735865E+03</pdfrwt>
<pdfrwt beam="2">  1       21 0.85073031E-02 0.45735865E+03</pdfrwt>
<totfact> 0.39924601E+04</totfact>
</mgrwt>
</event>
<event>
 7    0  0.4732500E-002  0.4524442E+03  0.7546771E-02  0.1026996E+00
         21   -1    0    0  502  501  0.00000000000E+00  0.00000000000E+00  0.72852958435E+02  0.72852958435E+02  0.00000000000E+00 0.  1.
         21   -1    0    0  501  502 -0.00000000000E+00 -0.00000000000E+00 -0.70246208773E+03  0.70246208773E+03  0.00000000000E+00 0.  1.
      99926    2    1    2    0    0  0.00000000000E+00  0.48849813084E-14 -0.62960912930E+03  0.77531504617E+03  0.45244421216E+03 0.  0.
      99925    2    3    3    0    0 -0.98900331909E+02 -0.79330829239E+00 -0.31185375429E+03  0.41979023489E+03  0.26303834749E+03 0.  0.
         25    1    4    4    0    0 -0.35550143911E+02 -0.36596964629E+02 -0.13118885362E+03  0.18831137503E+03  0.12509000000E+03 0.  0.
         25    1    3    3    0    0  0.98900331909E+02  0.79330829239E+00 -0.31775537501E+03  0.35552481128E+03  0.12509000000E+03 0.  0.
         25    1    4    4    0    0 -0.63350187998E+02  0.35803656336E+02 -0.18066490067E+03  0.23147885985E+03  0.12509000000E+03 0.  0.
<mgrwt>
<rscale>  2 0.45244421E+03</rscale>
<asrwt>0</asrwt>
<pdfrwt beam="1">  1       21 0.10713670E-01 0.45244421E+03</pdfrwt>
<pdfrwt beam="2">  1       21 0.10330325E+00 0.45244421E+03</pdfrwt>
<totfact> 0.49977108E+04</totfact>
</mgrwt>
</event>
<event>
 7    0  0.4732500E-002  0.4572037E+03  0.7546771E-02  0.1025595E+00
         21   -1    0    0  502  501  0.00000000000E+00  0.00000000000E+00  0.18027475157E+04  0.18027475157E+04  0.00000000000E+00 0. -1.
         21   -1    0    0  501  502 -0.00000000000E+00 -0.00000000000E+00 -0.28988424498E+02  0.28988424498E+02  0.00000000000E+00 0. -1.
      99926    2    1    2    0    0  0.00000000000E+00 -0.35527136788E-14  0.17737590912E+04  0.18317359402E+04  0.45720371935E+03 0.  0.
      99925    2    3    3    0    0 -0.92029023035E+02 -0.30159649440E+02  0.13624214262E+04  0.13910261397E+04  0.26340583350E+03 0.  0.
         25    1    3    3    0    0  0.92029023035E+02  0.30159649440E+02  0.41133766495E+03  0.44070980048E+03  0.12509000000E+03 0.  0.
         25    1    4    4    0    0 -0.67250594415E+02 -0.34148271948E+02  0.57100843640E+03  0.58939535922E+03  0.12509000000E+03 0.  0.
         25    1    4    4    0    0 -0.24778428620E+02  0.39886225081E+01  0.79141298981E+03  0.80163078046E+03  0.12509000000E+03 0.  0.
<mgrwt>
<rscale>  2 0.45720372E+03</rscale>
<asrwt>0</asrwt>
<pdfrwt beam="1">  1       21 0.26510985E+00 0.45720372E+03</pdfrwt>
<pdfrwt beam="2">  1       21 0.42630048E-02 0.45720372E+03</pdfrwt>
<totfact> 0.16375655E+04</totfact>
</mgrwt>
</event>
<event>
 7    0  0.4732500E-002  0.4522029E+03  0.7546771E-02  0.1027067E+00
         21   -1    0    0  502  501  0.00000000000E+00  0.00000000000E+00  0.80560854726E+03  0.80560854726E+03  0.00000000000E+00 0. -1.
         21   -1    0    0  501  502 -0.00000000000E+00 -0.00000000000E+00 -0.63457455435E+02  0.63457455435E+02  0.00000000000E+00 0. -1.
      99926    2    1    2    0    0  0.00000000000E+00  0.88817841970E-15  0.74215109182E+03  0.86906600269E+03  0.45220291235E+03 0.  0.
      99925    2    3    3    0    0  0.10243803154E+03 -0.45760002263E+01  0.54716787225E+03  0.61572738720E+03  0.26308372212E+03 0.  0.
         25    1    4    4    0    0  0.13546338993E+02  0.95228133236E+01  0.20965122819E+03  0.24469436621E+03  0.12509000000E+03 0.  0.
         25    1    3    3    0    0 -0.10243803154E+03  0.45760002263E+01  0.19498321957E+03  0.25333861549E+03  0.12509000000E+03 0.  0.
         25    1    4    4    0    0  0.88891692548E+02 -0.14098813550E+02  0.33751664406E+03  0.37103302099E+03  0.12509000000E+03 0.  0.
<mgrwt>
<rscale>  2 0.45220291E+03</rscale>
<asrwt>0</asrwt>
<pdfrwt beam="1">  1       21 0.11847184E+00 0.45220291E+03</pdfrwt>
<pdfrwt beam="2">  1       21 0.93319792E-02 0.45220291E+03</pdfrwt>
<totfact> 0.45588902E+04</totfact>
</mgrwt>
</event>
<event>
 7    0  0.4732500E-002  0.4492095E+03  0.7546771E-02  0.1027958E+00
         21   -1    0    0  502  501  0.00000000000E+00  0.00000000000E+00  0.22221785898E+03  0.22221785898E+03  0.00000000000E+00 0.  1.
         21   -1    0    0  501  502 -0.00000000000E+00 -0.00000000000E+00 -0.22701729079E+03  0.22701729079E+03  0.00000000000E+00 0.  1.
      99926    2    1    2    0    0 -0.17763568394E-14  0.00000000000E+00 -0.47994318123E+01  0.44923514978E+03  0.44920951153E+03 0.  0.
      99925    2    3    3    0    0  0.47463164586E+01  0.84787882987E+02 -0.68303557612E+02  0.28524797127E+03  0.26360864270E+03 0.  0.
         25    1    4    4    0    0 -0.34868474832E+02  0.22999280185E+02 -0.30221984504E+02  0.13529838829E+03  0.12509000000E+03 0.  0.
         25    1    4    4    0    0  0.39614791291E+02  0.61788602802E+02 -0.38081573108E+02  0.14994958298E+03  0.12509000000E+03 0.  0.
         25    1    3    3    0    0 -0.47463164586E+01 -0.84787882987E+02  0.63504125800E+02  0.16398717851E+03  0.12509000000E+03 0.  0.
<mgrwt>
<rscale>  2 0.44920951E+03</rscale>
<asrwt>0</asrwt>
<pdfrwt beam="1">  1       21 0.32679097E-01 0.44920951E+03</pdfrwt>
<pdfrwt beam="2">  1       21 0.33384896E-01 0.44920951E+03</pdfrwt>
<totfact> 0.72251090E+04</totfact>
</mgrwt>
</event>
<event>
 7    0  0.4732500E-002  0.4565336E+03  0.7546771E-02  0.1025791E+00
         21   -1    0    0  502  501  0.00000000000E+00  0.00000000000E+00  0.22981940651E+03  0.22981940651E+03  0.00000000000E+00 0. -1.
         21   -1    0    0  501  502 -0.00000000000E+00 -0.00000000000E+00 -0.22672463365E+03  0.22672463365E+03  0.00000000000E+00 0. -1.
      99926    2    1    2    0    0  0.00000000000E+00  0.00000000000E+00  0.30947728634E+01  0.45654404016E+03  0.45653355078E+03 0.  0.
      99925    2    3    3    0    0  0.33281074114E+02  0.97235153775E+02 -0.48757439748E+02  0.28654855470E+03  0.26300281604E+03 0.  0.
         25    1    4    4    0    0 -0.46033425417E+01  0.10945459620E+02 -0.17890319400E+02  0.12691952362E+03  0.12509000000E+03 0.  0.
         25    1    4    4    0    0  0.37884416656E+02  0.86289694155E+02 -0.30867120348E+02  0.15962903107E+03  0.12509000000E+03 0.  0.
         25    1    3    3    0    0 -0.33281074114E+02 -0.97235153775E+02  0.51852212611E+02  0.16999548546E+03  0.12509000000E+03 0.  0.
<mgrwt>
<rscale>  2 0.45653355E+03</rscale>
<asrwt>0</asrwt>
<pdfrwt beam="1">  1       21 0.33796972E-01 0.45653355E+03</pdfrwt>
<pdfrwt beam="2">  1       21 0.33341858E-01 0.45653355E+03</pdfrwt>
<totfact> 0.67601843E+04</totfact>
</mgrwt>
</event>
<event>
 7    0  0.4732500E-002  0.4555407E+03  0.7546771E-02  0.1026083E+00
         21   -1    0    0  502  501  0.00000000000E+00  0.00000000000E+00  0.11476502171E+04  0.11476502171E+04  0.00000000000E+00 0. -1.
         21   -1    0    0  501  502 -0.00000000000E+00 -0.00000000000E+00 -0.45204832582E+02  0.45204832582E+02  0.00000000000E+00 0. -1.
      99926    2    1    2    0    0  0.71054273576E-14  0.00000000000E+00  0.11024453845E+04  0.11928550497E+04  0.45554071575E+03 0.  0.
      99925    2    3    3    0    0  0.42653552913E+02  0.78229327900E+02  0.87824707853E+03  0.92109864805E+03  0.26299360291E+03 0.  0.
         25    1    4    4    0    0 -0.69499892412E+01  0.12449262237E+02  0.34673223050E+03  0.36888214141E+03  0.12509000000E+03 0.  0.
         25    1    4    4    0    0  0.49603542154E+02  0.65780065663E+02  0.53151484803E+03  0.55221650664E+03  0.12509000000E+03 0.  0.
         25    1    3    3    0    0 -0.42653552913E+02 -0.78229327900E+02  0.22419830598E+03  0.27175640163E+03  0.12509000000E+03 0.  0.
<mgrwt>
<rscale>  2 0.45554072E+03</rscale>
<asrwt>0</asrwt>
<pdfrwt beam="1">  1       21 0.16877207E+00 0.45554072E+03</pdfrwt>
<pdfrwt beam="2">  1       21 0.66477702E-02 0.45554072E+03</pdfrwt>
<totfact> 0.32247170E+04</totfact>
</mgrwt>
</event>
<event>
 7    0  0.4732500E-002  0.4237638E+03  0.7546771E-02  0.1035848E+00
         21   -1    0    0  502  501  0.00000000000E+00  0.00000000000E+00  0.21430768092E+03  0.21430768092E+03  0.00000000000E+00 0.  1.
         21   -1    0    0  501  502 -0.00000000000E+00 -0.00000000000E+00 -0.20948359350E+03  0.20948359350E+03  0.00000000000E+00 0.  1.
      99926    2    1    2    0    0  0.00000000000E+00  0.35527136788E-14  0.48240874167E+01  0.42379127442E+03  0.42376381683E+03 0.  0.
      99925    2    3    3    0    0 -0.58412893056E+02 -0.31294329258E+02 -0.42596851990E+02  0.27450076999E+03  0.26295394998E+03 0.  0.
         25    1    4    4    0    0 -0.36650879836E+02 -0.49370500660E+02 -0.71991996108E-01  0.13938524531E+03  0.12509000000E+03 0.  0.
         25    1    3    3    0    0  0.58412893056E+02  0.31294329258E+02  0.47420939407E+02  0.14929050443E+03  0.12509000000E+03 0.  0.
         25    1    4    4    0    0 -0.21762013220E+02  0.18076171402E+02 -0.42524859994E+02  0.13511552468E+03  0.12509000000E+03 0.  0.
<mgrwt>
<rscale>  2 0.42376382E+03</rscale>
<asrwt>0</asrwt>
<pdfrwt beam="1">  1       21 0.31515836E-01 0.42376382E+03</pdfrwt>
<pdfrwt beam="2">  1       21 0.30806411E-01 0.42376382E+03</pdfrwt>
<totfact> 0.91707899E+04</totfact>
</mgrwt>
</event>
<event>
 7    0  0.4732500E-002  0.4556268E+03  0.7546771E-02  0.1026057E+00
         21   -1    0    0  502  501  0.00000000000E+00  0.00000000000E+00  0.73001028049E+03  0.73001028049E+03  0.00000000000E+00 0.  1.
         21   -1    0    0  501  502 -0.00000000000E+00 -0.00000000000E+00 -0.71093447479E+02  0.71093447479E+02  0.00000000000E+00 0.  1.
      99926    2    1    2    0    0  0.00000000000E+00  0.00000000000E+00  0.65891683301E+03  0.80110372797E+03  0.45562681016E+03 0.  0.
      99925    2    3    3    0    0 -0.80661029947E+02  0.76321745708E+02  0.45700033145E+03  0.53890343750E+03  0.26312810831E+03 0.  0.
         25    1    3    3    0    0  0.80661029947E+02 -0.76321745708E+02  0.20191650156E+03  0.26220029047E+03  0.12509000000E+03 0.  0.
         25    1    4    4    0    0 -0.36679995165E+02  0.62133011539E+02  0.29975390194E+03  0.33272487583E+03  0.12509000000E+03 0.  0.
         25    1    4    4    0    0 -0.43981034781E+02  0.14188734170E+02  0.15724642951E+03  0.20617856167E+03  0.12509000000E+03 0.  0.
<mgrwt>
<rscale>  2 0.45562681E+03</rscale>
<asrwt>0</asrwt>
<pdfrwt beam="1">  1       21 0.10735445E+00 0.45562681E+03</pdfrwt>
<pdfrwt beam="2">  1       21 0.10454919E-01 0.45562681E+03</pdfrwt>
<totfact> 0.47477493E+04</totfact>
</mgrwt>
</event>
<event>
 7    0  0.4732500E-002  0.4672167E+03  0.7546771E-02  0.1022709E+00
         21   -1    0    0  502  501  0.00000000000E+00  0.00000000000E+00  0.11400690973E+03  0.11400690973E+03  0.00000000000E+00 0.  1.
         21   -1    0    0  501  502 -0.00000000000E+00 -0.00000000000E+00 -0.47868030525E+03  0.47868030525E+03  0.00000000000E+00 0.  1.
      99926    2    1    2    0    0  0.00000000000E+00  0.17763568394E-14 -0.36467339551E+03  0.59268721498E+03  0.46721670497E+03 0.  0.
      99925    2    3    3    0    0  0.68983663140E+02 -0.86298767947E+01 -0.96357491520E+02  0.28859158366E+03  0.26299641715E+03 0.  0.
         25    1    4    4    0    0  0.53129521650E+01  0.15388638047E+02 -0.68311838583E+02  0.14345401016E+03  0.12509000000E+03 0.  0.
         25    1    3    3    0    0 -0.68983663140E+02  0.86298767947E+01 -0.26831590399E+03  0.30409563132E+03  0.12509000000E+03 0.  0.
         25    1    4    4    0    0  0.63670710975E+02 -0.24018514841E+02 -0.28045652937E+02  0.14513757349E+03  0.12509000000E+03 0.  0.
<mgrwt>
<rscale>  2 0.46721670E+03</rscale>
<asrwt>0</asrwt>
<pdfrwt beam="1">  1       21 0.16765722E-01 0.46721670E+03</pdfrwt>
<pdfrwt beam="2">  1       21 0.70394162E-01 0.46721670E+03</pdfrwt>
<totfact> 0.53749897E+04</totfact>
</mgrwt>
</event>
<event>
 7    0  0.4732500E-002  0.4216892E+03  0.7546771E-02  0.1036518E+00
         21   -1    0    0  502  501  0.00000000000E+00  0.00000000000E+00  0.51769164091E+03  0.51769164091E+03  0.00000000000E+00 0.  1.
         21   -1    0    0  501  502 -0.00000000000E+00 -0.00000000000E+00 -0.85872444940E+02  0.85872444940E+02  0.00000000000E+00 0.  1.
      99926    2    1    2    0    0 -0.71054273576E-14  0.71054273576E-14  0.43181919597E+03  0.60356408585E+03  0.42168920750E+03 0.  0.
      99925    2    3    3    0    0  0.52751381529E+02 -0.52571939312E+02  0.24836321407E+03  0.36936305585E+03  0.26305562885E+03 0.  0.
         25    1    3    3    0    0 -0.52751381529E+02  0.52571939312E+02  0.18345598190E+03  0.23420103000E+03  0.12509000000E+03 0.  0.
         25    1    4    4    0    0  0.56768815683E+02 -0.54641009989E+02  0.14423995814E+03  0.20654542365E+03  0.12509000000E+03 0.  0.
         25    1    4    4    0    0 -0.40174341543E+01  0.20690706770E+01  0.10412325592E+03  0.16281763220E+03  0.12509000000E+03 0.  0.
<mgrwt>
<rscale>  2 0.42168921E+03</rscale>
<asrwt>0</asrwt>
<pdfrwt beam="1">  1       21 0.76131122E-01 0.42168921E+03</pdfrwt>
<pdfrwt beam="2">  1       21 0.12628301E-01 0.42168921E+03</pdfrwt>
<totfact> 0.76743972E+04</totfact>
</mgrwt>
</event>
<event>
 7    0  0.4732500E-002  0.4564288E+03  0.7546771E-02  0.1025822E+00
         21   -1    0    0  502  501  0.00000000000E+00  0.00000000000E+00  0.90873319194E+02  0.90873319194E+02  0.00000000000E+00 0. -1.
         21   -1    0    0  501  502 -0.00000000000E+00 -0.00000000000E+00 -0.57312554289E+03  0.57312554289E+03  0.00000000000E+00 0. -1.
      99926    2    1    2    0    0  0.00000000000E+00  0.00000000000E+00 -0.48225222369E+03  0.66399886208E+03  0.45642883519E+03 0.  0.
      99925    2    3    3    0    0 -0.58588852474E+02  0.76127662399E+02 -0.39367405390E+03  0.48310752763E+03  0.26303145804E+03 0.  0.
         25    1    4    4    0    0 -0.58355171856E+02  0.16226526121E+02 -0.22826063224E+03  0.26724342941E+03  0.12509000000E+03 0.  0.
         25    1    4    4    0    0 -0.23368061799E+00  0.59901136278E+02 -0.16541342166E+03  0.21586409822E+03  0.12509000000E+03 0.  0.
         25    1    3    3    0    0  0.58588852474E+02 -0.76127662399E+02 -0.88578169792E+02  0.18089133445E+03  0.12509000000E+03 0.  0.
<mgrwt>
<rscale>  2 0.45642884E+03</rscale>
<asrwt>0</asrwt>
<pdfrwt beam="1">  1       21 0.13363724E-01 0.45642884E+03</pdfrwt>
<pdfrwt beam="2">  1       21 0.84283167E-01 0.45642884E+03</pdfrwt>
<totfact> 0.54287106E+04</totfact>
</mgrwt>
</event>
<event>
 7    0  0.4732500E-002  0.4541276E+03  0.7546771E-02  0.1026498E+00
         21   -1    0    0  502  501  0.00000000000E+00  0.00000000000E+00  0.69979489295E+02  0.69979489295E+02  0.00000000000E+00 0.  1.
         21   -1    0    0  501  502 -0.00000000000E+00 -0.00000000000E+00 -0.73675819892E+03  0.73675819892E+03  0.00000000000E+00 0.  1.
      99926    2    1    2    0    0  0.71054273576E-14  0.00000000000E+00 -0.66677870963E+03  0.80673768822E+03  0.45412757016E+03 0.  0.
      99925    2    3    3    0    0 -0.59707302009E+02  0.25080714778E+02 -0.25620213347E+03  0.37267013914E+03  0.26277270644E+03 0.  0.
         25    1    3    3    0    0  0.59707302009E+02 -0.25080714778E+02 -0.41057657616E+03  0.43406754907E+03  0.12509000000E+03 0.  0.
         25    1    4    4    0    0 -0.61936866961E+02  0.22625340805E+02 -0.16792261465E+03  0.21953039458E+03  0.12509000000E+03 0.  0.
         25    1    4    4    0    0  0.22295649519E+01  0.24553739730E+01 -0.88279518818E+02  0.15313974456E+03  0.12509000000E+03 0.  0.
<mgrwt>
<rscale>  2 0.45412757E+03</rscale>
<asrwt>0</asrwt>
<pdfrwt beam="1">  1       21 0.10291101E-01 0.45412757E+03</pdfrwt>
<pdfrwt beam="2">  1       21 0.10834680E+00 0.45412757E+03</pdfrwt>
<totfact> 0.47766826E+04</totfact>
</mgrwt>
</event>
<event>
 7    0  0.4732500E-002  0.4569532E+03  0.7546771E-02  0.1025669E+00
         21   -1    0    0  502  501  0.00000000000E+00  0.00000000000E+00  0.41393429629E+03  0.41393429629E+03  0.00000000000E+00 0.  1.
         21   -1    0    0  501  502 -0.00000000000E+00 -0.00000000000E+00 -0.12611071052E+03  0.12611071052E+03  0.00000000000E+00 0.  1.
      99926    2    1    2    0    0 -0.14210854715E-13  0.00000000000E+00  0.28782358577E+03  0.54004500681E+03  0.45695316265E+03 0.  0.
      99925    2    3    3    0    0  0.92691859746E+02 -0.63459298012E+02  0.21000888895E+03  0.35478438361E+03  0.26296266284E+03 0.  0.
         25    1    4    4    0    0  0.15215150996E+02 -0.32087867396E+02  0.13209828426E+03  0.18536072091E+03  0.12509000000E+03 0.  0.
         25    1    4    4    0    0  0.77476708749E+02 -0.31371430617E+02  0.77910604696E+02  0.16942366270E+03  0.12509000000E+03 0.  0.
         25    1    3    3    0    0 -0.92691859746E+02  0.63459298012E+02  0.77814696822E+02  0.18526062320E+03  0.12509000000E+03 0.  0.
<mgrwt>
<rscale>  2 0.45695316E+03</rscale>
<asrwt>0</asrwt>
<pdfrwt beam="1">  1       21 0.60872690E-01 0.45695316E+03</pdfrwt>
<pdfrwt beam="2">  1       21 0.18545693E-01 0.45695316E+03</pdfrwt>
<totfact> 0.61571913E+04</totfact>
</mgrwt>
</event>
<event>
 7    0  0.4732500E-002  0.4585742E+03  0.7546771E-02  0.1025196E+00
         21   -1    0    0  502  501  0.00000000000E+00  0.00000000000E+00  0.88350163945E+02  0.88350163945E+02  0.00000000000E+00 0. -1.
         21   -1    0    0  501  502 -0.00000000000E+00 -0.00000000000E+00 -0.59504788680E+03  0.59504788680E+03  0.00000000000E+00 0. -1.
      99926    2    1    2    0    0  0.35527136788E-14  0.14210854715E-13 -0.50669772285E+03  0.68339805074E+03  0.45857421800E+03 0.  0.
      99925    2    3    3    0    0  0.29843754164E+02  0.10208120286E+03 -0.38937963033E+03  0.48160046757E+03  0.26270000421E+03 0.  0.
         25    1    4    4    0    0  0.43059142401E+02  0.21631799487E+02 -0.18868542306E+03  0.23145565768E+03  0.12509000000E+03 0.  0.
         25    1    4    4    0    0 -0.13215388236E+02  0.80449403371E+02 -0.20069420726E+03  0.25014480990E+03  0.12509000000E+03 0.  0.
         25    1    3    3    0    0 -0.29843754164E+02 -0.10208120286E+03 -0.11731809253E+03  0.20179758317E+03  0.12509000000E+03 0.  0.
<mgrwt>
<rscale>  2 0.45857422E+03</rscale>
<asrwt>0</asrwt>
<pdfrwt beam="1">  1       21 0.12992671E-01 0.45857422E+03</pdfrwt>
<pdfrwt beam="2">  1       21 0.87507044E-01 0.45857422E+03</pdfrwt>
<totfact> 0.52325374E+04</totfact>
</mgrwt>
</event>
<event>
 7    0  0.4732500E-002  0.4561890E+03  0.7546771E-02  0.1025892E+00
         21   -1    0    0  502  501  0.00000000000E+00  0.00000000000E+00  0.19599613496E+03  0.19599613496E+03  0.00000000000E+00 0.  1.
         21   -1    0    0  501  502 -0.00000000000E+00 -0.00000000000E+00 -0.26544967416E+03  0.26544967416E+03  0.00000000000E+00 0.  1.
      99926    2    1    2    0    0 -0.35527136788E-14  0.00000000000E+00 -0.69453539205E+02  0.46144580912E+03  0.45618904047E+03 0.  0.
      99925    2    3    3    0    0  0.28225128845E+02  0.39241040919E+02  0.61187738086E+02  0.27422623583E+03  0.26290601350E+03 0.  0.
         25    1    4    4    0    0  0.48279756945E+01  0.90614937430E+01 -0.89288473449E+01  0.12582786827E+03  0.12509000000E+03 0.  0.
         25    1    4    4    0    0  0.23397153150E+02  0.30179547176E+02  0.70116585431E+02  0.14839836756E+03  0.12509000000E+03 0.  0.
         25    1    3    3    0    0 -0.28225128845E+02 -0.39241040919E+02 -0.13064127729E+03  0.18721957329E+03  0.12509000000E+03 0.  0.
<mgrwt>
<rscale>  2 0.45618904E+03</rscale>
<asrwt>0</asrwt>
<pdfrwt beam="1">  1       21 0.28822961E-01 0.45618904E+03</pdfrwt>
<pdfrwt beam="2">  1       21 0.39036717E-01 0.45618904E+03</pdfrwt>
<totfact> 0.67433636E+04</totfact>
</mgrwt>
</event>
<event>
 7    0  0.4732500E-002  0.4690365E+03  0.7546771E-02  0.1022193E+00
         21   -1    0    0  502  501  0.00000000000E+00  0.00000000000E+00  0.60187793665E+02  0.60187793665E+02  0.00000000000E+00 0.  1.
         21   -1    0    0  501  502 -0.00000000000E+00 -0.00000000000E+00 -0.91378668215E+03  0.91378668215E+03  0.00000000000E+00 0.  1.
      99926    2    1    2    0    0 -0.14210854715E-13  0.00000000000E+00 -0.85359888849E+03  0.97397447582E+03  0.46903647738E+03 0.  0.
      99925    2    3    3    0    0  0.74329177398E+02  0.50315929781E+02 -0.34742494390E+03  0.44490350734E+03  0.26301809786E+03 0.  0.
         25    1    4    4    0    0  0.24837974031E+02 -0.94210240376E+01 -0.13011681528E+03  0.18243786440E+03  0.12509000000E+03 0.  0.
         25    1    4    4    0    0  0.49491203367E+02  0.59736953819E+02 -0.21730812861E+03  0.26246564294E+03  0.12509000000E+03 0.  0.
         25    1    3    3    0    0 -0.74329177398E+02 -0.50315929781E+02 -0.50617394459E+03  0.52907096847E+03  0.12509000000E+03 0.  0.
<mgrwt>
<rscale>  2 0.46903648E+03</rscale>
<asrwt>0</asrwt>
<pdfrwt beam="1">  1       21 0.88511474E-02 0.46903648E+03</pdfrwt>
<pdfrwt beam="2">  1       21 0.13438038E+00 0.46903648E+03</pdfrwt>
<totfact> 0.36062008E+04</totfact>
</mgrwt>
</event>
<event>
 7    0  0.4732500E-002  0.4588569E+03  0.7546771E-02  0.1025113E+00
         21   -1    0    0  502  501  0.00000000000E+00  0.00000000000E+00  0.33205892002E+03  0.33205892002E+03  0.00000000000E+00 0.  1.
         21   -1    0    0  501  502 -0.00000000000E+00 -0.00000000000E+00 -0.15851829990E+03  0.15851829990E+03  0.00000000000E+00 0.  1.
      99926    2    1    2    0    0  0.00000000000E+00  0.00000000000E+00  0.17354062012E+03  0.49057721992E+03  0.45885690784E+03 0.  0.
      99925    2    3    3    0    0 -0.98962049796E+02  0.47426571630E+02  0.65557546775E+02  0.29220731487E+03  0.26276330781E+03 0.  0.
         25    1    4    4    0    0 -0.68891592589E+02 -0.76462480679E+01  0.16718535593E+02  0.14398449282E+03  0.12509000000E+03 0.  0.
         25    1    3    3    0    0  0.98962049796E+02 -0.47426571630E+02  0.10798307335E+03  0.19836990504E+03  0.12509000000E+03 0.  0.
         25    1    4    4    0    0 -0.30070457207E+02  0.55072819698E+02  0.48839011182E+02  0.14822282206E+03  0.12509000000E+03 0.  0.
<mgrwt>
<rscale>  2 0.45885691E+03</rscale>
<asrwt>0</asrwt>
<pdfrwt beam="1">  1       21 0.48832194E-01 0.45885691E+03</pdfrwt>
<pdfrwt beam="2">  1       21 0.23311515E-01 0.45885691E+03</pdfrwt>
<totfact> 0.63957027E+04</totfact>
</mgrwt>
</event>
<event>
 7    0  0.4732500E-002  0.4723519E+03  0.7546771E-02  0.1021258E+00
         21   -1    0    0  502  501  0.00000000000E+00  0.00000000000E+00  0.10069096160E+04  0.10069096160E+04  0.00000000000E+00 0. -1.
         21   -1    0    0  501  502 -0.00000000000E+00 -0.00000000000E+00 -0.55396316815E+02  0.55396316815E+02  0.00000000000E+00 0. -1.
      99926    2    1    2    0    0 -0.14210854715E-13 -0.71054273576E-14  0.95151329923E+03  0.10623059329E+04  0.47235192005E+03 0.  0.
      99925    2    3    3    0    0 -0.11562942305E+03 -0.44753595570E+02  0.65916939360E+03  0.72100618916E+03  0.26452332139E+03 0.  0.
         25    1    4    4    0    0 -0.54231112162E+02 -0.65084810964E+02  0.32652908254E+03  0.35978576402E+03  0.12509000000E+03 0.  0.
         25    1    4    4    0    0 -0.61398310883E+02  0.20331215395E+02  0.33264031106E+03  0.36122042514E+03  0.12509000000E+03 0.  0.
         25    1    3    3    0    0  0.11562942305E+03  0.44753595570E+02  0.29234390563E+03  0.34129974370E+03  0.12509000000E+03 0.  0.
<mgrwt>
<rscale>  2 0.47235192E+03</rscale>
<asrwt>0</asrwt>
<pdfrwt beam="1">  1       21 0.14807493E+00 0.47235192E+03</pdfrwt>
<pdfrwt beam="2">  1       21 0.81465178E-02 0.47235192E+03</pdfrwt>
<totfact> 0.32237103E+04</totfact>
</mgrwt>
</event>
<event>
 7    0  0.4732500E-002  0.4518746E+03  0.7546771E-02  0.1027165E+00
         21   -1    0    0  502  501  0.00000000000E+00  0.00000000000E+00  0.14199130605E+03  0.14199130605E+03  0.00000000000E+00 0. -1.
         21   -1    0    0  501  502 -0.00000000000E+00 -0.00000000000E+00 -0.35951252478E+03  0.35951252478E+03  0.00000000000E+00 0. -1.
      99926    2    1    2    0    0  0.00000000000E+00 -0.71054273576E-14 -0.21752121872E+03  0.50150383083E+03  0.45187455311E+03 0.  0.
      99925    2    3    3    0    0 -0.83020630728E+02  0.55131387915E+02 -0.18941519358E+03  0.33911740342E+03  0.26304106653E+03 0.  0.
         25    1    4    4    0    0 -0.20900152031E+02 -0.18230916342E+01 -0.59722998499E+02  0.14019445306E+03  0.12509000000E+03 0.  0.
         25    1    4    4    0    0 -0.62120478698E+02  0.56954479549E+02 -0.12969219509E+03  0.19892295036E+03  0.12509000000E+03 0.  0.
         25    1    3    3    0    0  0.83020630728E+02 -0.55131387915E+02 -0.28106025140E+02  0.16238642742E+03  0.12509000000E+03 0.  0.
<mgrwt>
<rscale>  2 0.45187455E+03</rscale>
<asrwt>0</asrwt>
<pdfrwt beam="1">  1       21 0.20881075E-01 0.45187455E+03</pdfrwt>
<pdfrwt beam="2">  1       21 0.52869489E-01 0.45187455E+03</pdfrwt>
<totfact> 0.66807207E+04</totfact>
</mgrwt>
</event>
<event>
 7    0  0.4732500E-002  0.4643377E+03  0.7546771E-02  0.1023531E+00
         21   -1    0    0  502  501  0.00000000000E+00  0.00000000000E+00  0.24368991129E+03  0.24368991129E+03  0.00000000000E+00 0.  1.
         21   -1    0    0  501  502 -0.00000000000E+00 -0.00000000000E+00 -0.22119250310E+03  0.22119250310E+03  0.00000000000E+00 0.  1.
      99926    2    1    2    0    0  0.00000000000E+00  0.00000000000E+00  0.22497408190E+02  0.46488241439E+03  0.46433772820E+03 0.  0.
      99925    2    3    3    0    0  0.88859972153E+02 -0.75917011105E+02  0.47515741156E+02  0.29187110750E+03  0.26319481475E+03 0.  0.
         25    1    4    4    0    0  0.54456380063E+02 -0.38021804423E+02  0.64551529108E+02  0.15564563261E+03  0.12509000000E+03 0.  0.
         25    1    3    3    0    0 -0.88859972153E+02  0.75917011105E+02 -0.25018332965E+02  0.17301130689E+03  0.12509000000E+03 0.  0.
         25    1    4    4    0    0  0.34403592090E+02 -0.37895206682E+02 -0.17035787952E+02  0.13622547489E+03  0.12509000000E+03 0.  0.
<mgrwt>
<rscale>  2 0.46433773E+03</rscale>
<asrwt>0</asrwt>
<pdfrwt beam="1">  1       21 0.35836752E-01 0.46433773E+03</pdfrwt>
<pdfrwt beam="2">  1       21 0.32528309E-01 0.46433773E+03</pdfrwt>
<totfact> 0.63001456E+04</totfact>
</mgrwt>
</event>
<event>
 7    0  0.4732500E-002  0.4196747E+03  0.7546771E-02  0.1037172E+00
         21   -1    0    0  502  501  0.00000000000E+00  0.00000000000E+00  0.24166944850E+03  0.24166944850E+03  0.00000000000E+00 0.  1.
         21   -1    0    0  501  502 -0.00000000000E+00 -0.00000000000E+00 -0.18219809006E+03  0.18219809006E+03  0.00000000000E+00 0.  1.
      99926    2    1    2    0    0  0.00000000000E+00 -0.88817841970E-15  0.59471358433E+02  0.42386753856E+03  0.41967469279E+03 0.  0.
      99925    2    3    3    0    0  0.28005433264E+02 -0.49115540767E+01 -0.31437845656E+02  0.26664025357E+03  0.26324942361E+03 0.  0.
         25    1    3    3    0    0 -0.28005433264E+02  0.49115540767E+01  0.90909204089E+02  0.15722728498E+03  0.12509000000E+03 0.  0.
         25    1    4    4    0    0  0.19172508925E+02 -0.20911307172E+01  0.25134715869E+02  0.12903960620E+03  0.12509000000E+03 0.  0.
         25    1    4    4    0    0  0.88329243385E+01 -0.28204233595E+01 -0.56572561525E+02  0.13760064737E+03  0.12509000000E+03 0.  0.
<mgrwt>
<rscale>  2 0.41967469E+03</rscale>
<asrwt>0</asrwt>
<pdfrwt beam="1">  1       21 0.35539625E-01 0.41967469E+03</pdfrwt>
<pdfrwt beam="2">  1       21 0.26793837E-01 0.41967469E+03</pdfrwt>
<totfact> 0.94957527E+04</totfact>
</mgrwt>
</event>
<event>
 7    0  0.4732500E-002  0.3910892E+03  0.7546771E-02  0.1046910E+00
         21   -1    0    0  502  501  0.00000000000E+00  0.00000000000E+00  0.30576590817E+03  0.30576590817E+03  0.00000000000E+00 0.  1.
         21   -1    0    0  501  502 -0.00000000000E+00 -0.00000000000E+00 -0.12505544848E+03  0.12505544848E+03  0.00000000000E+00 0.  1.
      99926    2    1    2    0    0 -0.37747582837E-14  0.00000000000E+00  0.18071045969E+03  0.43082135665E+03  0.39108921118E+03 0.  0.
      99925    2    3    3    0    0 -0.64224848001E+00 -0.18999882931E+02  0.10796436108E+03  0.28487304046E+03  0.26293523515E+03 0.  0.
         25    1    4    4    0    0  0.31403564670E+02  0.86163835766E+01  0.34590714642E+02  0.13380751690E+03  0.12509000000E+03 0.  0.
         25    1    4    4    0    0 -0.32045813150E+02 -0.27616266507E+02  0.73373646438E+02  0.15106552356E+03  0.12509000000E+03 0.  0.
         25    1    3    3    0    0  0.64224848001E+00  0.18999882931E+02  0.72746098611E+02  0.14594831619E+03  0.12509000000E+03 0.  0.
<mgrwt>
<rscale>  2 0.39108921E+03</rscale>
<asrwt>0</asrwt>
<pdfrwt beam="1">  1       21 0.44965575E-01 0.39108921E+03</pdfrwt>
<pdfrwt beam="2">  1       21 0.18390507E-01 0.39108921E+03</pdfrwt>
<totfact> 0.12124080E+05</totfact>
</mgrwt>
</event>
<event>
 7    0  0.4732500E-002  0.4278203E+03  0.7546771E-02  0.1034551E+00
         21   -1    0    0  502  501  0.00000000000E+00  0.00000000000E+00  0.29325586117E+02  0.29325586117E+02  0.00000000000E+00 0. -1.
         21   -1    0    0  501  502 -0.00000000000E+00 -0.00000000000E+00 -0.15603288846E+04  0.15603288846E+04  0.00000000000E+00 0. -1.
      99926    2    1    2    0    0  0.00000000000E+00  0.71054273576E-14 -0.15310032984E+04  0.15896544707E+04  0.42782033180E+03 0.  0.
      99925    2    3    3    0    0 -0.29502821148E+02 -0.62080859849E+02 -0.80787114857E+03  0.85257098565E+03  0.26362291871E+03 0.  0.
         25    1    4    4    0    0 -0.52923824097E+02 -0.35389860778E+02 -0.36705174358E+03  0.39297310846E+03  0.12509000000E+03 0.  0.
         25    1    4    4    0    0  0.23421002949E+02 -0.26690999071E+02 -0.44081940499E+03  0.45959787720E+03  0.12509000000E+03 0.  0.
         25    1    3    3    0    0  0.29502821148E+02  0.62080859849E+02 -0.72313214988E+03  0.73708348503E+03  0.12509000000E+03 0.  0.
<mgrwt>
<rscale>  2 0.42782033E+03</rscale>
<asrwt>0</asrwt>
<pdfrwt beam="1">  1       21 0.43125871E-02 0.42782033E+03</pdfrwt>
<pdfrwt beam="2">  1       21 0.22946008E+00 0.42782033E+03</pdfrwt>
<totfact> 0.26912322E+04</totfact>
</mgrwt>
</event>
<event>
 7    0  0.4732500E-002  0.4515794E+03  0.7546771E-02  0.1027252E+00
         21   -1    0    0  502  501  0.00000000000E+00  0.00000000000E+00  0.21710487911E+02  0.21710487911E+02  0.00000000000E+00 0. -1.
         21   -1    0    0  501  502 -0.00000000000E+00 -0.00000000000E+00 -0.23482196702E+04  0.23482196702E+04  0.00000000000E+00 0. -1.
      99926    2    1    2    0    0  0.00000000000E+00 -0.14210854715E-13 -0.23265091823E+04  0.23699301582E+04  0.45157942718E+03 0.  0.
      99925    2    3    3    0    0 -0.64686946916E+02  0.83518682236E+02 -0.16310018104E+04  0.16554108905E+04  0.26278991489E+03 0.  0.
         25    1    4    4    0    0  0.48744467833E+00  0.20065382162E+02 -0.64092810453E+03  0.65332932005E+03  0.12509000000E+03 0.  0.
         25    1    4    4    0    0 -0.65174391594E+02  0.63453300074E+02 -0.99007370590E+03  0.10020815704E+04  0.12509000000E+03 0.  0.
         25    1    3    3    0    0  0.64686946916E+02 -0.83518682236E+02 -0.69550737189E+03  0.71451926765E+03  0.12509000000E+03 0.  0.
<mgrwt>
<rscale>  2 0.45157943E+03</rscale>
<asrwt>0</asrwt>
<pdfrwt beam="1">  1       21 0.31927209E-02 0.45157943E+03</pdfrwt>
<pdfrwt beam="2">  1       21 0.34532620E+00 0.45157943E+03</pdfrwt>
<totfact> 0.87870916E+03</totfact>
</mgrwt>
</event>
<event>
 7    0  0.4732500E-002  0.4212011E+03  0.7546771E-02  0.1036676E+00
         21   -1    0    0  502  501  0.00000000000E+00  0.00000000000E+00  0.22689400285E+03  0.22689400285E+03  0.00000000000E+00 0. -1.
         21   -1    0    0  501  502 -0.00000000000E+00 -0.00000000000E+00 -0.19547714942E+03  0.19547714942E+03  0.00000000000E+00 0. -1.
      99926    2    1    2    0    0  0.00000000000E+00  0.00000000000E+00  0.31416853438E+02  0.42237115227E+03  0.42120110588E+03 0.  0.
      99925    2    3    3    0    0  0.63951681979E+02 -0.41730451176E+02  0.64637831612E+01  0.27370571581E+03  0.26275804496E+03 0.  0.
         25    1    4    4    0    0  0.56741245883E+02 -0.47118056327E+02 -0.16698886387E+02  0.14617127325E+03  0.12509000000E+03 0.  0.
         25    1    4    4    0    0  0.72104360964E+01  0.53876051509E+01  0.23162669548E+02  0.12753444256E+03  0.12509000000E+03 0.  0.
         25    1    3    3    0    0 -0.63951681979E+02  0.41730451176E+02  0.24953070277E+02  0.14866543647E+03  0.12509000000E+03 0.  0.
<mgrwt>
<rscale>  2 0.42120111E+03</rscale>
<asrwt>0</asrwt>
<pdfrwt beam="1">  1       21 0.33366765E-01 0.42120111E+03</pdfrwt>
<pdfrwt beam="2">  1       21 0.28746640E-01 0.42120111E+03</pdfrwt>
<totfact> 0.93881231E+04</totfact>
</mgrwt>
</event>
<event>
 7    0  0.4732500E-002  0.4545361E+03  0.7546771E-02  0.1026378E+00
         21   -1    0    0  502  501  0.00000000000E+00  0.00000000000E+00  0.46666807671E+02  0.46666807671E+02  0.00000000000E+00 0.  1.
         21   -1    0    0  501  502 -0.00000000000E+00 -0.00000000000E+00 -0.11067989622E+04  0.11067989622E+04  0.00000000000E+00 0.  1.
      99926    2    1    2    0    0  0.00000000000E+00  0.00000000000E+00 -0.10601321546E+04  0.11534657699E+04  0.45453613410E+03 0.  0.
      99925    2    3    3    0    0  0.34610542176E+02 -0.91332873645E+02 -0.81026758941E+03  0.85746003946E+03  0.26299157664E+03 0.  0.
         25    1    4    4    0    0  0.72717816877E+00 -0.32213644232E+02 -0.27942309434E+03  0.30783603008E+03  0.12509000000E+03 0.  0.
         25    1    3    3    0    0 -0.34610542176E+02  0.91332873645E+02 -0.24986456516E+03  0.29600573045E+03  0.12509000000E+03 0.  0.
         25    1    4    4    0    0  0.33883364008E+02 -0.59119229413E+02 -0.53084449507E+03  0.54962400938E+03  0.12509000000E+03 0.  0.
<mgrwt>
<rscale>  2 0.45453613E+03</rscale>
<asrwt>0</asrwt>
<pdfrwt beam="1">  1       21 0.68627659E-02 0.45453613E+03</pdfrwt>
<pdfrwt beam="2">  1       21 0.16276455E+00 0.45453613E+03</pdfrwt>
<totfact> 0.33788845E+04</totfact>
</mgrwt>
</event>
<event>
 7    0  0.4732500E-002  0.4668034E+03  0.7546771E-02  0.1022826E+00
         21   -1    0    0  502  501  0.00000000000E+00  0.00000000000E+00  0.33254225451E+03  0.33254225451E+03  0.00000000000E+00 0. -1.
         21   -1    0    0  501  502 -0.00000000000E+00 -0.00000000000E+00 -0.16381782423E+03  0.16381782423E+03  0.00000000000E+00 0. -1.
      99926    2    1    2    0    0  0.00000000000E+00  0.14210854715E-13  0.16872443028E+03  0.49636007875E+03  0.46680337874E+03 0.  0.
      99925    2    3    3    0    0 -0.97706381030E+02  0.76271975039E+02  0.10445574757E+03  0.30889828865E+03  0.26295094306E+03 0.  0.
         25    1    4    4    0    0 -0.23714911944E+02  0.29381634532E+02  0.14013324745E+02  0.13141369360E+03  0.12509000000E+03 0.  0.
         25    1    3    3    0    0  0.97706381030E+02 -0.76271975039E+02  0.64268682712E+02  0.18746179010E+03  0.12509000000E+03 0.  0.
         25    1    4    4    0    0 -0.73991469086E+02  0.46890340507E+02  0.90442422826E+02  0.17748459504E+03  0.12509000000E+03 0.  0.
<mgrwt>
<rscale>  2 0.46680338E+03</rscale>
<asrwt>0</asrwt>
<pdfrwt beam="1">  1       21 0.48903273E-01 0.46680338E+03</pdfrwt>
<pdfrwt beam="2">  1       21 0.24090856E-01 0.46680338E+03</pdfrwt>
<totfact> 0.59730949E+04</totfact>
</mgrwt>
</event>
<event>
 7    0  0.4732500E-002  0.4516458E+03  0.7546771E-02  0.1027232E+00
         21   -1    0    0  502  501  0.00000000000E+00  0.00000000000E+00  0.11360472383E+03  0.11360472383E+03  0.00000000000E+00 0.  1.
         21   -1    0    0  501  502 -0.00000000000E+00 -0.00000000000E+00 -0.44888954542E+03  0.44888954542E+03  0.00000000000E+00 0.  1.
      99926    2    1    2    0    0  0.35527136788E-14  0.35527136788E-14 -0.33528482159E+03  0.56249426926E+03  0.45164575871E+03 0.  0.
      99925    2    3    3    0    0 -0.30371623554E+02  0.30611529899E+02 -0.33763731143E+03  0.43015930189E+03  0.26301819262E+03 0.  0.
         25    1    4    4    0    0 -0.49731627567E+02  0.28798913494E+02 -0.14773295096E+03  0.20192856435E+03  0.12509000000E+03 0.  0.
         25    1    4    4    0    0  0.19360004013E+02  0.18126164059E+01 -0.18990436047E+03  0.22823073754E+03  0.12509000000E+03 0.  0.
         25    1    3    3    0    0  0.30371623554E+02 -0.30611529899E+02  0.23524898420E+01  0.13233496737E+03  0.12509000000E+03 0.  0.
<mgrwt>
<rscale>  2 0.45164576E+03</rscale>
<asrwt>0</asrwt>
<pdfrwt beam="1">  1       21 0.16706577E-01 0.45164576E+03</pdfrwt>
<pdfrwt beam="2">  1       21 0.66013168E-01 0.45164576E+03</pdfrwt>
<totfact> 0.62695159E+04</totfact>
</mgrwt>
</event>
<event>
 7    0  0.4732500E-002  0.4549434E+03  0.7546771E-02  0.1026258E+00
         21   -1    0    0  502  501  0.00000000000E+00  0.00000000000E+00  0.56244955580E+03  0.56244955580E+03  0.00000000000E+00 0. -1.
         21   -1    0    0  501  502 -0.00000000000E+00 -0.00000000000E+00 -0.91996480032E+02  0.91996480032E+02  0.00000000000E+00 0. -1.
      99926    2    1    2    0    0  0.00000000000E+00 -0.35527136788E-14  0.47045307577E+03  0.65444603583E+03  0.45494342210E+03 0.  0.
      99925    2    3    3    0    0 -0.64256548837E+02 -0.29125261990E+02  0.42374840844E+03  0.50342941752E+03  0.26249053282E+03 0.  0.
         25    1    4    4    0    0 -0.42625877100E+02 -0.53411892976E+02  0.22516017523E+03  0.26648528725E+03  0.12509000000E+03 0.  0.
         25    1    4    4    0    0 -0.21630671737E+02  0.24286630986E+02  0.19858823321E+03  0.23694413028E+03  0.12509000000E+03 0.  0.
         25    1    3    3    0    0  0.64256548837E+02  0.29125261990E+02  0.46704667331E+02  0.15101661831E+03  0.12509000000E+03 0.  0.
<mgrwt>
<rscale>  2 0.45494342E+03</rscale>
<asrwt>0</asrwt>
<pdfrwt beam="1">  1       21 0.82713168E-01 0.45494342E+03</pdfrwt>
<pdfrwt beam="2">  1       21 0.13528894E-01 0.45494342E+03</pdfrwt>
<totfact> 0.55470834E+04</totfact>
</mgrwt>
</event>
<event>
 7    0  0.4732500E-002  0.4551444E+03  0.7546771E-02  0.1026199E+00
         21   -1    0    0  502  501  0.00000000000E+00  0.00000000000E+00  0.51095464602E+03  0.51095464602E+03  0.00000000000E+00 0.  1.
         21   -1    0    0  501  502 -0.00000000000E+00 -0.00000000000E+00 -0.10135756051E+03  0.10135756051E+03  0.00000000000E+00 0.  1.
      99926    2    1    2    0    0  0.00000000000E+00 -0.22204460493E-15  0.40959708551E+03  0.61231220653E+03  0.45514444500E+03 0.  0.
      99925    2    3    3    0    0  0.74266634552E+02  0.14911539570E+01  0.37275835043E+03  0.46223770154E+03  0.26305350855E+03 0.  0.
         25    1    4    4    0    0  0.46433900765E+02  0.21138020190E+02  0.13247094036E+03  0.18920618695E+03  0.12509000000E+03 0.  0.
         25    1    4    4    0    0  0.27832733786E+02 -0.19646866233E+02  0.24028741007E+03  0.27303151459E+03  0.12509000000E+03 0.  0.
         25    1    3    3    0    0 -0.74266634552E+02 -0.14911539570E+01  0.36838735073E+02  0.15007450500E+03  0.12509000000E+03 0.  0.
<mgrwt>
<rscale>  2 0.45514445E+03</rscale>
<asrwt>0</asrwt>
<pdfrwt beam="1">  1       21 0.75140388E-01 0.45514445E+03</pdfrwt>
<pdfrwt beam="2">  1       21 0.14905524E-01 0.45514445E+03</pdfrwt>
<totfact> 0.57860710E+04</totfact>
</mgrwt>
</event>
<event>
 7    0  0.4732500E-002  0.4541437E+03  0.7546771E-02  0.1026494E+00
         21   -1    0    0  502  501  0.00000000000E+00  0.00000000000E+00  0.59580005116E+03  0.59580005116E+03  0.00000000000E+00 0. -1.
         21   -1    0    0  501  502 -0.00000000000E+00 -0.00000000000E+00 -0.86541834747E+02  0.86541834747E+02  0.00000000000E+00 0. -1.
      99926    2    1    2    0    0 -0.35527136788E-14  0.00000000000E+00  0.50925821642E+03  0.68234188591E+03  0.45414371985E+03 0.  0.
      99925    2    3    3    0    0  0.27005909348E+02 -0.10491998581E+03  0.36494244522E+03  0.46276940931E+03  0.26312547447E+03 0.  0.
         25    1    3    3    0    0 -0.27005909348E+02  0.10491998581E+03  0.14431577120E+03  0.21957247660E+03  0.12509000000E+03 0.  0.
         25    1    4    4    0    0  0.37989267493E+02 -0.26571191702E+02  0.13895744812E+03  0.19262890012E+03  0.12509000000E+03 0.  0.
         25    1    4    4    0    0 -0.10983358145E+02 -0.78348794109E+02  0.22598499710E+03  0.27014050920E+03  0.12509000000E+03 0.  0.
<mgrwt>
<rscale>  2 0.45414372E+03</rscale>
<asrwt>0</asrwt>
<pdfrwt beam="1">  1       21 0.87617653E-01 0.45414372E+03</pdfrwt>
<pdfrwt beam="2">  1       21 0.12726741E-01 0.45414372E+03</pdfrwt>
<totfact> 0.54237275E+04</totfact>
</mgrwt>
</event>
<event>
 7    0  0.4732500E-002  0.4508253E+03  0.7546771E-02  0.1027476E+00
         21   -1    0    0  502  501  0.00000000000E+00  0.00000000000E+00  0.87973613596E+02  0.87973613596E+02  0.00000000000E+00 0.  1.
         21   -1    0    0  501  502 -0.00000000000E+00 -0.00000000000E+00 -0.57756934543E+03  0.57756934543E+03  0.00000000000E+00 0.  1.
      99926    2    1    2    0    0  0.00000000000E+00  0.00000000000E+00 -0.48959573184E+03  0.66554295903E+03  0.45082529840E+03 0.  0.
      99925    2    3    3    0    0  0.36437519310E+02 -0.83909542429E+02 -0.22053729013E+03  0.35504584587E+03  0.26277814256E+03 0.  0.
         25    1    4    4    0    0  0.36968381781E+02 -0.69031626694E+02 -0.86313189887E+02  0.17096637559E+03  0.12509000000E+03 0.  0.
         25    1    4    4    0    0 -0.53086247118E+00 -0.14877915735E+02 -0.13422410024E+03  0.18407947028E+03  0.12509000000E+03 0.  0.
         25    1    3    3    0    0 -0.36437519310E+02  0.83909542429E+02 -0.26905844171E+03  0.31049711316E+03  0.12509000000E+03 0.  0.
<mgrwt>
<rscale>  2 0.45082530E+03</rscale>
<asrwt>0</asrwt>
<pdfrwt beam="1">  1       21 0.12937296E-01 0.45082530E+03</pdfrwt>
<pdfrwt beam="2">  1       21 0.84936667E-01 0.45082530E+03</pdfrwt>
<totfact> 0.56655604E+04</totfact>
</mgrwt>
</event>
<event>
 7    0  0.4732500E-002  0.4523131E+03  0.7546771E-02  0.1027035E+00
         21   -1    0    0  502  501  0.00000000000E+00  0.00000000000E+00  0.12917453394E+03  0.12917453394E+03  0.00000000000E+00 0.  1.
         21   -1    0    0  501  502 -0.00000000000E+00 -0.00000000000E+00 -0.39595091760E+03  0.39595091760E+03  0.00000000000E+00 0.  1.
      99926    2    1    2    0    0 -0.71054273576E-14  0.00000000000E+00 -0.26677638366E+03  0.52512545154E+03  0.45231305638E+03 0.  0.
      99925    2    3    3    0    0  0.33911017354E+02  0.43562503139E+02 -0.57041710624E+02  0.27475814147E+03  0.26304111993E+03 0.  0.
         25    1    3    3    0    0 -0.33911017354E+02 -0.43562503139E+02 -0.20973467303E+03  0.25036731007E+03  0.12509000000E+03 0.  0.
         25    1    4    4    0    0  0.44739152937E+01  0.60136471960E+02 -0.36347037939E+02  0.14354451033E+03  0.12509000000E+03 0.  0.
         25    1    4    4    0    0  0.29437102060E+02 -0.16573968822E+02 -0.20694672685E+02  0.13121363114E+03  0.12509000000E+03 0.  0.
<mgrwt>
<rscale>  2 0.45231306E+03</rscale>
<asrwt>0</asrwt>
<pdfrwt beam="1">  1       21 0.18996255E-01 0.45231306E+03</pdfrwt>
<pdfrwt beam="2">  1       21 0.58228076E-01 0.45231306E+03</pdfrwt>
<totfact> 0.64909234E+04</totfact>
</mgrwt>
</event>
<event>
 7    0  0.4732500E-002  0.4569347E+03  0.7546771E-02  0.1025674E+00
         21   -1    0    0  502  501  0.00000000000E+00  0.00000000000E+00  0.16202877558E+04  0.16202877558E+04  0.00000000000E+00 0.  1.
         21   -1    0    0  501  502 -0.00000000000E+00 -0.00000000000E+00 -0.32214846037E+02  0.32214846037E+02  0.00000000000E+00 0.  1.
      99926    2    1    2    0    0  0.00000000000E+00  0.00000000000E+00  0.15880729098E+04  0.16525026018E+04  0.45693465874E+03 0.  0.
      99925    2    3    3    0    0  0.25211454793E+02  0.74937528713E+02  0.69512815548E+03  0.74737880204E+03  0.26290810282E+03 0.  0.
         25    1    3    3    0    0 -0.25211454793E+02 -0.74937528713E+02  0.89294475429E+03  0.90512379981E+03  0.12509000000E+03 0.  0.
         25    1    4    4    0    0  0.28573891077E+02  0.15071442183E+02  0.41735918949E+03  0.43689794778E+03  0.12509000000E+03 0.  0.
         25    1    4    4    0    0 -0.33624362838E+01  0.59866086530E+02  0.27776896599E+03  0.31048085425E+03  0.12509000000E+03 0.  0.
<mgrwt>
<rscale>  2 0.45693466E+03</rscale>
<asrwt>0</asrwt>
<pdfrwt beam="1">  1       21 0.23827756E+00 0.45693466E+03</pdfrwt>
<pdfrwt beam="2">  1       21 0.47374785E-02 0.45693466E+03</pdfrwt>
<totfact> 0.19967320E+04</totfact>
</mgrwt>
</event>
<event>
 7    0  0.4732500E-002  0.4749762E+03  0.7546771E-02  0.1020525E+00
         21   -1    0    0  502  501  0.00000000000E+00  0.00000000000E+00  0.12596519194E+03  0.12596519194E+03  0.00000000000E+00 0.  1.
         21   -1    0    0  501  502 -0.00000000000E+00 -0.00000000000E+00 -0.44774754675E+03  0.44774754675E+03  0.00000000000E+00 0.  1.
      99926    2    1    2    0    0  0.00000000000E+00  0.00000000000E+00 -0.32178235482E+03  0.57371273869E+03  0.47497623379E+03 0.  0.
      99925    2    3    3    0    0  0.11520758906E+03 -0.40802390560E+02 -0.25612934734E+03  0.38690950225E+03  0.26298117178E+03 0.  0.
         25    1    4    4    0    0  0.80862035172E+02 -0.31618667353E+02 -0.18171921745E+03  0.23708182332E+03  0.12509000000E+03 0.  0.
         25    1    3    3    0    0 -0.11520758906E+03  0.40802390560E+02 -0.65653007475E+02  0.18680323644E+03  0.12509000000E+03 0.  0.
         25    1    4    4    0    0  0.34345553891E+02 -0.91837232071E+01 -0.74410129897E+02  0.14982767894E+03  0.12509000000E+03 0.  0.
<mgrwt>
<rscale>  2 0.47497623E+03</rscale>
<asrwt>0</asrwt>
<pdfrwt beam="1">  1       21 0.18524293E-01 0.47497623E+03</pdfrwt>
<pdfrwt beam="2">  1       21 0.65845227E-01 0.47497623E+03</pdfrwt>
<totfact> 0.51667854E+04</totfact>
</mgrwt>
</event>
<event>
 7    0  0.4732500E-002  0.4489218E+03  0.7546771E-02  0.1028044E+00
         21   -1    0    0  502  501  0.00000000000E+00  0.00000000000E+00  0.16476554112E+03  0.16476554112E+03  0.00000000000E+00 0. -1.
         21   -1    0    0  501  502 -0.00000000000E+00 -0.00000000000E+00 -0.30578417982E+03  0.30578417982E+03  0.00000000000E+00 0. -1.
      99926    2    1    2    0    0  0.00000000000E+00  0.00000000000E+00 -0.14101863870E+03  0.47054972094E+03  0.44892180100E+03 0.  0.
      99925    2    3    3    0    0 -0.46487827551E+02  0.32784501718E+02  0.61978236480E+01  0.26916417888E+03  0.26301140757E+03 0.  0.
         25    1    4    4    0    0 -0.97963754068E+01 -0.13758201297E+02  0.27304754312E+02  0.12914454995E+03  0.12509000000E+03 0.  0.
         25    1    4    4    0    0 -0.36691452145E+02  0.46542703015E+02 -0.21106930664E+02  0.14001962893E+03  0.12509000000E+03 0.  0.
         25    1    3    3    0    0  0.46487827551E+02 -0.32784501718E+02 -0.14721646234E+03  0.20138554205E+03  0.12509000000E+03 0.  0.
<mgrwt>
<rscale>  2 0.44892180E+03</rscale>
<asrwt>0</asrwt>
<pdfrwt beam="1">  1       21 0.24230227E-01 0.44892180E+03</pdfrwt>
<pdfrwt beam="2">  1       21 0.44968261E-01 0.44892180E+03</pdfrwt>
<totfact> 0.70745953E+04</totfact>
</mgrwt>
</event>
<event>
 7    0  0.4732500E-002  0.4555397E+03  0.7546771E-02  0.1026083E+00
         21   -1    0    0  502  501  0.00000000000E+00  0.00000000000E+00  0.12649162672E+03  0.12649162672E+03  0.00000000000E+00 0. -1.
         21   -1    0    0  501  502 -0.00000000000E+00 -0.00000000000E+00 -0.41013867553E+03  0.41013867553E+03  0.00000000000E+00 0. -1.
      99926    2    1    2    0    0 -0.35527136788E-14  0.00000000000E+00 -0.28364704881E+03  0.53663030225E+03  0.45553971616E+03 0.  0.
      99925    2    3    3    0    0  0.86103664360E+01 -0.95611828598E+02 -0.25013405701E+03  0.37542735905E+03  0.26298839379E+03 0.  0.
         25    1    4    4    0    0  0.25767002616E+02 -0.16863696447E+02 -0.92102088054E+02  0.15836232319E+03  0.12509000000E+03 0.  0.
         25    1    3    3    0    0 -0.86103664360E+01  0.95611828598E+02 -0.33512991804E+02  0.16120294320E+03  0.12509000000E+03 0.  0.
         25    1    4    4    0    0 -0.17156636180E+02 -0.78748132151E+02 -0.15803196895E+03  0.21706503586E+03  0.12509000000E+03 0.  0.
<mgrwt>
<rscale>  2 0.45553972E+03</rscale>
<asrwt>0</asrwt>
<pdfrwt beam="1">  1       21 0.18601710E-01 0.45553972E+03</pdfrwt>
<pdfrwt beam="2">  1       21 0.60314511E-01 0.45553972E+03</pdfrwt>
<totfact> 0.62491362E+04</totfact>
</mgrwt>
</event>
<event>
 6    0  0.4732500E-002  0.4584323E+03  0.7546771E-02  0.1025237E+00
         21   -1    0    0  502  501  0.00000000000E+00  0.00000000000E+00  0.90644212202E+02  0.90644212202E+02  0.00000000000E+00 0. -1.
         21   -1    0    0  501  502 -0.00000000000E+00 -0.00000000000E+00 -0.57962933304E+03  0.57962933304E+03  0.00000000000E+00 0. -1.
      99926    2    1    2    0    0  0.00000000000E+00  0.71054273576E-14 -0.48898512084E+03  0.67027354525E+03  0.45843230367E+03 0.  0.
         25    1    3    3    0    0 -0.11932850446E+02 -0.54282278914E+01 -0.15941605753E+03  0.20305872568E+03  0.12509000000E+03 0.  0.
         25    1    3    3    0    0 -0.76356727804E+02  0.61864983851E+02 -0.21663131276E+03  0.26876432032E+03  0.12509000000E+03 0.  0.
         25    1    3    3    0    0  0.88289578249E+02 -0.56436755959E+02 -0.11293775055E+03  0.19845049924E+03  0.12509000000E+03 0.  0.
<mgrwt>
<rscale>  2 0.45843230E+03</rscale>
<asrwt>0</asrwt>
<pdfrwt beam="1">  1       21 0.13330031E-01 0.45843230E+03</pdfrwt>
<pdfrwt beam="2">  1       21 0.85239608E-01 0.45843230E+03</pdfrwt>
<totfact> 0.53095623E+04</totfact>
</mgrwt>
</event>
<event>
 7    0  0.4732500E-002  0.4202480E+03  0.7546771E-02  0.1036986E+00
         21   -1    0    0  502  501  0.00000000000E+00  0.00000000000E+00  0.76265695820E+02  0.76265695820E+02  0.00000000000E+00 0. -1.
         21   -1    0    0  501  502 -0.00000000000E+00 -0.00000000000E+00 -0.57892472886E+03  0.57892472886E+03  0.00000000000E+00 0. -1.
      99926    2    1    2    0    0  0.00000000000E+00 -0.88817841970E-15 -0.50265903304E+03  0.65519042468E+03  0.42024800903E+03 0.  0.
      99925    2    3    3    0    0  0.66090453730E+02 -0.67833041016E+01 -0.38481396781E+03  0.47093807384E+03  0.26322408379E+03 0.  0.
         25    1    4    4    0    0  0.66974264845E+02 -0.22547272659E+02 -0.17834472759E+03  0.22901589817E+03  0.12509000000E+03 0.  0.
         25    1    3    3    0    0 -0.66090453730E+02  0.67833041016E+01 -0.11784506523E+03  0.18425235084E+03  0.12509000000E+03 0.  0.
         25    1    4    4    0    0 -0.88381111495E+00  0.15763968557E+02 -0.20646924022E+03  0.24192217568E+03  0.12509000000E+03 0.  0.
<mgrwt>
<rscale>  2 0.42024801E+03</rscale>
<asrwt>0</asrwt>
<pdfrwt beam="1">  1       21 0.11215543E-01 0.42024801E+03</pdfrwt>
<pdfrwt beam="2">  1       21 0.85135992E-01 0.42024801E+03</pdfrwt>
<totfact> 0.73577472E+04</totfact>
</mgrwt>
</event>
<event>
 7    0  0.4732500E-002  0.4440629E+03  0.7546771E-02  0.1029507E+00
         21   -1    0    0  502  501  0.00000000000E+00  0.00000000000E+00  0.21257689704E+03  0.21257689704E+03  0.00000000000E+00 0.  1.
         21   -1    0    0  501  502 -0.00000000000E+00 -0.00000000000E+00 -0.23190648980E+03  0.23190648980E+03  0.00000000000E+00 0.  1.
      99926    2    1    2    0    0  0.71054273576E-14  0.35527136788E-14 -0.19329592756E+02  0.44448338684E+03  0.44406288746E+03 0.  0.
      99925    2    3    3    0    0 -0.35255702729E+02 -0.27123661822E+02  0.79040474269E+02  0.27924768915E+03  0.26410834465E+03 0.  0.
         25    1    4    4    0    0  0.21057074823E+02 -0.16997824585E+02  0.19911947082E+02  0.12952343486E+03  0.12509000000E+03 0.  0.
         25    1    3    3    0    0  0.35255702729E+02  0.27123661822E+02 -0.98370067025E+02  0.16523569769E+03  0.12509000000E+03 0.  0.
         25    1    4    4    0    0 -0.56312777552E+02 -0.10125837237E+02  0.59128527187E+02  0.14972425429E+03  0.12509000000E+03 0.  0.
<mgrwt>
<rscale>  2 0.44406289E+03</rscale>
<asrwt>0</asrwt>
<pdfrwt beam="1">  1       21 0.31261309E-01 0.44406289E+03</pdfrwt>
<pdfrwt beam="2">  1       21 0.34103895E-01 0.44406289E+03</pdfrwt>
<totfact> 0.75718236E+04</totfact>
</mgrwt>
</event>
<event>
 7    0  0.4732500E-002  0.4529879E+03  0.7546771E-02  0.1026835E+00
         21   -1    0    0  502  501  0.00000000000E+00  0.00000000000E+00  0.40701262562E+03  0.40701262562E+03  0.00000000000E+00 0.  1.
         21   -1    0    0  501  502 -0.00000000000E+00 -0.00000000000E+00 -0.12603912689E+03  0.12603912689E+03  0.00000000000E+00 0.  1.
      99926    2    1    2    0    0 -0.71054273576E-14 -0.88817841970E-15  0.28097349873E+03  0.53305175252E+03  0.45298792906E+03 0.  0.
      99925    2    3    3    0    0  0.58619511728E+02  0.66420365390E+01  0.65762578808E+02  0.27723226155E+03  0.26277870208E+03 0.  0.
         25    1    3    3    0    0 -0.58619511728E+02 -0.66420365390E+01  0.21521091992E+03  0.25581949097E+03  0.12509000000E+03 0.  0.
         25    1    4    4    0    0  0.18010845395E+02 -0.21975561456E+02  0.62273246129E+02  0.14259306132E+03  0.12509000000E+03 0.  0.
         25    1    4    4    0    0  0.40608666333E+02  0.28617597995E+02  0.34893326793E+01  0.13463920023E+03  0.12509000000E+03 0.  0.
<mgrwt>
<rscale>  2 0.45298793E+03</rscale>
<asrwt>0</asrwt>
<pdfrwt beam="1">  1       21 0.59854798E-01 0.45298793E+03</pdfrwt>
<pdfrwt beam="2">  1       21 0.18535166E-01 0.45298793E+03</pdfrwt>
<totfact> 0.64013969E+04</totfact>
</mgrwt>
</event>
<event>
 7    0  0.4732500E-002  0.4570578E+03  0.7546771E-02  0.1025638E+00
         21   -1    0    0  502  501  0.00000000000E+00  0.00000000000E+00  0.56431082166E+02  0.56431082166E+02  0.00000000000E+00 0.  1.
         21   -1    0    0  501  502 -0.00000000000E+00 -0.00000000000E+00 -0.92547343833E+03  0.92547343833E+03  0.00000000000E+00 0.  1.
      99926    2    1    2    0    0  0.00000000000E+00 -0.14210854715E-13 -0.86904235616E+03  0.98190452049E+03  0.45705784159E+03 0.  0.
      99925    2    3    3    0    0 -0.19606113772E+02  0.11248847991E+03 -0.51554930987E+03  0.58993143508E+03  0.26303982470E+03 0.  0.
         25    1    4    4    0    0 -0.17288428544E+02  0.95392750466E+02 -0.32271194539E+03  0.35942895598E+03  0.12509000000E+03 0.  0.
         25    1    3    3    0    0  0.19606113772E+02 -0.11248847991E+03 -0.35349304629E+03  0.39197308541E+03  0.12509000000E+03 0.  0.
         25    1    4    4    0    0 -0.23176852278E+01  0.17095729446E+02 -0.19283736448E+03  0.23050247910E+03  0.12509000000E+03 0.  0.
<mgrwt>
<rscale>  2 0.45705784E+03</rscale>
<asrwt>0</asrwt>
<pdfrwt beam="1">  1       21 0.82986888E-02 0.45705784E+03</pdfrwt>
<pdfrwt beam="2">  1       21 0.13609903E+00 0.45705784E+03</pdfrwt>
<totfact> 0.39239993E+04</totfact>
</mgrwt>
</event>
<event>
 7    0  0.4732500E-002  0.4652613E+03  0.7546771E-02  0.1023266E+00
         21   -1    0    0  502  501  0.00000000000E+00  0.00000000000E+00  0.69700249051E+02  0.69700249051E+02  0.00000000000E+00 0. -1.
         21   -1    0    0  501  502 -0.00000000000E+00 -0.00000000000E+00 -0.77642511329E+03  0.77642511329E+03  0.00000000000E+00 0. -1.
      99926    2    1    2    0    0  0.00000000000E+00  0.22204460493E-14 -0.70672486424E+03  0.84612536234E+03  0.46526131911E+03 0.  0.
      99925    2    3    3    0    0  0.12043998960E+03  0.11729044715E+01 -0.48164183209E+03  0.56184197158E+03  0.26302163373E+03 0.  0.
         25    1    4    4    0    0  0.73840525650E+02  0.38094964304E+02 -0.26884621202E+03  0.30794389643E+03  0.12509000000E+03 0.  0.
         25    1    3    3    0    0 -0.12043998960E+03 -0.11729044715E+01 -0.22508303215E+03  0.28428339076E+03  0.12509000000E+03 0.  0.
         25    1    4    4    0    0  0.46599463951E+02 -0.36922059832E+02 -0.21279562007E+03  0.25389807514E+03  0.12509000000E+03 0.  0.
<mgrwt>
<rscale>  2 0.46526132E+03</rscale>
<asrwt>0</asrwt>
<pdfrwt beam="1">  1       21 0.10250036E-01 0.46526132E+03</pdfrwt>
<pdfrwt beam="2">  1       21 0.11418017E+00 0.46526132E+03</pdfrwt>
<totfact> 0.42118839E+04</totfact>
</mgrwt>
</event>
<event>
 7    0  0.4732500E-002  0.4666516E+03  0.7546771E-02  0.1022870E+00
         21   -1    0    0  502  501  0.00000000000E+00  0.00000000000E+00  0.41548208111E+02  0.41548208111E+02  0.00000000000E+00 0. -1.
         21   -1    0    0  501  502 -0.00000000000E+00 -0.00000000000E+00 -0.13103075169E+04  0.13103075169E+04  0.00000000000E+00 0. -1.
      99926    2    1    2    0    0  0.00000000000E+00  0.00000000000E+00 -0.12687593088E+04  0.13518557250E+04  0.46665160196E+03 0.  0.
      99925    2    3    3    0    0  0.76865574849E+02 -0.96007388840E+02 -0.83096777504E+03  0.88022592270E+03  0.26299143812E+03 0.  0.
         25    1    4    4    0    0  0.11505143694E+02 -0.52609734509E+02 -0.30704298823E+03  0.33589143665E+03  0.12509000000E+03 0.  0.
         25    1    3    3    0    0 -0.76865574849E+02  0.96007388840E+02 -0.43779153376E+03  0.47162980233E+03  0.12509000000E+03 0.  0.
         25    1    4    4    0    0  0.65360431155E+02 -0.43397654331E+02 -0.52392478681E+03  0.54433448605E+03  0.12509000000E+03 0.  0.
<mgrwt>
<rscale>  2 0.46665160E+03</rscale>
<asrwt>0</asrwt>
<pdfrwt beam="1">  1       21 0.61100298E-02 0.46665160E+03</pdfrwt>
<pdfrwt beam="2">  1       21 0.19269231E+00 0.46665160E+03</pdfrwt>
<totfact> 0.25275738E+04</totfact>
</mgrwt>
</event>
<event>
 7    0  0.4732500E-002  0.4457982E+03  0.7546771E-02  0.1028982E+00
         21   -1    0    0  502  501  0.00000000000E+00  0.00000000000E+00  0.33115000191E+03  0.33115000191E+03  0.00000000000E+00 0. -1.
         21   -1    0    0  501  502 -0.00000000000E+00 -0.00000000000E+00 -0.15003478635E+03  0.15003478635E+03  0.00000000000E+00 0. -1.
      99926    2    1    2    0    0 -0.14210854715E-13  0.00000000000E+00  0.18111521556E+03  0.48118478826E+03  0.44579824938E+03 0.  0.
      99925    2    3    3    0    0  0.66347760731E+02 -0.60994053666E+02  0.17162998404E+03  0.32671868307E+03  0.26299419482E+03 0.  0.
         25    1    3    3    0    0 -0.66347760731E+02  0.60994053666E+02  0.94852315165E+01  0.15446610519E+03  0.12509000000E+03 0.  0.
         25    1    4    4    0    0  0.34951196729E+02 -0.71794069272E+02  0.85755440291E+02  0.17139859444E+03  0.12509000000E+03 0.  0.
         25    1    4    4    0    0  0.31396564002E+02  0.10800015606E+02  0.85874543749E+02  0.15532008863E+03  0.12509000000E+03 0.  0.
<mgrwt>
<rscale>  2 0.44579825E+03</rscale>
<asrwt>0</asrwt>
<pdfrwt beam="1">  1       21 0.48698530E-01 0.44579825E+03</pdfrwt>
<pdfrwt beam="2">  1       21 0.22063939E-01 0.44579825E+03</pdfrwt>
<totfact> 0.71710847E+04</totfact>
</mgrwt>
</event>
<event>
 7    0  0.4732500E-002  0.4568513E+03  0.7546771E-02  0.1025698E+00
         21   -1    0    0  502  501  0.00000000000E+00  0.00000000000E+00  0.30105413251E+03  0.30105413251E+03  0.00000000000E+00 0. -1.
         21   -1    0    0  501  502 -0.00000000000E+00 -0.00000000000E+00 -0.17331862490E+03  0.17331862490E+03  0.00000000000E+00 0. -1.
      99926    2    1    2    0    0  0.00000000000E+00  0.00000000000E+00  0.12773550761E+03  0.47437275741E+03  0.45685134680E+03 0.  0.
      99925    2    3    3    0    0  0.37628675797E+02 -0.10541208752E+03  0.52691195056E+02  0.29050654958E+03  0.26284989609E+03 0.  0.
         25    1    4    4    0    0  0.54608198271E+02 -0.34477993194E+02  0.29989874315E+02  0.14393640260E+03  0.12509000000E+03 0.  0.
         25    1    4    4    0    0 -0.16979522474E+02 -0.70934094321E+02  0.22701320741E+02  0.14657014697E+03  0.12509000000E+03 0.  0.
         25    1    3    3    0    0 -0.37628675797E+02  0.10541208752E+03  0.75044312550E+02  0.18386620783E+03  0.12509000000E+03 0.  0.
<mgrwt>
<rscale>  2 0.45685135E+03</rscale>
<asrwt>0</asrwt>
<pdfrwt beam="1">  1       21 0.44272667E-01 0.45685135E+03</pdfrwt>
<pdfrwt beam="2">  1       21 0.25488033E-01 0.45685135E+03</pdfrwt>
<totfact> 0.66135175E+04</totfact>
</mgrwt>
</event>
<event>
 7    0  0.4732500E-002  0.4532857E+03  0.7546771E-02  0.1026747E+00
         21   -1    0    0  502  501  0.00000000000E+00  0.00000000000E+00  0.48877271881E+03  0.48877271881E+03  0.00000000000E+00 0.  1.
         21   -1    0    0  501  502 -0.00000000000E+00 -0.00000000000E+00 -0.10509377847E+03  0.10509377847E+03  0.00000000000E+00 0.  1.
      99926    2    1    2    0    0 -0.35527136788E-14  0.00000000000E+00  0.38367894035E+03  0.59386649728E+03  0.45328565754E+03 0.  0.
      99925    2    3    3    0    0  0.28414099925E+02 -0.10589106628E+03  0.21167019873E+03  0.35458675663E+03  0.26250183991E+03 0.  0.
         25    1    3    3    0    0 -0.28414099925E+02  0.10589106628E+03  0.17200874161E+03  0.23927974065E+03  0.12509000000E+03 0.  0.
         25    1    4    4    0    0  0.46128278535E+02 -0.80070005679E+02  0.11442324307E+03  0.19307824979E+03  0.12509000000E+03 0.  0.
         25    1    4    4    0    0 -0.17714178610E+02 -0.25821060605E+02  0.97246955665E+02  0.16150850684E+03  0.12509000000E+03 0.  0.
<mgrwt>
<rscale>  2 0.45328566E+03</rscale>
<asrwt>0</asrwt>
<pdfrwt beam="1">  1       21 0.71878340E-01 0.45328566E+03</pdfrwt>
<pdfrwt beam="2">  1       21 0.15454968E-01 0.45328566E+03</pdfrwt>
<totfact> 0.59864310E+04</totfact>
</mgrwt>
</event>
<event>
 7    0  0.4732500E-002  0.4513810E+03  0.7546771E-02  0.1027311E+00
         21   -1    0    0  502  501  0.00000000000E+00  0.00000000000E+00  0.65225186011E+03  0.65225186011E+03  0.00000000000E+00 0. -1.
         21   -1    0    0  501  502 -0.00000000000E+00 -0.00000000000E+00 -0.78092848021E+02  0.78092848021E+02  0.00000000000E+00 0. -1.
      99926    2    1    2    0    0 -0.71054273576E-14  0.00000000000E+00  0.57415901209E+03  0.73034470814E+03  0.45138101592E+03 0.  0.
      99925    2    3    3    0    0 -0.62189726976E+02 -0.60295728777E+02  0.47169263112E+03  0.54690533292E+03  0.26288470453E+03 0.  0.
         25    1    3    3    0    0  0.62189726976E+02  0.60295728777E+02  0.10246638098E+03  0.18343937522E+03  0.12509000000E+03 0.  0.
         25    1    4    4    0    0 -0.10694648887E+01 -0.10093510643E+01  0.19949738868E+03  0.23547585595E+03  0.12509000000E+03 0.  0.
         25    1    4    4    0    0 -0.61120262087E+02 -0.59286377713E+02  0.27219524243E+03  0.31142947696E+03  0.12509000000E+03 0.  0.
<mgrwt>
<rscale>  2 0.45138102E+03</rscale>
<asrwt>0</asrwt>
<pdfrwt beam="1">  1       21 0.95919388E-01 0.45138102E+03</pdfrwt>
<pdfrwt beam="2">  1       21 0.11484243E-01 0.45138102E+03</pdfrwt>
<totfact> 0.52772050E+04</totfact>
</mgrwt>
</event>
<event>
 7    0  0.4732500E-002  0.4545164E+03  0.7546771E-02  0.1026384E+00
         21   -1    0    0  502  501  0.00000000000E+00  0.00000000000E+00  0.65322970709E+02  0.65322970709E+02  0.00000000000E+00 0.  1.
         21   -1    0    0  501  502 -0.00000000000E+00 -0.00000000000E+00 -0.79062987337E+03  0.79062987337E+03  0.00000000000E+00 0.  1.
      99926    2    1    2    0    0 -0.14210854715E-13  0.00000000000E+00 -0.72530690266E+03  0.85595284408E+03  0.45451641141E+03 0.  0.
      99925    2    3    3    0    0 -0.87804826417E+02  0.36686267359E+02 -0.34276523740E+03  0.44238156424E+03  0.26297884068E+03 0.  0.
         25    1    4    4    0    0 -0.58208472528E+02  0.41282472537E+02 -0.13137773143E+03  0.19493610550E+03  0.12509000000E+03 0.  0.
         25    1    4    4    0    0 -0.29596353889E+02 -0.45962051786E+01 -0.21138750597E+03  0.24744545873E+03  0.12509000000E+03 0.  0.
         25    1    3    3    0    0  0.87804826417E+02 -0.36686267359E+02 -0.38254166526E+03  0.41357127984E+03  0.12509000000E+03 0.  0.
<mgrwt>
<rscale>  2 0.45451641E+03</rscale>
<asrwt>0</asrwt>
<pdfrwt beam="1">  1       21 0.96063198E-02 0.45451641E+03</pdfrwt>
<pdfrwt beam="2">  1       21 0.11626909E+00 0.45451641E+03</pdfrwt>
<totfact> 0.45346005E+04</totfact>
</mgrwt>
</event>
<event>
 7    0  0.4732500E-002  0.4523533E+03  0.7546771E-02  0.1027023E+00
         21   -1    0    0  502  501  0.00000000000E+00  0.00000000000E+00  0.63930025322E+03  0.63930025322E+03  0.00000000000E+00 0.  1.
         21   -1    0    0  501  502 -0.00000000000E+00 -0.00000000000E+00 -0.80018560408E+02  0.80018560408E+02  0.00000000000E+00 0.  1.
      99926    2    1    2    0    0 -0.14210854715E-13  0.00000000000E+00  0.55928169281E+03  0.71931881362E+03  0.45235333946E+03 0.  0.
      99925    2    3    3    0    0 -0.57346279995E+02  0.93009039931E+02  0.38063127092E+03  0.47538694059E+03  0.26300817772E+03 0.  0.
         25    1    4    4    0    0 -0.70087054612E+02  0.52523827176E+02  0.20273337290E+03  0.25380952747E+03  0.12509000000E+03 0.  0.
         25    1    4    4    0    0  0.12740774617E+02  0.40485212755E+02  0.17789789802E+03  0.22157741313E+03  0.12509000000E+03 0.  0.
         25    1    3    3    0    0  0.57346279995E+02 -0.93009039931E+02  0.17865042189E+03  0.24393187303E+03  0.12509000000E+03 0.  0.
<mgrwt>
<rscale>  2 0.45235334E+03</rscale>
<asrwt>0</asrwt>
<pdfrwt beam="1">  1       21 0.94014740E-01 0.45235334E+03</pdfrwt>
<pdfrwt beam="2">  1       21 0.11767436E-01 0.45235334E+03</pdfrwt>
<totfact> 0.52960571E+04</totfact>
</mgrwt>
</event>
<event>
 7    0  0.4732500E-002  0.4621922E+03  0.7546771E-02  0.1024147E+00
         21   -1    0    0  502  501  0.00000000000E+00  0.00000000000E+00  0.63617873049E+02  0.63617873049E+02  0.00000000000E+00 0. -1.
         21   -1    0    0  501  502 -0.00000000000E+00 -0.00000000000E+00 -0.83947174397E+03  0.83947174397E+03  0.00000000000E+00 0. -1.
      99926    2    1    2    0    0 -0.17763568394E-14  0.00000000000E+00 -0.77585387092E+03  0.90308961702E+03  0.46219219741E+03 0.  0.
      99925    2    3    3    0    0 -0.12877894684E+02  0.93317677475E+02 -0.34026578478E+03  0.44020894342E+03  0.26292409642E+03 0.  0.
         25    1    4    4    0    0  0.29190576199E+01  0.35611534677E+02 -0.10525424033E+03  0.16733996984E+03  0.12509000000E+03 0.  0.
         25    1    4    4    0    0 -0.15796952304E+02  0.57706142798E+02 -0.23501154445E+03  0.27286897358E+03  0.12509000000E+03 0.  0.
         25    1    3    3    0    0  0.12877894684E+02 -0.93317677475E+02 -0.43558808614E+03  0.46288067359E+03  0.12509000000E+03 0.  0.
<mgrwt>
<rscale>  2 0.46219220E+03</rscale>
<asrwt>0</asrwt>
<pdfrwt beam="1">  1       21 0.93555704E-02 0.46219220E+03</pdfrwt>
<pdfrwt beam="2">  1       21 0.12345172E+00 0.46219220E+03</pdfrwt>
<totfact> 0.40756490E+04</totfact>
</mgrwt>
</event>
<event>
 7    0  0.4732500E-002  0.4556999E+03  0.7546771E-02  0.1026036E+00
         21   -1    0    0  502  501  0.00000000000E+00  0.00000000000E+00  0.70366552081E+02  0.70366552081E+02  0.00000000000E+00 0. -1.
         21   -1    0    0  501  502 -0.00000000000E+00 -0.00000000000E+00 -0.73778798564E+03  0.73778798564E+03  0.00000000000E+00 0. -1.
      99926    2    1    2    0    0  0.00000000000E+00 -0.14210854715E-13 -0.66742143356E+03  0.80815453772E+03  0.45569988684E+03 0.  0.
      99925    2    3    3    0    0 -0.46476529441E+02 -0.64490061945E+02 -0.27485639812E+03  0.38854298994E+03  0.26286989095E+03 0.  0.
         25    1    4    4    0    0 -0.64588217056E+01 -0.39592171209E+02 -0.85432016137E+02  0.15670160778E+03  0.12509000000E+03 0.  0.
         25    1    3    3    0    0  0.46476529441E+02  0.64490061945E+02 -0.39256503544E+03  0.41961154778E+03  0.12509000000E+03 0.  0.
         25    1    4    4    0    0 -0.40017707735E+02 -0.24897890736E+02 -0.18942438198E+03  0.23184138216E+03  0.12509000000E+03 0.  0.
<mgrwt>
<rscale>  2 0.45569989E+03</rscale>
<asrwt>0</asrwt>
<pdfrwt beam="1">  1       21 0.10348023E-01 0.45569989E+03</pdfrwt>
<pdfrwt beam="2">  1       21 0.10849823E+00 0.45569989E+03</pdfrwt>
<totfact> 0.47113618E+04</totfact>
</mgrwt>
</event>
<event>
 7    0  0.4732500E-002  0.4549322E+03  0.7546771E-02  0.1026261E+00
         21   -1    0    0  502  501  0.00000000000E+00  0.00000000000E+00  0.49044589220E+03  0.49044589220E+03  0.00000000000E+00 0.  1.
         21   -1    0    0  501  502 -0.00000000000E+00 -0.00000000000E+00 -0.10549753773E+03  0.10549753773E+03  0.00000000000E+00 0.  1.
      99926    2    1    2    0    0  0.00000000000E+00  0.00000000000E+00  0.38494835446E+03  0.59594342993E+03  0.45493223239E+03 0.  0.
      99925    2    3    3    0    0 -0.85851525919E+02 -0.24922668928E+02  0.15146371329E+03  0.31638268573E+03  0.26299263005E+03 0.  0.
         25    1    4    4    0    0 -0.79226759917E+02  0.26407315470E+01  0.65195372508E+02  0.16180790354E+03  0.12509000000E+03 0.  0.
         25    1    4    4    0    0 -0.66247660019E+01 -0.27563400475E+02  0.86268340782E+02  0.15457478220E+03  0.12509000000E+03 0.  0.
         25    1    3    3    0    0  0.85851525919E+02  0.24922668928E+02  0.23348464117E+03  0.27956074419E+03  0.12509000000E+03 0.  0.
<mgrwt>
<rscale>  2 0.45493223E+03</rscale>
<asrwt>0</asrwt>
<pdfrwt beam="1">  1       21 0.72124395E-01 0.45493223E+03</pdfrwt>
<pdfrwt beam="2">  1       21 0.15514344E-01 0.45493223E+03</pdfrwt>
<totfact> 0.58960224E+04</totfact>
</mgrwt>
</event>
<event>
 7    0  0.4732500E-002  0.4567955E+03  0.7546771E-02  0.1025715E+00
         21   -1    0    0  502  501  0.00000000000E+00  0.00000000000E+00  0.64125553220E+03  0.64125553220E+03  0.00000000000E+00 0.  1.
         21   -1    0    0  501  502 -0.00000000000E+00 -0.00000000000E+00 -0.81349043970E+02  0.81349043970E+02  0.00000000000E+00 0.  1.
      99926    2    1    2    0    0  0.35527136788E-14  0.00000000000E+00  0.55990648823E+03  0.72260457617E+03  0.45679546620E+03 0.  0.
      99925    2    3    3    0    0  0.24661787279E+02 -0.87598147614E+02  0.24079050808E+03  0.36797215224E+03  0.26294827785E+03 0.  0.
         25    1    4    4    0    0  0.45311120704E+02 -0.53246935547E+02  0.96053437168E+02  0.17251696930E+03  0.12509000000E+03 0.  0.
         25    1    4    4    0    0 -0.20649333425E+02 -0.34351212067E+02  0.14473707091E+03  0.19545518294E+03  0.12509000000E+03 0.  0.
         25    1    3    3    0    0 -0.24661787279E+02  0.87598147614E+02  0.31911598015E+03  0.35463242394E+03  0.12509000000E+03 0.  0.
<mgrwt>
<rscale>  2 0.45679547E+03</rscale>
<asrwt>0</asrwt>
<pdfrwt beam="1">  1       21 0.94302282E-01 0.45679547E+03</pdfrwt>
<pdfrwt beam="2">  1       21 0.11963095E-01 0.45679547E+03</pdfrwt>
<totfact> 0.50969261E+04</totfact>
</mgrwt>
</event>
<event>
 7    0  0.4732500E-002  0.4660627E+03  0.7546771E-02  0.1023037E+00
         21   -1    0    0  502  501  0.00000000000E+00  0.00000000000E+00  0.19703974887E+03  0.19703974887E+03  0.00000000000E+00 0. -1.
         21   -1    0    0  501  502 -0.00000000000E+00 -0.00000000000E+00 -0.27559727769E+03  0.27559727769E+03  0.00000000000E+00 0. -1.
      99926    2    1    2    0    0  0.00000000000E+00  0.00000000000E+00 -0.78557528826E+02  0.47263702656E+03  0.46606273563E+03 0.  0.
      99925    2    3    3    0    0  0.87835921776E+02  0.62177775396E+02  0.11742808278E+02  0.28453364039E+03  0.26313546713E+03 0.  0.
         25    1    3    3    0    0 -0.87835921776E+02 -0.62177775396E+02 -0.90300337105E+02  0.18810338617E+03  0.12509000000E+03 0.  0.
         25    1    4    4    0    0  0.39751958698E+02  0.10529484005E+02 -0.29837343938E+02  0.13501430830E+03  0.12509000000E+03 0.  0.
         25    1    4    4    0    0  0.48083963078E+02  0.51648291391E+02  0.41580152217E+02  0.14951933209E+03  0.12509000000E+03 0.  0.
<mgrwt>
<rscale>  2 0.46606274E+03</rscale>
<asrwt>0</asrwt>
<pdfrwt beam="1">  1       21 0.28976434E-01 0.46606274E+03</pdfrwt>
<pdfrwt beam="2">  1       21 0.40529011E-01 0.46606274E+03</pdfrwt>
<totfact> 0.61644818E+04</totfact>
</mgrwt>
</event>
<event>
 7    0  0.4732500E-002  0.4529745E+03  0.7546771E-02  0.1026839E+00
         21   -1    0    0  502  501  0.00000000000E+00  0.00000000000E+00  0.38190576279E+03  0.38190576279E+03  0.00000000000E+00 0. -1.
         21   -1    0    0  501  502 -0.00000000000E+00 -0.00000000000E+00 -0.13431707329E+03  0.13431707329E+03  0.00000000000E+00 0. -1.
      99926    2    1    2    0    0  0.00000000000E+00 -0.14210854715E-13  0.24758868950E+03  0.51622283608E+03  0.45297445548E+03 0.  0.
      99925    2    3    3    0    0 -0.12449398520E+02  0.11019819912E+03  0.16634560740E+03  0.33035574081E+03  0.26299320100E+03 0.  0.
         25    1    4    4    0    0  0.13212819328E+02  0.80603048860E+02  0.11896528679E+03  0.19097559436E+03  0.12509000000E+03 0.  0.
         25    1    4    4    0    0 -0.25662217847E+02  0.29595150263E+02  0.47380320603E+02  0.13938014645E+03  0.12509000000E+03 0.  0.
         25    1    3    3    0    0  0.12449398520E+02 -0.11019819912E+03  0.81243082106E+02  0.18586709527E+03  0.12509000000E+03 0.  0.
<mgrwt>
<rscale>  2 0.45297446E+03</rscale>
<asrwt>0</asrwt>
<pdfrwt beam="1">  1       21 0.56162612E-01 0.45297446E+03</pdfrwt>
<pdfrwt beam="2">  1       21 0.19752511E-01 0.45297446E+03</pdfrwt>
<totfact> 0.65186716E+04</totfact>
</mgrwt>
</event>
<event>
 7    0  0.4732500E-002  0.4358436E+03  0.7546771E-02  0.1032030E+00
         21   -1    0    0  502  501  0.00000000000E+00  0.00000000000E+00  0.10477216293E+04  0.10477216293E+04  0.00000000000E+00 0.  1.
         21   -1    0    0  501  502 -0.00000000000E+00 -0.00000000000E+00 -0.45326838600E+02  0.45326838600E+02  0.00000000000E+00 0.  1.
      99926    2    1    2    0    0  0.00000000000E+00  0.35527136788E-14  0.10023947907E+04  0.10930484679E+04  0.43584359208E+03 0.  0.
      99925    2    3    3    0    0  0.66844596189E+02 -0.21245957882E+02  0.48617473167E+03  0.55727776302E+03  0.26319772923E+03 0.  0.
         25    1    4    4    0    0  0.30370678533E+02  0.29932223323E+02  0.22452706183E+03  0.26053450002E+03  0.12509000000E+03 0.  0.
         25    1    4    4    0    0  0.36473917656E+02 -0.51178181204E+02  0.26164766984E+03  0.29674326300E+03  0.12509000000E+03 0.  0.
         25    1    3    3    0    0 -0.66844596189E+02  0.21245957882E+02  0.51622005902E+03  0.53577070487E+03  0.12509000000E+03 0.  0.
<mgrwt>
<rscale>  2 0.43584359E+03</rscale>
<asrwt>0</asrwt>
<pdfrwt beam="1">  1       21 0.15407669E+00 0.43584359E+03</pdfrwt>
<pdfrwt beam="2">  1       21 0.66657122E-02 0.43584359E+03</pdfrwt>
<totfact> 0.41616492E+04</totfact>
</mgrwt>
</event>
<event>
 7    0  0.4732500E-002  0.4441449E+03  0.7546771E-02  0.1029483E+00
         21   -1    0    0  502  501  0.00000000000E+00  0.00000000000E+00  0.50430550270E+03  0.50430550270E+03  0.00000000000E+00 0. -1.
         21   -1    0    0  501  502 -0.00000000000E+00 -0.00000000000E+00 -0.97790268284E+02  0.97790268284E+02  0.00000000000E+00 0. -1.
      99926    2    1    2    0    0  0.00000000000E+00 -0.71054273576E-14  0.40651523441E+03  0.60209577098E+03  0.44414488810E+03 0.  0.
      99925    2    3    3    0    0  0.49346549050E+01  0.36317739419E+02  0.12846878656E+03  0.29501163873E+03  0.26302910267E+03 0.  0.
         25    1    4    4    0    0  0.61098268169E+01  0.10927163495E+01  0.10394140639E+03  0.16275702158E+03  0.12509000000E+03 0.  0.
         25    1    3    3    0    0 -0.49346549050E+01 -0.36317739419E+02  0.27804644785E+03  0.30708413225E+03  0.12509000000E+03 0.  0.
         25    1    4    4    0    0 -0.11751719119E+01  0.35225023069E+02  0.24527380174E+02  0.13225461715E+03  0.12509000000E+03 0.  0.
<mgrwt>
<rscale>  2 0.44414489E+03</rscale>
<asrwt>0</asrwt>
<pdfrwt beam="1">  1       21 0.74162573E-01 0.44414489E+03</pdfrwt>
<pdfrwt beam="2">  1       21 0.14380922E-01 0.44414489E+03</pdfrwt>
<totfact> 0.63851648E+04</totfact>
</mgrwt>
</event>
<event>
 7    0  0.4732500E-002  0.4551702E+03  0.7546771E-02  0.1026191E+00
         21   -1    0    0  502  501  0.00000000000E+00  0.00000000000E+00  0.10534866742E+03  0.10534866742E+03  0.00000000000E+00 0.  1.
         21   -1    0    0  501  502 -0.00000000000E+00 -0.00000000000E+00 -0.49165284029E+03  0.49165284029E+03  0.00000000000E+00 0.  1.
      99926    2    1    2    0    0  0.00000000000E+00 -0.71054273576E-14 -0.38630417286E+03  0.59700150771E+03  0.45517017284E+03 0.  0.
      99925    2    3    3    0    0 -0.82124710715E+02 -0.38901994875E+02 -0.15422910186E+03  0.31813921195E+03  0.26299830609E+03 0.  0.
         25    1    4    4    0    0 -0.69515491987E+01 -0.39868756341E+02 -0.60796428383E+02  0.14485011416E+03  0.12509000000E+03 0.  0.
         25    1    3    3    0    0  0.82124710715E+02  0.38901994875E+02 -0.23207507100E+03  0.27886229576E+03  0.12509000000E+03 0.  0.
         25    1    4    4    0    0 -0.75173161517E+02  0.96676146651E+00 -0.93432673476E+02  0.17328909779E+03  0.12509000000E+03 0.  0.
<mgrwt>
<rscale>  2 0.45517017E+03</rscale>
<asrwt>0</asrwt>
<pdfrwt beam="1">  1       21 0.15492451E-01 0.45517017E+03</pdfrwt>
<pdfrwt beam="2">  1       21 0.72301890E-01 0.45517017E+03</pdfrwt>
<totfact> 0.58784125E+04</totfact>
</mgrwt>
</event>
<event>
 7    0  0.4732500E-002  0.4431813E+03  0.7546771E-02  0.1029775E+00
         21   -1    0    0  502  501  0.00000000000E+00  0.00000000000E+00  0.16677621240E+04  0.16677621240E+04  0.00000000000E+00 0.  1.
         21   -1    0    0  501  502 -0.00000000000E+00 -0.00000000000E+00 -0.29442094672E+02  0.29442094672E+02  0.00000000000E+00 0.  1.
      99926    2    1    2    0    0 -0.14210854715E-13 -0.71054273576E-14  0.16383200294E+04  0.16972042187E+04  0.44318127373E+03 0.  0.
      99925    2    3    3    0    0  0.67269448014E+02  0.60951223837E+02  0.87009594879E+03  0.91358698026E+03  0.26331346352E+03 0.  0.
         25    1    3    3    0    0 -0.67269448014E+02 -0.60951223837E+02  0.76822408057E+03  0.78361723844E+03  0.12509000000E+03 0.  0.
         25    1    4    4    0    0 -0.39557641811E+01  0.47684094494E+02  0.41108656657E+03  0.43235297414E+03  0.12509000000E+03 0.  0.
         25    1    4    4    0    0  0.71225212195E+02  0.13267129344E+02  0.45900938223E+03  0.48123400612E+03  0.12509000000E+03 0.  0.
<mgrwt>
<rscale>  2 0.44318127E+03</rscale>
<asrwt>0</asrwt>
<pdfrwt beam="1">  1       21 0.24525907E+00 0.44318127E+03</pdfrwt>
<pdfrwt beam="2">  1       21 0.43297209E-02 0.44318127E+03</pdfrwt>
<totfact> 0.21199500E+04</totfact>
</mgrwt>
</event>
<event>
 7    0  0.4732500E-002  0.4572964E+03  0.7546771E-02  0.1025568E+00
         21   -1    0    0  502  501  0.00000000000E+00  0.00000000000E+00  0.24087121400E+03  0.24087121400E+03  0.00000000000E+00 0.  1.
         21   -1    0    0  501  502 -0.00000000000E+00 -0.00000000000E+00 -0.21704544983E+03  0.21704544983E+03  0.00000000000E+00 0.  1.
      99926    2    1    2    0    0  0.00000000000E+00 -0.35527136788E-14  0.23825764165E+02  0.45791666383E+03  0.45729640714E+03 0.  0.
      99925    2    3    3    0    0  0.94275501188E+02  0.29107265829E+02 -0.45312129896E+02  0.28424266018E+03  0.26268916556E+03 0.  0.
         25    1    4    4    0    0  0.43770620638E+02 -0.73942598043E+01 -0.56042851367E+02  0.14407932398E+03  0.12509000000E+03 0.  0.
         25    1    4    4    0    0  0.50504880550E+02  0.36501525634E+02  0.10730721471E+02  0.14016333621E+03  0.12509000000E+03 0.  0.
         25    1    3    3    0    0 -0.94275501188E+02 -0.29107265829E+02  0.69137894062E+02  0.17367400365E+03  0.12509000000E+03 0.  0.
<mgrwt>
<rscale>  2 0.45729641E+03</rscale>
<asrwt>0</asrwt>
<pdfrwt beam="1">  1       21 0.35422237E-01 0.45729641E+03</pdfrwt>
<pdfrwt beam="2">  1       21 0.31918448E-01 0.45729641E+03</pdfrwt>
<totfact> 0.67094864E+04</totfact>
</mgrwt>
</event>
<event>
 7    0  0.4732500E-002  0.4624085E+03  0.7546771E-02  0.1024085E+00
         21   -1    0    0  502  501  0.00000000000E+00  0.00000000000E+00  0.37872096848E+03  0.37872096848E+03  0.00000000000E+00 0. -1.
         21   -1    0    0  501  502 -0.00000000000E+00 -0.00000000000E+00 -0.14114720554E+03  0.14114720554E+03  0.00000000000E+00 0. -1.
      99926    2    1    2    0    0 -0.35527136788E-14  0.00000000000E+00  0.23757376294E+03  0.51986817402E+03  0.46240850503E+03 0.  0.
      99925    2    3    3    0    0  0.20980424886E+02 -0.78233676691E+02  0.24813425545E+03  0.37047032096E+03  0.26290105285E+03 0.  0.
         25    1    4    4    0    0  0.36386987494E+02 -0.10487790358E+02  0.10046233067E+03  0.16484597232E+03  0.12509000000E+03 0.  0.
         25    1    3    3    0    0 -0.20980424886E+02  0.78233676691E+02 -0.10560492518E+02  0.14939785306E+03  0.12509000000E+03 0.  0.
         25    1    4    4    0    0 -0.15406562609E+02 -0.67745886333E+02  0.14767192479E+03  0.20562434865E+03  0.12509000000E+03 0.  0.
<mgrwt>
<rscale>  2 0.46240851E+03</rscale>
<asrwt>0</asrwt>
<pdfrwt beam="1">  1       21 0.55694260E-01 0.46240851E+03</pdfrwt>
<pdfrwt beam="2">  1       21 0.20756942E-01 0.46240851E+03</pdfrwt>
<totfact> 0.60274263E+04</totfact>
</mgrwt>
</event>
<event>
 7    0  0.4732500E-002  0.4540013E+03  0.7546771E-02  0.1026535E+00
         21   -1    0    0  502  501  0.00000000000E+00  0.00000000000E+00  0.29861153341E+02  0.29861153341E+02  0.00000000000E+00 0.  1.
         21   -1    0    0  501  502 -0.00000000000E+00 -0.00000000000E+00 -0.17256297272E+04  0.17256297272E+04  0.00000000000E+00 0.  1.
      99926    2    1    2    0    0  0.00000000000E+00  0.00000000000E+00 -0.16957685739E+04  0.17554908805E+04  0.45400129469E+03 0.  0.
      99925    2    3    3    0    0 -0.56695447157E+02  0.53585969766E+02 -0.75616227700E+03  0.80438976548E+03  0.26301269125E+03 0.  0.
         25    1    4    4    0    0 -0.56380217639E+01 -0.87822398343E+01 -0.34367983107E+03  0.36588556873E+03  0.12509000000E+03 0.  0.
         25    1    3    3    0    0  0.56695447157E+02 -0.53585969766E+02 -0.93960629686E+03  0.95110111507E+03  0.12509000000E+03 0.  0.
         25    1    4    4    0    0 -0.51057425393E+02  0.62368209600E+02 -0.41248244594E+03  0.43850419675E+03  0.12509000000E+03 0.  0.
<mgrwt>
<rscale>  2 0.45400129E+03</rscale>
<asrwt>0</asrwt>
<pdfrwt beam="1">  1       21 0.43913450E-02 0.45400129E+03</pdfrwt>
<pdfrwt beam="2">  1       21 0.25376914E+00 0.45400129E+03</pdfrwt>
<totfact> 0.18271832E+04</totfact>
</mgrwt>
</event>
<event>
 7    0  0.4732500E-002  0.4579450E+03  0.7546771E-02  0.1025379E+00
         21   -1    0    0  502  501  0.00000000000E+00  0.00000000000E+00  0.14765575535E+04  0.14765575535E+04  0.00000000000E+00 0.  1.
         21   -1    0    0  501  502 -0.00000000000E+00 -0.00000000000E+00 -0.35507193347E+02  0.35507193347E+02  0.00000000000E+00 0.  1.
      99926    2    1    2    0    0  0.00000000000E+00  0.00000000000E+00  0.14410503602E+04  0.15120647469E+04  0.45794503836E+03 0.  0.
      99925    2    3    3    0    0  0.10174519200E+03  0.54090389174E+02  0.94449845040E+03  0.98719413282E+03  0.26305337626E+03 0.  0.
         25    1    3    3    0    0 -0.10174519200E+03 -0.54090389174E+02  0.49655190976E+03  0.52487061404E+03  0.12509000000E+03 0.  0.
         25    1    4    4    0    0  0.27368688390E+02  0.41447039211E+01  0.33750474074E+03  0.36100302187E+03  0.12509000000E+03 0.  0.
         25    1    4    4    0    0  0.74376503606E+02  0.49945685253E+02  0.60699370966E+03  0.62619111095E+03  0.12509000000E+03 0.  0.
<mgrwt>
<rscale>  2 0.45794504E+03</rscale>
<asrwt>0</asrwt>
<pdfrwt beam="1">  1       21 0.21714078E+00 0.45794504E+03</pdfrwt>
<pdfrwt beam="2">  1       21 0.52216471E-02 0.45794504E+03</pdfrwt>
<totfact> 0.22955386E+04</totfact>
</mgrwt>
</event>
<event>
 7    0  0.4732500E-002  0.4429018E+03  0.7546771E-02  0.1029860E+00
         21   -1    0    0  502  501  0.00000000000E+00  0.00000000000E+00  0.53880293704E+03  0.53880293704E+03  0.00000000000E+00 0.  1.
         21   -1    0    0  501  502 -0.00000000000E+00 -0.00000000000E+00 -0.91017525726E+02  0.91017525726E+02  0.00000000000E+00 0.  1.
      99926    2    1    2    0    0  0.00000000000E+00  0.00000000000E+00  0.44778541132E+03  0.62982046277E+03  0.44290184097E+03 0.  0.
      99925    2    3    3    0    0  0.92056044195E+02 -0.32781744367E+02  0.24635394714E+03  0.37336169240E+03  0.26298237212E+03 0.  0.
         25    1    3    3    0    0 -0.92056044195E+02  0.32781744367E+02  0.20143146418E+03  0.25645877037E+03  0.12509000000E+03 0.  0.
         25    1    4    4    0    0  0.46211701884E+02 -0.54360738479E+02  0.10734615870E+03  0.17961435679E+03  0.12509000000E+03 0.  0.
         25    1    4    4    0    0  0.45844342311E+02  0.21578994111E+02  0.13900778844E+03  0.19374733561E+03  0.12509000000E+03 0.  0.
<mgrwt>
<rscale>  2 0.44290184E+03</rscale>
<asrwt>0</asrwt>
<pdfrwt beam="1">  1       21 0.79235724E-01 0.44290184E+03</pdfrwt>
<pdfrwt beam="2">  1       21 0.13384931E-01 0.44290184E+03</pdfrwt>
<totfact> 0.62651258E+04</totfact>
</mgrwt>
</event>
<event>
 7    0  0.4732500E-002  0.4190406E+03  0.7546771E-02  0.1037379E+00
         21   -1    0    0  502  501  0.00000000000E+00  0.00000000000E+00  0.58241965313E+03  0.58241965313E+03  0.00000000000E+00 0.  1.
         21   -1    0    0  501  502 -0.00000000000E+00 -0.00000000000E+00 -0.75373060511E+02  0.75373060511E+02  0.00000000000E+00 0.  1.
      99926    2    1    2    0    0  0.66613381478E-15  0.00000000000E+00  0.50704659262E+03  0.65779271365E+03  0.41904057922E+03 0.  0.
      99925    2    3    3    0    0  0.95442199848E-01 -0.48429668681E+02  0.24188491964E+03  0.36063339133E+03  0.26306403531E+03 0.  0.
         25    1    3    3    0    0 -0.95442199848E-01  0.48429668681E+02  0.26516167299E+03  0.29715932232E+03  0.12509000000E+03 0.  0.
         25    1    4    4    0    0  0.38389560119E+02 -0.36025778729E+02  0.11352828166E+03  0.17694008561E+03  0.12509000000E+03 0.  0.
         25    1    4    4    0    0 -0.38294117919E+02 -0.12403889952E+02  0.12835663797E+03  0.18369330572E+03  0.12509000000E+03 0.  0.
<mgrwt>
<rscale>  2 0.41904058E+03</rscale>
<asrwt>0</asrwt>
<pdfrwt beam="1">  1       21 0.85649947E-01 0.41904058E+03</pdfrwt>
<pdfrwt beam="2">  1       21 0.11084274E-01 0.41904058E+03</pdfrwt>
<totfact> 0.74131673E+04</totfact>
</mgrwt>
</event>
<event>
 7    0  0.4732500E-002  0.4622680E+03  0.7546771E-02  0.1024125E+00
         21   -1    0    0  502  501  0.00000000000E+00  0.00000000000E+00  0.60416152278E+03  0.60416152278E+03  0.00000000000E+00 0.  1.
         21   -1    0    0  501  502 -0.00000000000E+00 -0.00000000000E+00 -0.88424905118E+02  0.88424905118E+02  0.00000000000E+00 0.  1.
      99926    2    1    2    0    0  0.00000000000E+00  0.00000000000E+00  0.51573661766E+03  0.69258642790E+03  0.46226799728E+03 0.  0.
      99925    2    3    3    0    0 -0.86623070259E+02  0.67564109294E+02  0.25044051317E+03  0.37938043127E+03  0.26294599413E+03 0.  0.
         25    1    3    3    0    0  0.86623070259E+02 -0.67564109294E+02  0.26529610450E+03  0.31320599663E+03  0.12509000000E+03 0.  0.
         25    1    4    4    0    0 -0.37144551090E+02  0.30557258749E+02  0.17608881752E+03  0.22128769395E+03  0.12509000000E+03 0.  0.
         25    1    4    4    0    0 -0.49478519169E+02  0.37006850545E+02  0.74351695645E+02  0.15809273731E+03  0.12509000000E+03 0.  0.
<mgrwt>
<rscale>  2 0.46226800E+03</rscale>
<asrwt>0</asrwt>
<pdfrwt beam="1">  1       21 0.88847281E-01 0.46226800E+03</pdfrwt>
<pdfrwt beam="2">  1       21 0.13003663E-01 0.46226800E+03</pdfrwt>
<totfact> 0.50363155E+04</totfact>
</mgrwt>
</event>
<event>
 7    0  0.4732500E-002  0.4557176E+03  0.7546771E-02  0.1026031E+00
         21   -1    0    0  502  501  0.00000000000E+00  0.00000000000E+00  0.11807042139E+03  0.11807042139E+03  0.00000000000E+00 0.  1.
         21   -1    0    0  501  502 -0.00000000000E+00 -0.00000000000E+00 -0.43973440319E+03  0.43973440319E+03  0.00000000000E+00 0.  1.
      99926    2    1    2    0    0  0.00000000000E+00  0.71054273576E-14 -0.32166398180E+03  0.55780482458E+03  0.45571757168E+03 0.  0.
      99925    2    3    3    0    0  0.37386782935E+02 -0.51555974790E+02 -0.31787814542E+03  0.41738534327E+03  0.26288442206E+03 0.  0.
         25    1    4    4    0    0  0.11349931443E+01  0.50256669739E+01 -0.11677338631E+03  0.17120186152E+03  0.12509000000E+03 0.  0.
         25    1    4    4    0    0  0.36251789791E+02 -0.56581641764E+02 -0.20110475912E+03  0.24618348175E+03  0.12509000000E+03 0.  0.
         25    1    3    3    0    0 -0.37386782935E+02  0.51555974790E+02 -0.37858363730E+01  0.14041948131E+03  0.12509000000E+03 0.  0.
<mgrwt>
<rscale>  2 0.45571757E+03</rscale>
<asrwt>0</asrwt>
<pdfrwt beam="1">  1       21 0.17363297E-01 0.45571757E+03</pdfrwt>
<pdfrwt beam="2">  1       21 0.64666824E-01 0.45571757E+03</pdfrwt>
<totfact> 0.61006664E+04</totfact>
</mgrwt>
</event>
<event>
 7    0  0.4732500E-002  0.4590455E+03  0.7546771E-02  0.1025058E+00
         21   -1    0    0  502  501  0.00000000000E+00  0.00000000000E+00  0.17834881461E+03  0.17834881461E+03  0.00000000000E+00 0. -1.
         21   -1    0    0  501  502 -0.00000000000E+00 -0.00000000000E+00 -0.29538004756E+03  0.29538004756E+03  0.00000000000E+00 0. -1.
      99926    2    1    2    0    0  0.35527136788E-14  0.00000000000E+00 -0.11703123294E+03  0.47372886217E+03  0.45904545022E+03 0.  0.
      99925    2    3    3    0    0  0.17819154129E+02 -0.65931538724E+02 -0.17125179206E+03  0.32124323273E+03  0.26306947417E+03 0.  0.
         25    1    4    4    0    0 -0.27069468355E+02 -0.23651753096E+02 -0.10298101902E+03  0.16596614088E+03  0.12509000000E+03 0.  0.
         25    1    4    4    0    0  0.44888622484E+02 -0.42279785628E+02 -0.68270773043E+02  0.15527709185E+03  0.12509000000E+03 0.  0.
         25    1    3    3    0    0 -0.17819154129E+02  0.65931538724E+02  0.54220559119E+02  0.15248562943E+03  0.12509000000E+03 0.  0.
<mgrwt>
<rscale>  2 0.45904545E+03</rscale>
<asrwt>0</asrwt>
<pdfrwt beam="1">  1       21 0.26227767E-01 0.45904545E+03</pdfrwt>
<pdfrwt beam="2">  1       21 0.43438242E-01 0.45904545E+03</pdfrwt>
<totfact> 0.65046603E+04</totfact>
</mgrwt>
</event>
<event>
 7    0  0.4732500E-002  0.4529822E+03  0.7546771E-02  0.1026836E+00
         21   -1    0    0  502  501  0.00000000000E+00  0.00000000000E+00  0.92260030571E+02  0.92260030571E+02  0.00000000000E+00 0. -1.
         21   -1    0    0  501  502 -0.00000000000E+00 -0.00000000000E+00 -0.55601769291E+03  0.55601769291E+03  0.00000000000E+00 0. -1.
      99926    2    1    2    0    0 -0.17763568394E-14  0.00000000000E+00 -0.46375766234E+03  0.64827772348E+03  0.45298216012E+03 0.  0.
      99925    2    3    3    0    0  0.12513289226E+02  0.24872734230E+02 -0.44652709108E+03  0.51897329200E+03  0.26300494182E+03 0.  0.
         25    1    4    4    0    0  0.45653559242E+02  0.20092584192E+02 -0.24024222015E+03  0.27541204014E+03  0.12509000000E+03 0.  0.
         25    1    3    3    0    0 -0.12513289226E+02 -0.24872734230E+02 -0.17230571255E+02  0.12930443148E+03  0.12509000000E+03 0.  0.
         25    1    4    4    0    0 -0.33140270015E+02  0.47801500382E+01 -0.20628487093E+03  0.24356125186E+03  0.12509000000E+03 0.  0.
<mgrwt>
<rscale>  2 0.45298216E+03</rscale>
<asrwt>0</asrwt>
<pdfrwt beam="1">  1       21 0.13567652E-01 0.45298216E+03</pdfrwt>
<pdfrwt beam="2">  1       21 0.81767303E-01 0.45298216E+03</pdfrwt>
<totfact> 0.56698036E+04</totfact>
</mgrwt>
</event>
<event>
 7    0  0.4732500E-002  0.4469192E+03  0.7546771E-02  0.1028645E+00
         21   -1    0    0  502  501  0.00000000000E+00  0.00000000000E+00  0.66215079112E+02  0.66215079112E+02  0.00000000000E+00 0.  1.
         21   -1    0    0  501  502 -0.00000000000E+00 -0.00000000000E+00 -0.75412129421E+03  0.75412129421E+03  0.00000000000E+00 0.  1.
      99926    2    1    2    0    0 -0.14210854715E-13  0.44408920985E-15 -0.68790621510E+03  0.82033637333E+03  0.44691923725E+03 0.  0.
      99925    2    3    3    0    0 -0.90559940239E+02 -0.32613067632E+01 -0.33726620362E+03  0.43718148995E+03  0.26299700408E+03 0.  0.
         25    1    4    4    0    0 -0.76193495414E+02 -0.59566343865E+01 -0.13722077797E+03  0.20079337699E+03  0.12509000000E+03 0.  0.
         25    1    3    3    0    0  0.90559940239E+02  0.32613067632E+01 -0.35064001149E+03  0.38315488337E+03  0.12509000000E+03 0.  0.
         25    1    4    4    0    0 -0.14366444825E+02  0.26953276232E+01 -0.20004542564E+03  0.23638811296E+03  0.12509000000E+03 0.  0.
<mgrwt>
<rscale>  2 0.44691924E+03</rscale>
<asrwt>0</asrwt>
<pdfrwt beam="1">  1       21 0.97375123E-02 0.44691924E+03</pdfrwt>
<pdfrwt beam="2">  1       21 0.11090018E+00 0.44691924E+03</pdfrwt>
<totfact> 0.49885512E+04</totfact>
</mgrwt>
</event>
<event>
 7    0  0.4732500E-002  0.4657033E+03  0.7546771E-02  0.1023140E+00
         21   -1    0    0  502  501  0.00000000000E+00  0.00000000000E+00  0.70267821478E+02  0.70267821478E+02  0.00000000000E+00 0. -1.
         21   -1    0    0  501  502 -0.00000000000E+00 -0.00000000000E+00 -0.77161763981E+03  0.77161763981E+03  0.00000000000E+00 0. -1.
      99926    2    1    2    0    0  0.14210854715E-13 -0.97144514655E-16 -0.70134981834E+03  0.84188546129E+03  0.46570329852E+03 0.  0.
      99925    2    3    3    0    0 -0.11324789641E+03 -0.99199358943E-01 -0.35002923325E+03  0.45214354991E+03  0.26284639947E+03 0.  0.
         25    1    4    4    0    0 -0.48816992498E+02  0.12646318373E+01 -0.10861144796E+03  0.17270973562E+03  0.12509000000E+03 0.  0.
         25    1    3    3    0    0  0.11324789641E+03  0.99199358943E-01 -0.35132058508E+03  0.38974191138E+03  0.12509000000E+03 0.  0.
         25    1    4    4    0    0 -0.64430903916E+02 -0.13638311962E+01 -0.24141778529E+03  0.27943381429E+03  0.12509000000E+03 0.  0.
<mgrwt>
<rscale>  2 0.46570330E+03</rscale>
<asrwt>0</asrwt>
<pdfrwt beam="1">  1       21 0.10333503E-01 0.46570330E+03</pdfrwt>
<pdfrwt beam="2">  1       21 0.11347319E+00 0.46570330E+03</pdfrwt>
<totfact> 0.42151953E+04</totfact>
</mgrwt>
</event>
<event>
 7    0  0.4732500E-002  0.4281962E+03  0.7546771E-02  0.1034431E+00
         21   -1    0    0  502  501  0.00000000000E+00  0.00000000000E+00  0.58171372607E+02  0.58171372607E+02  0.00000000000E+00 0.  1.
         21   -1    0    0  501  502 -0.00000000000E+00 -0.00000000000E+00 -0.78798201985E+03  0.78798201985E+03  0.00000000000E+00 0.  1.
      99926    2    1    2    0    0  0.00000000000E+00 -0.17763568394E-14 -0.72981064725E+03  0.84615339246E+03  0.42819619655E+03 0.  0.
      99925    2    3    3    0    0  0.67999106932E+02 -0.13836035293E+02 -0.57076200460E+03  0.63223917310E+03  0.26294826809E+03 0.  0.
         25    1    4    4    0    0  0.39687478195E+02  0.32695943845E+02 -0.29821479626E+03  0.32745029161E+03  0.12509000000E+03 0.  0.
         25    1    4    4    0    0  0.28311628738E+02 -0.46531979138E+02 -0.27254720834E+03  0.30478888149E+03  0.12509000000E+03 0.  0.
         25    1    3    3    0    0 -0.67999106932E+02  0.13836035293E+02 -0.15904864265E+03  0.21391421936E+03  0.12509000000E+03 0.  0.
<mgrwt>
<rscale>  2 0.42819620E+03</rscale>
<asrwt>0</asrwt>
<pdfrwt beam="1">  1       21 0.85546137E-02 0.42819620E+03</pdfrwt>
<pdfrwt beam="2">  1       21 0.11587971E+00 0.42819620E+03</pdfrwt>
<totfact> 0.56606258E+04</totfact>
</mgrwt>
</event>
<event>
 7    0  0.4732500E-002  0.4278593E+03  0.7546771E-02  0.1034538E+00
         21   -1    0    0  502  501  0.00000000000E+00  0.00000000000E+00  0.53056090448E+02  0.53056090448E+02  0.00000000000E+00 0. -1.
         21   -1    0    0  501  502 -0.00000000000E+00 -0.00000000000E+00 -0.86259475422E+03  0.86259475422E+03  0.00000000000E+00 0. -1.
      99926    2    1    2    0    0  0.00000000000E+00  0.00000000000E+00 -0.80953866377E+03  0.91565084466E+03  0.42785934745E+03 0.  0.
      99925    2    3    3    0    0 -0.68056717504E+02  0.41734599069E+02 -0.45858386567E+03  0.53461243195E+03  0.26294067198E+03 0.  0.
         25    1    3    3    0    0  0.68056717504E+02 -0.41734599069E+02 -0.35095479810E+03  0.38103841271E+03  0.12509000000E+03 0.  0.
         25    1    4    4    0    0  0.59320242428E+01  0.14544758450E+02 -0.23230785089E+03  0.26431266446E+03  0.12509000000E+03 0.  0.
         25    1    4    4    0    0 -0.73988741747E+02  0.27189840620E+02 -0.22627601478E+03  0.27029976749E+03  0.12509000000E+03 0.  0.
<mgrwt>
<rscale>  2 0.42785935E+03</rscale>
<asrwt>0</asrwt>
<pdfrwt beam="1">  1       21 0.78023668E-02 0.42785935E+03</pdfrwt>
<pdfrwt beam="2">  1       21 0.12685216E+00 0.42785935E+03</pdfrwt>
<totfact> 0.52941797E+04</totfact>
</mgrwt>
</event>
<event>
 7    0  0.4732500E-002  0.4624392E+03  0.7546771E-02  0.1024076E+00
         21   -1    0    0  502  501  0.00000000000E+00  0.00000000000E+00  0.17761798357E+03  0.17761798357E+03  0.00000000000E+00 0. -1.
         21   -1    0    0  501  502 -0.00000000000E+00 -0.00000000000E+00 -0.30099706620E+03  0.30099706620E+03  0.00000000000E+00 0. -1.
      99926    2    1    2    0    0  0.00000000000E+00  0.14210854715E-13 -0.12337908263E+03  0.47861504977E+03  0.46243915041E+03 0.  0.
      99925    2    3    3    0    0  0.60079203842E+02 -0.82037722516E+02 -0.11352197866E+02  0.28230603403E+03  0.26311238246E+03 0.  0.
         25    1    4    4    0    0  0.30152983277E+02 -0.80311913210E+02  0.95828190038E+01  0.15198205264E+03  0.12509000000E+03 0.  0.
         25    1    4    4    0    0  0.29926220565E+02 -0.17258093063E+01 -0.20935016870E+02  0.13032398139E+03  0.12509000000E+03 0.  0.
         25    1    3    3    0    0 -0.60079203842E+02  0.82037722516E+02 -0.11202688476E+03  0.19630901573E+03  0.12509000000E+03 0.  0.
<mgrwt>
<rscale>  2 0.46243915E+03</rscale>
<asrwt>0</asrwt>
<pdfrwt beam="1">  1       21 0.26120292E-01 0.46243915E+03</pdfrwt>
<pdfrwt beam="2">  1       21 0.44264274E-01 0.46243915E+03</pdfrwt>
<totfact> 0.62999100E+04</totfact>
</mgrwt>
</event>
<event>
 7    0  0.4732500E-002  0.4280477E+03  0.7546771E-02  0.1034478E+00
         21   -1    0    0  502  501  0.00000000000E+00  0.00000000000E+00  0.23401165948E+03  0.23401165948E+03  0.00000000000E+00 0.  1.
         21   -1    0    0  501  502 -0.00000000000E+00 -0.00000000000E+00 -0.19574330191E+03  0.19574330191E+03  0.00000000000E+00 0.  1.
      99926    2    1    2    0    0  0.00000000000E+00  0.35527136788E-14  0.38268357570E+02  0.42975496140E+03  0.42804773058E+03 0.  0.
      99925    2    3    3    0    0  0.77045881877E+02 -0.72549358276E+01 -0.10763411979E+02  0.27470553530E+03  0.26336016798E+03 0.  0.
         25    1    3    3    0    0 -0.77045881877E+02  0.72549358276E+01  0.49031769550E+02  0.15504942610E+03  0.12509000000E+03 0.  0.
         25    1    4    4    0    0  0.55296526085E+02 -0.38649745454E+02 -0.20309549020E+02  0.14356703836E+03  0.12509000000E+03 0.  0.
         25    1    4    4    0    0  0.21749355792E+02  0.31394809627E+02  0.95461370412E+01  0.13113849695E+03  0.12509000000E+03 0.  0.
<mgrwt>
<rscale>  2 0.42804773E+03</rscale>
<asrwt>0</asrwt>
<pdfrwt beam="1">  1       21 0.34413479E-01 0.42804773E+03</pdfrwt>
<pdfrwt beam="2">  1       21 0.28785780E-01 0.42804773E+03</pdfrwt>
<totfact> 0.87864433E+04</totfact>
</mgrwt>
</event>
<event>
 7    0  0.4732500E-002  0.4566280E+03  0.7546771E-02  0.1025764E+00
         21   -1    0    0  502  501  0.00000000000E+00  0.00000000000E+00  0.71756697956E+03  0.71756697956E+03  0.00000000000E+00 0.  1.
         21   -1    0    0  501  502 -0.00000000000E+00 -0.00000000000E+00 -0.72644498935E+02  0.72644498935E+02  0.00000000000E+00 0.  1.
      99926    2    1    2    0    0  0.00000000000E+00  0.00000000000E+00  0.64492248063E+03  0.79021147850E+03  0.45662804856E+03 0.  0.
      99925    2    3    3    0    0 -0.65157493664E+02 -0.82200130474E+02  0.48543507692E+03  0.56198768379E+03  0.26302201884E+03 0.  0.
         25    1    3    3    0    0  0.65157493664E+02  0.82200130474E+02  0.15948740371E+03  0.22822379471E+03  0.12509000000E+03 0.  0.
         25    1    4    4    0    0  0.85118893197E+01 -0.31074955689E+02  0.22827750418E+03  0.26229035847E+03  0.12509000000E+03 0.  0.
         25    1    4    4    0    0 -0.73669382984E+02 -0.51125174785E+02  0.25715757274E+03  0.29969732532E+03  0.12509000000E+03 0.  0.
<mgrwt>
<rscale>  2 0.45662805E+03</rscale>
<asrwt>0</asrwt>
<pdfrwt beam="1">  1       21 0.10552455E+00 0.45662805E+03</pdfrwt>
<pdfrwt beam="2">  1       21 0.10683015E-01 0.45662805E+03</pdfrwt>
<totfact> 0.47630409E+04</totfact>
</mgrwt>
</event>
<event>
 7    0  0.4732500E-002  0.4520804E+03  0.7546771E-02  0.1027103E+00
         21   -1    0    0  502  501  0.00000000000E+00  0.00000000000E+00  0.76050606125E+03  0.76050606125E+03  0.00000000000E+00 0. -1.
         21   -1    0    0  501  502 -0.00000000000E+00 -0.00000000000E+00 -0.67184427692E+02  0.67184427692E+02  0.00000000000E+00 0. -1.
      99926    2    1    2    0    0  0.00000000000E+00  0.00000000000E+00  0.69332163356E+03  0.82769048894E+03  0.45208036667E+03 0.  0.
      99925    2    3    3    0    0  0.77335206423E+02  0.74854110493E+02  0.48322463244E+03  0.56053486016E+03  0.26288669051E+03 0.  0.
         25    1    4    4    0    0  0.38609321399E+02  0.57671509711E+02  0.18094249506E+03  0.23066074080E+03  0.12509000000E+03 0.  0.
         25    1    3    3    0    0 -0.77335206423E+02 -0.74854110493E+02  0.21009700111E+03  0.26715562878E+03  0.12509000000E+03 0.  0.
         25    1    4    4    0    0  0.38725885025E+02  0.17182600782E+02  0.30228213739E+03  0.32987411936E+03  0.12509000000E+03 0.  0.
<mgrwt>
<rscale>  2 0.45208037E+03</rscale>
<asrwt>0</asrwt>
<pdfrwt beam="1">  1       21 0.11183912E+00 0.45208037E+03</pdfrwt>
<pdfrwt beam="2">  1       21 0.98800633E-02 0.45208037E+03</pdfrwt>
<totfact> 0.47534034E+04</totfact>
</mgrwt>
</event>
<event>
 7    0  0.4732500E-002  0.4623173E+03  0.7546771E-02  0.1024111E+00
         21   -1    0    0  502  501  0.00000000000E+00  0.00000000000E+00  0.57385635181E+03  0.57385635181E+03  0.00000000000E+00 0.  1.
         21   -1    0    0  501  502 -0.00000000000E+00 -0.00000000000E+00 -0.93114458616E+02  0.93114458616E+02  0.00000000000E+00 0.  1.
      99926    2    1    2    0    0  0.00000000000E+00  0.00000000000E+00  0.48074189319E+03  0.66697081042E+03  0.46231730888E+03 0.  0.
      99925    2    3    3    0    0  0.31563130326E+02 -0.10459929623E+03  0.37179722598E+03  0.46834127440E+03  0.26300784796E+03 0.  0.
         25    1    4    4    0    0 -0.53949187402E+01 -0.67663109526E+02  0.24147447460E+03  0.28029418746E+03  0.12509000000E+03 0.  0.
         25    1    3    3    0    0 -0.31563130326E+02  0.10459929623E+03  0.10894466721E+03  0.19862953603E+03  0.12509000000E+03 0.  0.
         25    1    4    4    0    0  0.36958049066E+02 -0.36936186707E+02  0.13032275137E+03  0.18804708694E+03  0.12509000000E+03 0.  0.
<mgrwt>
<rscale>  2 0.46231731E+03</rscale>
<asrwt>0</asrwt>
<pdfrwt beam="1">  1       21 0.84390639E-01 0.46231731E+03</pdfrwt>
<pdfrwt beam="2">  1       21 0.13693303E-01 0.46231731E+03</pdfrwt>
<totfact> 0.51686055E+04</totfact>
</mgrwt>
</event>
<event>
 7    0  0.4732500E-002  0.4570937E+03  0.7546771E-02  0.1025627E+00
         21   -1    0    0  502  501  0.00000000000E+00  0.00000000000E+00  0.19868397222E+03  0.19868397222E+03  0.00000000000E+00 0.  1.
         21   -1    0    0  501  502 -0.00000000000E+00 -0.00000000000E+00 -0.26289827742E+03  0.26289827742E+03  0.00000000000E+00 0.  1.
      99926    2    1    2    0    0  0.00000000000E+00  0.14210854715E-13 -0.64214305192E+02  0.46158224964E+03  0.45709374989E+03 0.  0.
      99925    2    3    3    0    0  0.16565745730E+02  0.10394136897E+03 -0.87434782759E+02  0.29646129157E+03  0.26299472247E+03 0.  0.
         25    1    4    4    0    0  0.14875330509E+02  0.36817574579E+02 -0.29933817837E+01  0.13127557918E+03  0.12509000000E+03 0.  0.
         25    1    4    4    0    0  0.16904152204E+01  0.67123794395E+02 -0.84441400975E+02  0.16518571239E+03  0.12509000000E+03 0.  0.
         25    1    3    3    0    0 -0.16565745730E+02 -0.10394136897E+03  0.23220477567E+02  0.16512095807E+03  0.12509000000E+03 0.  0.
<mgrwt>
<rscale>  2 0.45709375E+03</rscale>
<asrwt>0</asrwt>
<pdfrwt beam="1">  1       21 0.29218231E-01 0.45709375E+03</pdfrwt>
<pdfrwt beam="2">  1       21 0.38661511E-01 0.45709375E+03</pdfrwt>
<totfact> 0.66940698E+04</totfact>
</mgrwt>
</event>
<event>
 7    0  0.4732500E-002  0.4116051E+03  0.7546771E-02  0.1039834E+00
         21   -1    0    0  502  501  0.00000000000E+00  0.00000000000E+00  0.25833816697E+02  0.25833816697E+02  0.00000000000E+00 0.  1.
         21   -1    0    0  501  502 -0.00000000000E+00 -0.00000000000E+00 -0.16395055990E+04  0.16395055990E+04  0.00000000000E+00 0.  1.
      99926    2    1    2    0    0  0.00000000000E+00  0.17763568394E-14 -0.16136717823E+04  0.16653394157E+04  0.41160508801E+03 0.  0.
      99925    2    3    3    0    0  0.45858462887E+02  0.10488306695E+02 -0.12412228314E+04  0.12696391095E+04  0.26293791661E+03 0.  0.
         25    1    4    4    0    0  0.52551115551E+01 -0.20203260043E+02 -0.72698685814E+03  0.73796557367E+03  0.12509000000E+03 0.  0.
         25    1    3    3    0    0 -0.45858462887E+02 -0.10488306695E+02 -0.37244895091E+03  0.39570030620E+03  0.12509000000E+03 0.  0.
         25    1    4    4    0    0  0.40603351332E+02  0.30691566738E+02 -0.51423597327E+03  0.53167353584E+03  0.12509000000E+03 0.  0.
<mgrwt>
<rscale>  2 0.41160509E+03</rscale>
<asrwt>0</asrwt>
<pdfrwt beam="1">  1       21 0.37990902E-02 0.41160509E+03</pdfrwt>
<pdfrwt beam="2">  1       21 0.24110380E+00 0.41160509E+03</pdfrwt>
<totfact> 0.28431495E+04</totfact>
</mgrwt>
</event>
<event>
 7    0  0.4732500E-002  0.4552540E+03  0.7546771E-02  0.1026167E+00
         21   -1    0    0  502  501  0.00000000000E+00  0.00000000000E+00  0.24528021944E+02  0.24528021944E+02  0.00000000000E+00 0. -1.
         21   -1    0    0  501  502 -0.00000000000E+00 -0.00000000000E+00 -0.21124428342E+04  0.21124428342E+04  0.00000000000E+00 0. -1.
      99926    2    1    2    0    0  0.00000000000E+00  0.00000000000E+00 -0.20879148123E+04  0.21369708562E+04  0.45525396954E+03 0.  0.
      99925    2    3    3    0    0 -0.72271187267E+02 -0.49159837916E+02 -0.16524110778E+04  0.16755049040E+04  0.26308648595E+03 0.  0.
         25    1    4    4    0    0 -0.67778456292E+02 -0.43170795872E+02 -0.76788411537E+03  0.78214522915E+03  0.12509000000E+03 0.  0.
         25    1    4    4    0    0 -0.44927309750E+01 -0.59890420446E+01 -0.88452696245E+03  0.89335967485E+03  0.12509000000E+03 0.  0.
         25    1    3    3    0    0  0.72271187267E+02  0.49159837916E+02 -0.43550373447E+03  0.46146595217E+03  0.12509000000E+03 0.  0.
<mgrwt>
<rscale>  2 0.45525397E+03</rscale>
<asrwt>0</asrwt>
<pdfrwt beam="1">  1       21 0.36070606E-02 0.45525397E+03</pdfrwt>
<pdfrwt beam="2">  1       21 0.31065348E+00 0.45525397E+03</pdfrwt>
<totfact> 0.11576798E+04</totfact>
</mgrwt>
</event>
<event>
 7    0  0.4732500E-002  0.4512137E+03  0.7546771E-02  0.1027361E+00
         21   -1    0    0  502  501  0.00000000000E+00  0.00000000000E+00  0.16580285125E+04  0.16580285125E+04  0.00000000000E+00 0. -1.
         21   -1    0    0  501  502 -0.00000000000E+00 -0.00000000000E+00 -0.30698182209E+02  0.30698182209E+02  0.00000000000E+00 0. -1.
      99926    2    1    2    0    0  0.00000000000E+00  0.00000000000E+00  0.16273303303E+04  0.16887266947E+04  0.45121374706E+03 0.  0.
      99925    2    3    3    0    0 -0.10024536203E+03 -0.68125907439E+01  0.86328992637E+03  0.90802137840E+03  0.26294064471E+03 0.  0.
         25    1    4    4    0    0 -0.19179954875E+02 -0.32128596636E+01  0.48913061487E+03  0.50524692937E+03  0.12509000000E+03 0.  0.
         25    1    4    4    0    0 -0.81065407159E+02 -0.35997310802E+01  0.37415931151E+03  0.40277444903E+03  0.12509000000E+03 0.  0.
         25    1    3    3    0    0  0.10024536203E+03  0.68125907439E+01  0.76404040391E+03  0.78070531630E+03  0.12509000000E+03 0.  0.
<mgrwt>
<rscale>  2 0.45121375E+03</rscale>
<asrwt>0</asrwt>
<pdfrwt beam="1">  1       21 0.24382766E+00 0.45121375E+03</pdfrwt>
<pdfrwt beam="2">  1       21 0.45144397E-02 0.45121375E+03</pdfrwt>
<totfact> 0.20081029E+04</totfact>
</mgrwt>
</event>
<event>
 7    0  0.4732500E-002  0.4524862E+03  0.7546771E-02  0.1026983E+00
         21   -1    0    0  502  501  0.00000000000E+00  0.00000000000E+00  0.19600163045E+03  0.19600163045E+03  0.00000000000E+00 0. -1.
         21   -1    0    0  501  502 -0.00000000000E+00 -0.00000000000E+00 -0.26115060484E+03  0.26115060484E+03  0.00000000000E+00 0. -1.
      99926    2    1    2    0    0  0.17763568394E-14  0.00000000000E+00 -0.65148974388E+02  0.45715223528E+03  0.45248621787E+03 0.  0.
      99925    2    3    3    0    0 -0.92299434438E+01 -0.77759543465E+02 -0.12030606676E+03  0.29960366692E+03  0.26297731666E+03 0.  0.
         25    1    4    4    0    0 -0.22917078302E+02 -0.31699840979E+02 -0.98247101072E+02  0.16379888084E+03  0.12509000000E+03 0.  0.
         25    1    4    4    0    0  0.13687134858E+02 -0.46059702486E+02 -0.22058965685E+02  0.13580478607E+03  0.12509000000E+03 0.  0.
         25    1    3    3    0    0  0.92299434438E+01  0.77759543465E+02  0.55157092368E+02  0.15754856837E+03  0.12509000000E+03 0.  0.
<mgrwt>
<rscale>  2 0.45248622E+03</rscale>
<asrwt>0</asrwt>
<pdfrwt beam="1">  1       21 0.28823769E-01 0.45248622E+03</pdfrwt>
<pdfrwt beam="2">  1       21 0.38404501E-01 0.45248622E+03</pdfrwt>
<totfact> 0.69776952E+04</totfact>
</mgrwt>
</event>
<event>
 7    0  0.4732500E-002  0.4508124E+03  0.7546771E-02  0.1027480E+00
         21   -1    0    0  502  501  0.00000000000E+00  0.00000000000E+00  0.81567825780E+02  0.81567825780E+02  0.00000000000E+00 0.  1.
         21   -1    0    0  501  502 -0.00000000000E+00 -0.00000000000E+00 -0.62289198591E+03  0.62289198591E+03  0.00000000000E+00 0.  1.
      99926    2    1    2    0    0  0.14210854715E-13  0.00000000000E+00 -0.54132416013E+03  0.70445981169E+03  0.45081235558E+03 0.  0.
      99925    2    3    3    0    0 -0.96492719634E+02  0.21665355556E+02 -0.41425895905E+03  0.50056448070E+03  0.26300966068E+03 0.  0.
         25    1    4    4    0    0 -0.11691291941E+02  0.13111091449E+02 -0.15076718565E+03  0.19668970333E+03  0.12509000000E+03 0.  0.
         25    1    4    4    0    0 -0.84801427693E+02  0.85542641078E+01 -0.26349177340E+03  0.30387477737E+03  0.12509000000E+03 0.  0.
         25    1    3    3    0    0  0.96492719634E+02 -0.21665355556E+02 -0.12706520108E+03  0.20389533099E+03  0.12509000000E+03 0.  0.
<mgrwt>
<rscale>  2 0.45081236E+03</rscale>
<asrwt>0</asrwt>
<pdfrwt beam="1">  1       21 0.11995269E-01 0.45081236E+03</pdfrwt>
<pdfrwt beam="2">  1       21 0.91601761E-01 0.45081236E+03</pdfrwt>
<totfact> 0.54433087E+04</totfact>
</mgrwt>
</event>
<event>
 7    0  0.4732500E-002  0.4493889E+03  0.7546771E-02  0.1027904E+00
         21   -1    0    0  502  501  0.00000000000E+00  0.00000000000E+00  0.10644398482E+04  0.10644398482E+04  0.00000000000E+00 0. -1.
         21   -1    0    0  501  502 -0.00000000000E+00 -0.00000000000E+00 -0.47431144792E+02  0.47431144792E+02  0.00000000000E+00 0. -1.
      99926    2    1    2    0    0  0.00000000000E+00  0.00000000000E+00  0.10170087034E+04  0.11118709930E+04  0.44938892093E+03 0.  0.
      99925    2    3    3    0    0 -0.55832554351E+02  0.54145683537E+02  0.82778655362E+03  0.87207616562E+03  0.26312968495E+03 0.  0.
         25    1    3    3    0    0  0.55832554351E+02 -0.54145683537E+02  0.18922214982E+03  0.23979482741E+03  0.12509000000E+03 0.  0.
         25    1    4    4    0    0 -0.59645839249E+02  0.52441369365E+02  0.41048581155E+03  0.43641016595E+03  0.12509000000E+03 0.  0.
         25    1    4    4    0    0  0.38132848977E+01  0.17043141715E+01  0.41730074207E+03  0.43566599966E+03  0.12509000000E+03 0.  0.
<mgrwt>
<rscale>  2 0.44938892E+03</rscale>
<asrwt>0</asrwt>
<pdfrwt beam="1">  1       21 0.15653526E+00 0.44938892E+03</pdfrwt>
<pdfrwt beam="2">  1       21 0.69751690E-02 0.44938892E+03</pdfrwt>
<totfact> 0.36658869E+04</totfact>
</mgrwt>
</event>
<event>
 7    0  0.4732500E-002  0.4613866E+03  0.7546771E-02  0.1024380E+00
         21   -1    0    0  502  501  0.00000000000E+00  0.00000000000E+00  0.25342645003E+03  0.25342645003E+03  0.00000000000E+00 0.  1.
         21   -1    0    0  501  502 -0.00000000000E+00 -0.00000000000E+00 -0.20999935270E+03  0.20999935270E+03  0.00000000000E+00 0.  1.
      99926    2    1    2    0    0 -0.14210854715E-13  0.00000000000E+00  0.43427097333E+02  0.46342580273E+03  0.46138656444E+03 0.  0.
      99925    2    3    3    0    0  0.78933782612E+02  0.72913363183E+02 -0.23637926851E+02  0.28540297796E+03  0.26334237729E+03 0.  0.
         25    1    3    3    0    0 -0.78933782612E+02 -0.72913363183E+02  0.67065024184E+02  0.17802282476E+03  0.12509000000E+03 0.  0.
         25    1    4    4    0    0  0.23999171566E+02  0.69022332303E+01  0.16054495622E+02  0.12856459851E+03  0.12509000000E+03 0.  0.
         25    1    4    4    0    0  0.54934611046E+02  0.66011129952E+02 -0.39692422473E+02  0.15683837946E+03  0.12509000000E+03 0.  0.
<mgrwt>
<rscale>  2 0.46138656E+03</rscale>
<asrwt>0</asrwt>
<pdfrwt beam="1">  1       21 0.37268596E-01 0.46138656E+03</pdfrwt>
<pdfrwt beam="2">  1       21 0.30882257E-01 0.46138656E+03</pdfrwt>
<totfact> 0.64578939E+04</totfact>
</mgrwt>
</event>
<event>
 7    0  0.4732500E-002  0.4484118E+03  0.7546771E-02  0.1028197E+00
         21   -1    0    0  502  501  0.00000000000E+00  0.00000000000E+00  0.61883561354E+02  0.61883561354E+02  0.00000000000E+00 0. -1.
         21   -1    0    0  501  502 -0.00000000000E+00 -0.00000000000E+00 -0.81230417960E+03  0.81230417960E+03  0.00000000000E+00 0. -1.
      99926    2    1    2    0    0  0.71054273576E-14 -0.14210854715E-13 -0.75042061825E+03  0.87418774096E+03  0.44841175514E+03 0.  0.
      99925    2    3    3    0    0 -0.46133403750E+02  0.67853814753E+02 -0.34164126409E+03  0.43889416231E+03  0.26301502100E+03 0.  0.
         25    1    4    4    0    0 -0.63723988787E+02  0.33088376290E+02 -0.16937215707E+03  0.22246353203E+03  0.12509000000E+03 0.  0.
         25    1    3    3    0    0  0.46133403750E+02 -0.67853814753E+02 -0.40877935416E+03  0.43529357864E+03  0.12509000000E+03 0.  0.
         25    1    4    4    0    0  0.17590585037E+02  0.34765438463E+02 -0.17226910701E+03  0.21643063028E+03  0.12509000000E+03 0.  0.
<mgrwt>
<rscale>  2 0.44841176E+03</rscale>
<asrwt>0</asrwt>
<pdfrwt beam="1">  1       21 0.91005243E-02 0.44841176E+03</pdfrwt>
<pdfrwt beam="2">  1       21 0.11945649E+00 0.44841176E+03</pdfrwt>
<totfact> 0.46733929E+04</totfact>
</mgrwt>
</event>
<event>
 7    0  0.4732500E-002  0.4691728E+03  0.7546771E-02  0.1022154E+00
         21   -1    0    0  502  501  0.00000000000E+00  0.00000000000E+00  0.11945579796E+03  0.11945579796E+03  0.00000000000E+00 0.  1.
         21   -1    0    0  501  502 -0.00000000000E+00 -0.00000000000E+00 -0.46067904832E+03  0.46067904832E+03  0.00000000000E+00 0.  1.
      99926    2    1    2    0    0  0.35527136788E-14  0.00000000000E+00 -0.34122325035E+03  0.58013484628E+03  0.46917281815E+03 0.  0.
      99925    2    3    3    0    0  0.17149261961E+02 -0.11183276107E+03 -0.14336378225E+03  0.32014149857E+03  0.26293866474E+03 0.  0.
         25    1    3    3    0    0 -0.17149261961E+02  0.11183276107E+03 -0.19785946810E+03  0.25999334771E+03  0.12509000000E+03 0.  0.
         25    1    4    4    0    0  0.40796684875E+02 -0.83463186528E+02 -0.78969245311E+02  0.17468292077E+03  0.12509000000E+03 0.  0.
         25    1    4    4    0    0 -0.23647422913E+02 -0.28369574545E+02 -0.64394536941E+02  0.14545857781E+03  0.12509000000E+03 0.  0.
<mgrwt>
<rscale>  2 0.46917282E+03</rscale>
<asrwt>0</asrwt>
<pdfrwt beam="1">  1       21 0.17567029E-01 0.46917282E+03</pdfrwt>
<pdfrwt beam="2">  1       21 0.67746918E-01 0.46917282E+03</pdfrwt>
<totfact> 0.53649026E+04</totfact>
</mgrwt>
</event>
<event>
 7    0  0.4732500E-002  0.4426133E+03  0.7546771E-02  0.1029948E+00
         21   -1    0    0  502  501  0.00000000000E+00  0.00000000000E+00  0.57053663128E+03  0.57053663128E+03  0.00000000000E+00 0. -1.
         21   -1    0    0  501  502 -0.00000000000E+00 -0.00000000000E+00 -0.85843092407E+02  0.85843092407E+02  0.00000000000E+00 0. -1.
      99926    2    1    2    0    0 -0.17763568394E-14 -0.17763568394E-14  0.48469353888E+03  0.65637972369E+03  0.44261327933E+03 0.  0.
      99925    2    3    3    0    0  0.14071769263E+02  0.13651088915E+02  0.45567042024E+03  0.52647892910E+03  0.26298320097E+03 0.  0.
         25    1    4    4    0    0  0.37038527402E+02  0.19992528781E+02  0.27961871550E+03  0.30920169449E+03  0.12509000000E+03 0.  0.
         25    1    4    4    0    0 -0.22966758140E+02 -0.63414398659E+01  0.17605170474E+03  0.21727723461E+03  0.12509000000E+03 0.  0.
         25    1    3    3    0    0 -0.14071769263E+02 -0.13651088915E+02  0.29023118639E+02  0.12990079459E+03  0.12509000000E+03 0.  0.
<mgrwt>
<rscale>  2 0.44261328E+03</rscale>
<asrwt>0</asrwt>
<pdfrwt beam="1">  1       21 0.83902444E-01 0.44261328E+03</pdfrwt>
<pdfrwt beam="2">  1       21 0.12623984E-01 0.44261328E+03</pdfrwt>
<totfact> 0.61085461E+04</totfact>
</mgrwt>
</event>
<event>
 7    0  0.4732500E-002  0.5079538E+03  0.7546771E-02  0.1011723E+00
         21   -1    0    0  502  501  0.00000000000E+00  0.00000000000E+00  0.10801745155E+03  0.10801745155E+03  0.00000000000E+00 0. -1.
         21   -1    0    0  501  502 -0.00000000000E+00 -0.00000000000E+00 -0.59716526516E+03  0.59716526516E+03  0.00000000000E+00 0. -1.
      99926    2    1    2    0    0  0.00000000000E+00  0.00000000000E+00 -0.48914781362E+03  0.70518271671E+03  0.50795381717E+03 0.  0.
      99925    2    3    3    0    0  0.23079308400E+02  0.13606730892E+03 -0.18947886366E+03  0.35234287387E+03  0.26305188453E+03 0.  0.
         25    1    4    4    0    0 -0.40644809538E+01  0.60918010642E+02 -0.47866065804E+02  0.14719440336E+03  0.12509000000E+03 0.  0.
         25    1    3    3    0    0 -0.23079308400E+02 -0.13606730892E+03 -0.29966894995E+03  0.35283984284E+03  0.12509000000E+03 0.  0.
         25    1    4    4    0    0  0.27143789354E+02  0.75149298278E+02 -0.14161279786E+03  0.20514847050E+03  0.12509000000E+03 0.  0.
<mgrwt>
<rscale>  2 0.50795382E+03</rscale>
<asrwt>0</asrwt>
<pdfrwt beam="1">  1       21 0.15884920E-01 0.50795382E+03</pdfrwt>
<pdfrwt beam="2">  1       21 0.87818417E-01 0.50795382E+03</pdfrwt>
<totfact> 0.35387881E+04</totfact>
</mgrwt>
</event>
<event>
 7    0  0.4732500E-002  0.4559531E+03  0.7546771E-02  0.1025962E+00
         21   -1    0    0  502  501  0.00000000000E+00  0.00000000000E+00  0.42643566777E+03  0.42643566777E+03  0.00000000000E+00 0.  1.
         21   -1    0    0  501  502 -0.00000000000E+00 -0.00000000000E+00 -0.12187841858E+03  0.12187841858E+03  0.00000000000E+00 0.  1.
      99926    2    1    2    0    0  0.00000000000E+00  0.00000000000E+00  0.30455724920E+03  0.54831408635E+03  0.45595308887E+03 0.  0.
      99925    2    3    3    0    0  0.92231439331E+02 -0.58650011289E+02  0.15220754625E+03  0.32291576712E+03  0.26298477768E+03 0.  0.
         25    1    4    4    0    0  0.23901414211E+02  0.47761214073E+01  0.52938270462E+02  0.13800020839E+03  0.12509000000E+03 0.  0.
         25    1    4    4    0    0  0.68330025120E+02 -0.63426132697E+02  0.99269275791E+02  0.18491555872E+03  0.12509000000E+03 0.  0.
         25    1    3    3    0    0 -0.92231439331E+02  0.58650011289E+02  0.15234970294E+03  0.22539831923E+03  0.12509000000E+03 0.  0.
<mgrwt>
<rscale>  2 0.45595309E+03</rscale>
<asrwt>0</asrwt>
<pdfrwt beam="1">  1       21 0.62711127E-01 0.45595309E+03</pdfrwt>
<pdfrwt beam="2">  1       21 0.17923297E-01 0.45595309E+03</pdfrwt>
<totfact> 0.61512868E+04</totfact>
</mgrwt>
</event>
<event>
 7    0  0.4732500E-002  0.4512070E+03  0.7546771E-02  0.1027363E+00
         21   -1    0    0  502  501  0.00000000000E+00  0.00000000000E+00  0.31730420753E+03  0.31730420753E+03  0.00000000000E+00 0.  1.
         21   -1    0    0  501  502 -0.00000000000E+00 -0.00000000000E+00 -0.16040426663E+03  0.16040426663E+03  0.00000000000E+00 0.  1.
      99926    2    1    2    0    0  0.00000000000E+00  0.00000000000E+00  0.15689994091E+03  0.47770847416E+03  0.45120704208E+03 0.  0.
      99925    2    3    3    0    0 -0.25419450655E+02  0.76084119755E+02  0.20151907360E+02  0.27576176205E+03  0.26306559694E+03 0.  0.
         25    1    4    4    0    0 -0.43936484185E+01  0.32677768920E+02 -0.29698305052E+02  0.13272768419E+03  0.12509000000E+03 0.  0.
         25    1    4    4    0    0 -0.21025802237E+02  0.43406350835E+02  0.49850212412E+02  0.14303407786E+03  0.12509000000E+03 0.  0.
         25    1    3    3    0    0  0.25419450655E+02 -0.76084119755E+02  0.13674803355E+03  0.20194671210E+03  0.12509000000E+03 0.  0.
<mgrwt>
<rscale>  2 0.45120704E+03</rscale>
<asrwt>0</asrwt>
<pdfrwt beam="1">  1       21 0.46662384E-01 0.45120704E+03</pdfrwt>
<pdfrwt beam="2">  1       21 0.23588863E-01 0.45120704E+03</pdfrwt>
<totfact> 0.68918920E+04</totfact>
</mgrwt>
</event>
<event>
 7    0  0.4732500E-002  0.4534080E+03  0.7546771E-02  0.1026711E+00
         21   -1    0    0  502  501  0.00000000000E+00  0.00000000000E+00  0.34527968202E+03  0.34527968202E+03  0.00000000000E+00 0. -1.
         21   -1    0    0  501  502 -0.00000000000E+00 -0.00000000000E+00 -0.14884950318E+03  0.14884950318E+03  0.00000000000E+00 0. -1.
      99926    2    1    2    0    0 -0.22204460493E-14  0.00000000000E+00  0.19643017884E+03  0.49412918521E+03  0.45340802431E+03 0.  0.
      99925    2    3    3    0    0  0.66840354514E+00 -0.11046381693E+03  0.10595616956E+03  0.30429832347E+03  0.26299820947E+03 0.  0.
         25    1    4    4    0    0 -0.26783767870E+02 -0.31922663071E+02  0.72191462988E+02  0.15031813619E+03  0.12509000000E+03 0.  0.
         25    1    3    3    0    0 -0.66840354514E+00  0.11046381693E+03  0.90474009279E+02  0.18983086174E+03  0.12509000000E+03 0.  0.
         25    1    4    4    0    0  0.27452171416E+02 -0.78541153856E+02  0.33764706572E+02  0.15398018728E+03  0.12509000000E+03 0.  0.
<mgrwt>
<rscale>  2 0.45340802E+03</rscale>
<asrwt>0</asrwt>
<pdfrwt beam="1">  1       21 0.50776424E-01 0.45340802E+03</pdfrwt>
<pdfrwt beam="2">  1       21 0.21889633E-01 0.45340802E+03</pdfrwt>
<totfact> 0.66521831E+04</totfact>
</mgrwt>
</event>
<event>
 7    0  0.4732500E-002  0.4534473E+03  0.7546771E-02  0.1026699E+00
         21   -1    0    0  502  501  0.00000000000E+00  0.00000000000E+00  0.10376664929E+03  0.10376664929E+03  0.00000000000E+00 0. -1.
         21   -1    0    0  501  502 -0.00000000000E+00 -0.00000000000E+00 -0.49537703863E+03  0.49537703863E+03  0.00000000000E+00 0. -1.
      99926    2    1    2    0    0  0.35527136788E-14  0.17763568394E-14 -0.39161038934E+03  0.59914368793E+03  0.45344730867E+03 0.  0.
      99925    2    3    3    0    0  0.29011990285E+02  0.11391162190E+02 -0.38851440602E+03  0.47019196297E+03  0.26299350600E+03 0.  0.
         25    1    4    4    0    0 -0.11809346729E+02  0.94172501397E+01 -0.13568633951E+03  0.18516596907E+03  0.12509000000E+03 0.  0.
         25    1    3    3    0    0 -0.29011990285E+02 -0.11391162190E+02 -0.30959833151E+01  0.12895172496E+03  0.12509000000E+03 0.  0.
         25    1    4    4    0    0  0.40821337014E+02  0.19739120501E+01 -0.25282806651E+03  0.28502599391E+03  0.12509000000E+03 0.  0.
<mgrwt>
<rscale>  2 0.45344731E+03</rscale>
<asrwt>0</asrwt>
<pdfrwt beam="1">  1       21 0.15259802E-01 0.45344731E+03</pdfrwt>
<pdfrwt beam="2">  1       21 0.72849562E-01 0.45344731E+03</pdfrwt>
<totfact> 0.59457102E+04</totfact>
</mgrwt>
</event>
<event>
 7    0  0.4732500E-002  0.4722476E+03  0.7546771E-02  0.1021288E+00
         21   -1    0    0  502  501  0.00000000000E+00  0.00000000000E+00  0.40013634496E+02  0.40013634496E+02  0.00000000000E+00 0. -1.
         21   -1    0    0  501  502 -0.00000000000E+00 -0.00000000000E+00 -0.13933860406E+04  0.13933860406E+04  0.00000000000E+00 0. -1.
      99926    2    1    2    0    0  0.14210854715E-13  0.00000000000E+00 -0.13533724061E+04  0.14333996751E+04  0.47224756110E+03 0.  0.
      99925    2    3    3    0    0  0.11373828259E+03  0.54088666304E+02 -0.91902641272E+03  0.96418124960E+03  0.26300941820E+03 0.  0.
         25    1    3    3    0    0 -0.11373828259E+03 -0.54088666304E+02 -0.43434599337E+03  0.46921842547E+03  0.12509000000E+03 0.  0.
         25    1    4    4    0    0  0.26165514148E+02  0.50057529615E+01 -0.33678142083E+03  0.36024842153E+03  0.12509000000E+03 0.  0.
         25    1    4    4    0    0  0.87572768447E+02  0.49082913342E+02 -0.58224499189E+03  0.60393282808E+03  0.12509000000E+03 0.  0.
<mgrwt>
<rscale>  2 0.47224756E+03</rscale>
<asrwt>0</asrwt>
<pdfrwt beam="1">  1       21 0.58843572E-02 0.47224756E+03</pdfrwt>
<pdfrwt beam="2">  1       21 0.20490974E+00 0.47224756E+03</pdfrwt>
<totfact> 0.22312120E+04</totfact>
</mgrwt>
</event>
<event>
 7    0  0.4732500E-002  0.4503557E+03  0.7546771E-02  0.1027616E+00
         21   -1    0    0  502  501  0.00000000000E+00  0.00000000000E+00  0.23382211575E+03  0.23382211575E+03  0.00000000000E+00 0. -1.
         21   -1    0    0  501  502 -0.00000000000E+00 -0.00000000000E+00 -0.21685320016E+03  0.21685320016E+03  0.00000000000E+00 0. -1.
      99926    2    1    2    0    0 -0.88817841970E-15 -0.17763568394E-14  0.16968915594E+02  0.45067531591E+03  0.45035574414E+03 0.  0.
      99925    2    3    3    0    0 -0.58705556177E+01 -0.86030898154E+00 -0.98047220925E+02  0.28064172125E+03  0.26289030910E+03 0.  0.
         25    1    3    3    0    0  0.58705556177E+01  0.86030898154E+00  0.11501613652E+03  0.17003359466E+03  0.12509000000E+03 0.  0.
         25    1    4    4    0    0 -0.12063202004E+02  0.30862802283E+02 -0.74491662178E+02  0.14931359363E+03  0.12509000000E+03 0.  0.
         25    1    4    4    0    0  0.61926463859E+01 -0.31723111264E+02 -0.23555558747E+02  0.13132812762E+03  0.12509000000E+03 0.  0.
<mgrwt>
<rscale>  2 0.45035574E+03</rscale>
<asrwt>0</asrwt>
<pdfrwt beam="1">  1       21 0.34385605E-01 0.45035574E+03</pdfrwt>
<pdfrwt beam="2">  1       21 0.31890176E-01 0.45035574E+03</pdfrwt>
<totfact> 0.71475923E+04</totfact>
</mgrwt>
</event>
<event>
 7    0  0.4732500E-002  0.4552568E+03  0.7546771E-02  0.1026166E+00
         21   -1    0    0  502  501  0.00000000000E+00  0.00000000000E+00  0.21363695225E+03  0.21363695225E+03  0.00000000000E+00 0. -1.
         21   -1    0    0  501  502 -0.00000000000E+00 -0.00000000000E+00 -0.24253615426E+03  0.24253615426E+03  0.00000000000E+00 0. -1.
      99926    2    1    2    0    0 -0.26645352591E-14  0.00000000000E+00 -0.28899202014E+02  0.45617310652E+03  0.45525678384E+03 0.  0.
      99925    2    3    3    0    0  0.40389421140E+01 -0.92900904500E+02  0.46818627272E+02  0.28288840182E+03  0.26303416682E+03 0.  0.
         25    1    4    4    0    0 -0.21507692818E+02 -0.16309193770E+02  0.42549158179E+01  0.12803977140E+03  0.12509000000E+03 0.  0.
         25    1    3    3    0    0 -0.40389421140E+01  0.92900904500E+02 -0.75717829287E+02  0.17328470470E+03  0.12509000000E+03 0.  0.
         25    1    4    4    0    0  0.25546634932E+02 -0.76591710731E+02  0.42563711455E+02  0.15484863042E+03  0.12509000000E+03 0.  0.
<mgrwt>
<rscale>  2 0.45525678E+03</rscale>
<asrwt>0</asrwt>
<pdfrwt beam="1">  1       21 0.31417199E-01 0.45525678E+03</pdfrwt>
<pdfrwt beam="2">  1       21 0.35667081E-01 0.45525678E+03</pdfrwt>
<totfact> 0.68319890E+04</totfact>
</mgrwt>
</event>
<event>
 7    0  0.4732500E-002  0.4749686E+03  0.7546771E-02  0.1020527E+00
         21   -1    0    0  502  501  0.00000000000E+00  0.00000000000E+00  0.12414946722E+03  0.12414946722E+03  0.00000000000E+00 0.  1.
         21   -1    0    0  501  502 -0.00000000000E+00 -0.00000000000E+00 -0.45428136295E+03  0.45428136295E+03  0.00000000000E+00 0.  1.
      99926    2    1    2    0    0  0.00000000000E+00 -0.14210854715E-13 -0.33013189574E+03  0.57843083017E+03  0.47496858497E+03 0.  0.
      99925    2    3    3    0    0 -0.76279400581E+01 -0.11053394708E+03 -0.28930533974E+03  0.40641264886E+03  0.26305460007E+03 0.  0.
         25    1    4    4    0    0  0.14854261235E+01 -0.93339915764E+02 -0.18748102912E+03  0.24394915607E+03  0.12509000000E+03 0.  0.
         25    1    3    3    0    0  0.76279400581E+01  0.11053394708E+03 -0.40826555998E+02  0.17201818131E+03  0.12509000000E+03 0.  0.
         25    1    4    4    0    0 -0.91133661815E+01 -0.17194031321E+02 -0.10182431062E+03  0.16246349279E+03  0.12509000000E+03 0.  0.
<mgrwt>
<rscale>  2 0.47496858E+03</rscale>
<asrwt>0</asrwt>
<pdfrwt beam="1">  1       21 0.18257274E-01 0.47496858E+03</pdfrwt>
<pdfrwt beam="2">  1       21 0.66806084E-01 0.47496858E+03</pdfrwt>
<totfact> 0.51414640E+04</totfact>
</mgrwt>
</event>
<event>
 7    0  0.4732500E-002  0.4580800E+03  0.7546771E-02  0.1025340E+00
         21   -1    0    0  502  501  0.00000000000E+00  0.00000000000E+00  0.51434211312E+02  0.51434211312E+02  0.00000000000E+00 0.  1.
         21   -1    0    0  501  502 -0.00000000000E+00 -0.00000000000E+00 -0.10199303671E+04  0.10199303671E+04  0.00000000000E+00 0.  1.
      99926    2    1    2    0    0  0.00000000000E+00  0.00000000000E+00 -0.96849615582E+03  0.10713645784E+04  0.45807996693E+03 0.  0.
      99925    2    3    3    0    0 -0.84673444939E+02  0.37074125131E+02 -0.44367128772E+03  0.52397739069E+03  0.26299051577E+03 0.  0.
         25    1    4    4    0    0 -0.26118962693E+02  0.15164909690E+02 -0.28356159090E+03  0.31139502024E+03  0.12509000000E+03 0.  0.
         25    1    4    4    0    0 -0.58554482246E+02  0.21909215441E+02 -0.16010969682E+03  0.21258237045E+03  0.12509000000E+03 0.  0.
         25    1    3    3    0    0  0.84673444939E+02 -0.37074125131E+02 -0.52482486810E+03  0.54738718775E+03  0.12509000000E+03 0.  0.
<mgrwt>
<rscale>  2 0.45807997E+03</rscale>
<asrwt>0</asrwt>
<pdfrwt beam="1">  1       21 0.75638544E-02 0.45807997E+03</pdfrwt>
<pdfrwt beam="2">  1       21 0.14998976E+00 0.45807997E+03</pdfrwt>
<totfact> 0.35638799E+04</totfact>
</mgrwt>
</event>
<event>
 7    0  0.4732500E-002  0.4283465E+03  0.7546771E-02  0.1034384E+00
         21   -1    0    0  502  501  0.00000000000E+00  0.00000000000E+00  0.57442535300E+02  0.57442535300E+02  0.00000000000E+00 0.  1.
         21   -1    0    0  501  502 -0.00000000000E+00 -0.00000000000E+00 -0.79854016243E+03  0.79854016243E+03  0.00000000000E+00 0.  1.
      99926    2    1    2    0    0  0.00000000000E+00  0.00000000000E+00 -0.74109762713E+03  0.85598269773E+03  0.42834645543E+03 0.  0.
      99925    2    3    3    0    0  0.64751362382E+02 -0.55091011421E+02 -0.50209454837E+03  0.57314398357E+03  0.26299682875E+03 0.  0.
         25    1    4    4    0    0  0.17793057264E+01 -0.92681071880E+01 -0.27735703889E+03  0.30440679832E+03  0.12509000000E+03 0.  0.
         25    1    3    3    0    0 -0.64751362382E+02  0.55091011421E+02 -0.23900307876E+03  0.28283871415E+03  0.12509000000E+03 0.  0.
         25    1    4    4    0    0  0.62972056655E+02 -0.45822904233E+02 -0.22473750948E+03  0.26873718526E+03  0.12509000000E+03 0.  0.
<mgrwt>
<rscale>  2 0.42834646E+03</rscale>
<asrwt>0</asrwt>
<pdfrwt beam="1">  1       21 0.84474326E-02 0.42834646E+03</pdfrwt>
<pdfrwt beam="2">  1       21 0.11743236E+00 0.42834646E+03</pdfrwt>
<totfact> 0.55989340E+04</totfact>
</mgrwt>
</event>
<event>
 7    0  0.4732500E-002  0.4537342E+03  0.7546771E-02  0.1026614E+00
         21   -1    0    0  502  501  0.00000000000E+00  0.00000000000E+00  0.46583606645E+03  0.46583606645E+03  0.00000000000E+00 0.  1.
         21   -1    0    0  501  502 -0.00000000000E+00 -0.00000000000E+00 -0.11048667685E+03  0.11048667685E+03  0.00000000000E+00 0.  1.
      99926    2    1    2    0    0  0.14210854715E-13  0.00000000000E+00  0.35534938960E+03  0.57632274331E+03  0.45373419065E+03 0.  0.
      99925    2    3    3    0    0 -0.98979723726E+02 -0.48001280867E+02  0.19735996248E+03  0.34673773540E+03  0.26301139459E+03 0.  0.
         25    1    4    4    0    0 -0.42208125062E+02 -0.61281839039E+02  0.83343124278E+02  0.16772171619E+03  0.12509000000E+03 0.  0.
         25    1    3    3    0    0  0.98979723726E+02  0.48001280867E+02  0.15798942712E+03  0.22958500791E+03  0.12509000000E+03 0.  0.
         25    1    4    4    0    0 -0.56771598664E+02  0.13280558172E+02  0.11401683820E+03  0.17901601921E+03  0.12509000000E+03 0.  0.
<mgrwt>
<rscale>  2 0.45373419E+03</rscale>
<asrwt>0</asrwt>
<pdfrwt beam="1">  1       21 0.68505303E-01 0.45373419E+03</pdfrwt>
<pdfrwt beam="2">  1       21 0.16248041E-01 0.45373419E+03</pdfrwt>
<totfact> 0.60765727E+04</totfact>
</mgrwt>
</event>
<event>
 7    0  0.4732500E-002  0.4554561E+03  0.7546771E-02  0.1026107E+00
         21   -1    0    0  502  501  0.00000000000E+00  0.00000000000E+00  0.73000928950E+02  0.73000928950E+02  0.00000000000E+00 0.  1.
         21   -1    0    0  501  502 -0.00000000000E+00 -0.00000000000E+00 -0.71040265900E+03  0.71040265900E+03  0.00000000000E+00 0.  1.
      99926    2    1    2    0    0  0.00000000000E+00  0.00000000000E+00 -0.63740173005E+03  0.78340358795E+03  0.45545605292E+03 0.  0.
      99925    2    3    3    0    0  0.40924991987E+02 -0.10439830012E+03 -0.37149176163E+03  0.46887301799E+03  0.26317659090E+03 0.  0.
         25    1    4    4    0    0  0.51381662686E+02 -0.77281695212E+02 -0.23016749969E+03  0.27791567370E+03  0.12509000000E+03 0.  0.
         25    1    4    4    0    0 -0.10456670699E+02 -0.27116604904E+02 -0.14132426195E+03  0.19095734429E+03  0.12509000000E+03 0.  0.
         25    1    3    3    0    0 -0.40924991987E+02  0.10439830012E+03 -0.26590996841E+03  0.31453056996E+03  0.12509000000E+03 0.  0.
<mgrwt>
<rscale>  2 0.45545605E+03</rscale>
<asrwt>0</asrwt>
<pdfrwt beam="1">  1       21 0.10735431E-01 0.45545605E+03</pdfrwt>
<pdfrwt beam="2">  1       21 0.10447098E+00 0.45545605E+03</pdfrwt>
<totfact> 0.48404574E+04</totfact>
</mgrwt>
</event>
<event>
 7    0  0.4732500E-002  0.4554431E+03  0.7546771E-02  0.1026111E+00
         21   -1    0    0  502  501  0.00000000000E+00  0.00000000000E+00  0.60368029359E+03  0.60368029359E+03  0.00000000000E+00 0. -1.
         21   -1    0    0  501  502 -0.00000000000E+00 -0.00000000000E+00 -0.85901602560E+02  0.85901602560E+02  0.00000000000E+00 0. -1.
      99926    2    1    2    0    0  0.00000000000E+00  0.00000000000E+00  0.51777869103E+03  0.68958189615E+03  0.45544310140E+03 0.  0.
      99925    2    3    3    0    0  0.45181218511E+02  0.86876411047E+02  0.23899886211E+03  0.36871657485E+03  0.26313989279E+03 0.  0.
         25    1    4    4    0    0  0.44301908004E+02  0.80677469490E+02  0.13953358396E+03  0.20877893162E+03  0.12509000000E+03 0.  0.
         25    1    4    4    0    0  0.87931050662E+00  0.61989415574E+01  0.99465278147E+02  0.15993764322E+03  0.12509000000E+03 0.  0.
         25    1    3    3    0    0 -0.45181218511E+02 -0.86876411047E+02  0.27877982892E+03  0.32086532130E+03  0.12509000000E+03 0.  0.
<mgrwt>
<rscale>  2 0.45544310E+03</rscale>
<asrwt>0</asrwt>
<pdfrwt beam="1">  1       21 0.88776512E-01 0.45544310E+03</pdfrwt>
<pdfrwt beam="2">  1       21 0.12632589E-01 0.45544310E+03</pdfrwt>
<totfact> 0.53286252E+04</totfact>
</mgrwt>
</event>
<event>
 7    0  0.4732500E-002  0.4520791E+03  0.7546771E-02  0.1027104E+00
         21   -1    0    0  502  501  0.00000000000E+00  0.00000000000E+00  0.63893153804E+02  0.63893153804E+02  0.00000000000E+00 0. -1.
         21   -1    0    0  501  502 -0.00000000000E+00 -0.00000000000E+00 -0.79967702977E+03  0.79967702977E+03  0.00000000000E+00 0. -1.
      99926    2    1    2    0    0  0.71054273576E-14 -0.71054273576E-14 -0.73578387597E+03  0.86357018357E+03  0.45207914111E+03 0.  0.
      99925    2    3    3    0    0 -0.63402516354E+02  0.59829477444E+02 -0.33463073208E+03  0.43441893005E+03  0.26294987066E+03 0.  0.
         25    1    4    4    0    0 -0.59776591057E+02  0.28980841683E+02 -0.12810875718E+03  0.19097772590E+03  0.12509000000E+03 0.  0.
         25    1    3    3    0    0  0.63402516354E+02 -0.59829477444E+02 -0.40115314389E+03  0.42915125352E+03  0.12509000000E+03 0.  0.
         25    1    4    4    0    0 -0.36259252964E+01  0.30848635761E+02 -0.20652197490E+03  0.24344120415E+03  0.12509000000E+03 0.  0.
<mgrwt>
<rscale>  2 0.45207914E+03</rscale>
<asrwt>0</asrwt>
<pdfrwt beam="1">  1       21 0.93960525E-02 0.45207914E+03</pdfrwt>
<pdfrwt beam="2">  1       21 0.11759956E+00 0.45207914E+03</pdfrwt>
<totfact> 0.45880291E+04</totfact>
</mgrwt>
</event>
<event>
 7    0  0.4732500E-002  0.4556395E+03  0.7546771E-02  0.1026054E+00
         21   -1    0    0  502  501  0.00000000000E+00  0.00000000000E+00  0.15608668657E+03  0.15608668657E+03  0.00000000000E+00 0.  1.
         21   -1    0    0  501  502 -0.00000000000E+00 -0.00000000000E+00 -0.33251933564E+03  0.33251933564E+03  0.00000000000E+00 0.  1.
      99926    2    1    2    0    0  0.71054273576E-14  0.00000000000E+00 -0.17643264907E+03  0.48860602220E+03  0.45563951242E+03 0.  0.
      99925    2    3    3    0    0 -0.49904986226E+02  0.23204460361E+02 -0.41323135574E+01  0.26868815492E+03  0.26295873051E+03 0.  0.
         25    1    4    4    0    0 -0.26144380197E+02 -0.28496067975E+02 -0.83834950672E+01  0.13119964023E+03  0.12509000000E+03 0.  0.
         25    1    4    4    0    0 -0.23760606029E+02  0.51700528336E+02  0.42511815098E+01  0.13748851470E+03  0.12509000000E+03 0.  0.
         25    1    3    3    0    0  0.49904986226E+02 -0.23204460361E+02 -0.17230033552E+03  0.21991786728E+03  0.12509000000E+03 0.  0.
<mgrwt>
<rscale>  2 0.45563951E+03</rscale>
<asrwt>0</asrwt>
<pdfrwt beam="1">  1       21 0.22953924E-01 0.45563951E+03</pdfrwt>
<pdfrwt beam="2">  1       21 0.48899902E-01 0.45563951E+03</pdfrwt>
<totfact> 0.65744372E+04</totfact>
</mgrwt>
</event>
<event>
 7    0  0.4732500E-002  0.4550086E+03  0.7546771E-02  0.1026239E+00
         21   -1    0    0  502  501  0.00000000000E+00  0.00000000000E+00  0.27244428837E+02  0.27244428837E+02  0.00000000000E+00 0.  1.
         21   -1    0    0  501  502 -0.00000000000E+00 -0.00000000000E+00 -0.18997721620E+04  0.18997721620E+04  0.00000000000E+00 0.  1.
      99926    2    1    2    0    0  0.00000000000E+00 -0.88817841970E-15 -0.18725277332E+04  0.19270165909E+04  0.45500860421E+03 0.  0.
      99925    2    3    3    0    0 -0.53219644178E+02  0.50789562290E+01 -0.75600253729E+03  0.80223476869E+03  0.26302597092E+03 0.  0.
         25    1    4    4    0    0 -0.55435169393E+02 -0.26362118332E+02 -0.40135993399E+03  0.42485918137E+03  0.12509000000E+03 0.  0.
         25    1    4    4    0    0  0.22155252153E+01  0.31441074561E+02 -0.35464260330E+03  0.37737558731E+03  0.12509000000E+03 0.  0.
         25    1    3    3    0    0  0.53219644178E+02 -0.50789562290E+01 -0.11165251959E+04  0.11247818222E+04  0.12509000000E+03 0.  0.
<mgrwt>
<rscale>  2 0.45500860E+03</rscale>
<asrwt>0</asrwt>
<pdfrwt beam="1">  1       21 0.40065309E-02 0.45500860E+03</pdfrwt>
<pdfrwt beam="2">  1       21 0.27937845E+00 0.45500860E+03</pdfrwt>
<totfact> 0.14937146E+04</totfact>
</mgrwt>
</event>
<event>
 7    0  0.4732500E-002  0.4565864E+03  0.7546771E-02  0.1025776E+00
         21   -1    0    0  502  501  0.00000000000E+00  0.00000000000E+00  0.14898887106E+03  0.14898887106E+03  0.00000000000E+00 0. -1.
         21   -1    0    0  501  502 -0.00000000000E+00 -0.00000000000E+00 -0.34980994355E+03  0.34980994355E+03  0.00000000000E+00 0. -1.
      99926    2    1    2    0    0  0.00000000000E+00 -0.14210854715E-13 -0.20082107249E+03  0.49879881460E+03  0.45658641492E+03 0.  0.
      99925    2    3    3    0    0 -0.45864272481E+02  0.75966206827E+02 -0.46733278633E+02  0.28139377238E+03  0.26291454834E+03 0.  0.
         25    1    3    3    0    0  0.45864272481E+02 -0.75966206827E+02 -0.15408779386E+03  0.21740504223E+03  0.12509000000E+03 0.  0.
         25    1    4    4    0    0 -0.52761120138E+02  0.42422264452E+02 -0.52391090030E+02  0.15157743478E+03  0.12509000000E+03 0.  0.
         25    1    4    4    0    0  0.68968476563E+01  0.33543942375E+02  0.56578113968E+01  0.12981633760E+03  0.12509000000E+03 0.  0.
<mgrwt>
<rscale>  2 0.45658641E+03</rscale>
<asrwt>0</asrwt>
<pdfrwt beam="1">  1       21 0.21910129E-01 0.45658641E+03</pdfrwt>
<pdfrwt beam="2">  1       21 0.51442637E-01 0.45658641E+03</pdfrwt>
<totfact> 0.64538531E+04</totfact>
</mgrwt>
</event>
<event>
 7    0  0.4732500E-002  0.4557544E+03  0.7546771E-02  0.1026020E+00
         21   -1    0    0  502  501  0.00000000000E+00  0.00000000000E+00  0.61080953948E+03  0.61080953948E+03  0.00000000000E+00 0.  1.
         21   -1    0    0  501  502 -0.00000000000E+00 -0.00000000000E+00 -0.85015060580E+02  0.85015060580E+02  0.00000000000E+00 0.  1.
      99926    2    1    2    0    0  0.00000000000E+00  0.00000000000E+00  0.52579447890E+03  0.69582460006E+03  0.45575436367E+03 0.  0.
      99925    2    3    3    0    0 -0.27113553299E+02  0.64525262312E+02  0.19352280819E+03  0.33395359334E+03  0.26301192172E+03 0.  0.
         25    1    4    4    0    0 -0.17487768425E+02  0.54712077066E+02  0.14260678025E+03  0.19820049267E+03  0.12509000000E+03 0.  0.
         25    1    3    3    0    0  0.27113553299E+02 -0.64525262312E+02  0.33227167071E+03  0.36187100672E+03  0.12509000000E+03 0.  0.
         25    1    4    4    0    0 -0.96257848741E+01  0.98131852461E+01  0.50916027932E+02  0.13575310066E+03  0.12509000000E+03 0.  0.
<mgrwt>
<rscale>  2 0.45575436E+03</rscale>
<asrwt>0</asrwt>
<pdfrwt beam="1">  1       21 0.89824930E-01 0.45575436E+03</pdfrwt>
<pdfrwt beam="2">  1       21 0.12502215E-01 0.45575436E+03</pdfrwt>
<totfact> 0.52815977E+04</totfact>
</mgrwt>
</event>
<event>
 7    0  0.4732500E-002  0.4535722E+03  0.7546771E-02  0.1026662E+00
         21   -1    0    0  502  501  0.00000000000E+00  0.00000000000E+00  0.70198879638E+03  0.70198879638E+03  0.00000000000E+00 0. -1.
         21   -1    0    0  501  502 -0.00000000000E+00 -0.00000000000E+00 -0.73266047664E+02  0.73266047664E+02  0.00000000000E+00 0. -1.
      99926    2    1    2    0    0  0.00000000000E+00  0.35527136788E-14  0.62872274871E+03  0.77525484404E+03  0.45357224172E+03 0.  0.
      99925    2    3    3    0    0  0.10097436078E+03 -0.19824945380E+02  0.46910255264E+03  0.54784559821E+03  0.26360717857E+03 0.  0.
         25    1    4    4    0    0  0.90301342062E+02 -0.24314346797E+02  0.23501117580E+03  0.28217597468E+03  0.12509000000E+03 0.  0.
         25    1    3    3    0    0 -0.10097436078E+03  0.19824945380E+02  0.15962019607E+03  0.22740924583E+03  0.12509000000E+03 0.  0.
         25    1    4    4    0    0  0.10673018719E+02  0.44894014178E+01  0.23409137684E+03  0.26566962353E+03  0.12509000000E+03 0.  0.
<mgrwt>
<rscale>  2 0.45357224E+03</rscale>
<asrwt>0</asrwt>
<pdfrwt beam="1">  1       21 0.10323364E+00 0.45357224E+03</pdfrwt>
<pdfrwt beam="2">  1       21 0.10774419E-01 0.45357224E+03</pdfrwt>
<totfact> 0.49537873E+04</totfact>
</mgrwt>
</event>
<event>
 7    0  0.4732500E-002  0.4618323E+03  0.7546771E-02  0.1024251E+00
         21   -1    0    0  502  501  0.00000000000E+00  0.00000000000E+00  0.79566442275E+03  0.79566442275E+03  0.00000000000E+00 0. -1.
         21   -1    0    0  501  502 -0.00000000000E+00 -0.00000000000E+00 -0.67016026668E+02  0.67016026668E+02  0.00000000000E+00 0. -1.
      99926    2    1    2    0    0  0.00000000000E+00 -0.44408920985E-15  0.72864839608E+03  0.86268044942E+03  0.46183229932E+03 0.  0.
      99925    2    3    3    0    0 -0.11220915669E+03  0.29122327332E+01  0.53227785082E+03  0.60420748160E+03  0.26295930181E+03 0.  0.
         25    1    4    4    0    0 -0.82148636854E+02  0.23265206278E+01  0.21621967636E+03  0.26296818777E+03  0.12509000000E+03 0.  0.
         25    1    3    3    0    0  0.11220915669E+03 -0.29122327332E+01  0.19637054526E+03  0.25847296781E+03  0.12509000000E+03 0.  0.
         25    1    4    4    0    0 -0.30060519833E+02  0.58571210543E+00  0.31605817446E+03  0.34123929383E+03  0.12509000000E+03 0.  0.
<mgrwt>
<rscale>  2 0.46183230E+03</rscale>
<asrwt>0</asrwt>
<pdfrwt beam="1">  1       21 0.11700947E+00 0.46183230E+03</pdfrwt>
<pdfrwt beam="2">  1       21 0.98552985E-02 0.46183230E+03</pdfrwt>
<totfact> 0.42550816E+04</totfact>
</mgrwt>
</event>
<event>
 7    0  0.4732500E-002  0.4514165E+03  0.7546771E-02  0.1027300E+00
         21   -1    0    0  502  501  0.00000000000E+00  0.00000000000E+00  0.77238578162E+02  0.77238578162E+02  0.00000000000E+00 0.  1.
         21   -1    0    0  501  502 -0.00000000000E+00 -0.00000000000E+00 -0.65956940985E+03  0.65956940985E+03  0.00000000000E+00 0.  1.
      99926    2    1    2    0    0  0.35527136788E-14  0.00000000000E+00 -0.58233083169E+03  0.73680798801E+03  0.45141645259E+03 0.  0.
      99925    2    3    3    0    0 -0.25742848704E+02  0.68088674927E+02 -0.50177511732E+03  0.57117135822E+03  0.26298230011E+03 0.  0.
         25    1    4    4    0    0 -0.21011491562E+02  0.65551066620E+02 -0.32044816298E+03  0.35081755710E+03  0.12509000000E+03 0.  0.
         25    1    4    4    0    0 -0.47313571419E+01  0.25376083068E+01 -0.18132695434E+03  0.22035380112E+03  0.12509000000E+03 0.  0.
         25    1    3    3    0    0  0.25742848704E+02 -0.68088674927E+02 -0.80555714368E+02  0.16563662980E+03  0.12509000000E+03 0.  0.
<mgrwt>
<rscale>  2 0.45141645E+03</rscale>
<asrwt>0</asrwt>
<pdfrwt beam="1">  1       21 0.11358615E-01 0.45141645E+03</pdfrwt>
<pdfrwt beam="2">  1       21 0.96995498E-01 0.45141645E+03</pdfrwt>
<totfact> 0.52410776E+04</totfact>
</mgrwt>
</event>
<event>
 7    0  0.4732500E-002  0.4595515E+03  0.7546771E-02  0.1024911E+00
         21   -1    0    0  502  501  0.00000000000E+00  0.00000000000E+00  0.48882512475E+03  0.48882512475E+03  0.00000000000E+00 0. -1.
         21   -1    0    0  501  502 -0.00000000000E+00 -0.00000000000E+00 -0.10800775276E+03  0.10800775276E+03  0.00000000000E+00 0. -1.
      99926    2    1    2    0    0  0.00000000000E+00  0.00000000000E+00  0.38081737199E+03  0.59683287751E+03  0.45955153450E+03 0.  0.
      99925    2    3    3    0    0  0.64552648373E+02  0.97747912559E+02  0.24732784386E+03  0.37960336514E+03  0.26307024472E+03 0.  0.
         25    1    4    4    0    0  0.70933816966E+02  0.36297832274E+02  0.13344506021E+03  0.19950997772E+03  0.12509000000E+03 0.  0.
         25    1    4    4    0    0 -0.63811685931E+01  0.61450080285E+02  0.11388278365E+03  0.18009338742E+03  0.12509000000E+03 0.  0.
         25    1    3    3    0    0 -0.64552648373E+02 -0.97747912559E+02  0.13348952813E+03  0.21722951237E+03  0.12509000000E+03 0.  0.
<mgrwt>
<rscale>  2 0.45955153E+03</rscale>
<asrwt>0</asrwt>
<pdfrwt beam="1">  1       21 0.71886047E-01 0.45955153E+03</pdfrwt>
<pdfrwt beam="2">  1       21 0.15883493E-01 0.45955153E+03</pdfrwt>
<totfact> 0.56802878E+04</totfact>
</mgrwt>
</event>
<event>
 7    0  0.4732500E-002  0.4521322E+03  0.7546771E-02  0.1027088E+00
         21   -1    0    0  502  501  0.00000000000E+00  0.00000000000E+00  0.95323990675E+02  0.95323990675E+02  0.00000000000E+00 0.  1.
         21   -1    0    0  501  502 -0.00000000000E+00 -0.00000000000E+00 -0.53612811195E+03  0.53612811195E+03  0.00000000000E+00 0.  1.
      99926    2    1    2    0    0  0.00000000000E+00 -0.14210854715E-13 -0.44080412127E+03  0.63145210262E+03  0.45213215389E+03 0.  0.
      99925    2    3    3    0    0  0.32827944157E+02  0.90690120748E+02 -0.35313578216E+03  0.45079879460E+03  0.26308230774E+03 0.  0.
         25    1    3    3    0    0 -0.32827944157E+02 -0.90690120748E+02 -0.87668339111E+02  0.18065330803E+03  0.12509000000E+03 0.  0.
         25    1    4    4    0    0  0.22933958010E+02  0.88076129605E+02 -0.19445402164E+03  0.24848188197E+03  0.12509000000E+03 0.  0.
         25    1    4    4    0    0  0.98939861477E+01  0.26139911437E+01 -0.15868176052E+03  0.20231691262E+03  0.12509000000E+03 0.  0.
<mgrwt>
<rscale>  2 0.45213215E+03</rscale>
<asrwt>0</asrwt>
<pdfrwt beam="1">  1       21 0.14018234E-01 0.45213215E+03</pdfrwt>
<pdfrwt beam="2">  1       21 0.78842370E-01 0.45213215E+03</pdfrwt>
<totfact> 0.58086701E+04</totfact>
</mgrwt>
</event>
<event>
 7    0  0.4732500E-002  0.4435349E+03  0.7546771E-02  0.1029668E+00
         21   -1    0    0  502  501  0.00000000000E+00  0.00000000000E+00  0.24164958501E+03  0.24164958501E+03  0.00000000000E+00 0.  1.
         21   -1    0    0  501  502 -0.00000000000E+00 -0.00000000000E+00 -0.20352115537E+03  0.20352115537E+03  0.00000000000E+00 0.  1.
      99926    2    1    2    0    0  0.00000000000E+00 -0.14210854715E-13  0.38128429641E+02  0.44517074037E+03  0.44353490385E+03 0.  0.
      99925    2    3    3    0    0 -0.74880537690E+02 -0.68062319840E+02  0.36800982389E+02  0.28427063309E+03  0.26308916022E+03 0.  0.
         25    1    3    3    0    0  0.74880537690E+02  0.68062319840E+02  0.13274472512E+01  0.16090010728E+03  0.12509000000E+03 0.  0.
         25    1    4    4    0    0 -0.21176171903E+02 -0.18837847971E+02 -0.17938648857E+02  0.12950906530E+03  0.12509000000E+03 0.  0.
         25    1    4    4    0    0 -0.53704365787E+02 -0.49224471869E+02  0.54739631247E+02  0.15476156779E+03  0.12509000000E+03 0.  0.
<mgrwt>
<rscale>  2 0.44353490E+03</rscale>
<asrwt>0</asrwt>
<pdfrwt beam="1">  1       21 0.35536704E-01 0.44353490E+03</pdfrwt>
<pdfrwt beam="2">  1       21 0.29929582E-01 0.44353490E+03</pdfrwt>
<totfact> 0.75988850E+04</totfact>
</mgrwt>
</event>
<event>
 7    0  0.4732500E-002  0.4456072E+03  0.7546771E-02  0.1029040E+00
         21   -1    0    0  502  501  0.00000000000E+00  0.00000000000E+00  0.19600266585E+03  0.19600266585E+03  0.00000000000E+00 0. -1.
         21   -1    0    0  501  502 -0.00000000000E+00 -0.00000000000E+00 -0.25326927800E+03  0.25326927800E+03  0.00000000000E+00 0. -1.
      99926    2    1    2    0    0  0.14210854715E-13  0.00000000000E+00 -0.57266612155E+02  0.44927194385E+03  0.44560724260E+03 0.  0.
      99925    2    3    3    0    0 -0.97489502879E+02 -0.34099202202E+02 -0.25296295926E+02  0.28393420471E+03  0.26327128833E+03 0.  0.
         25    1    4    4    0    0 -0.51290647255E+02  0.15225121870E+02 -0.37805133601E+02  0.14120648377E+03  0.12509000000E+03 0.  0.
         25    1    4    4    0    0 -0.46198855624E+02 -0.49324324072E+02  0.12508837675E+02  0.14272772094E+03  0.12509000000E+03 0.  0.
         25    1    3    3    0    0  0.97489502879E+02  0.34099202202E+02 -0.31970316229E+02  0.16533773913E+03  0.12509000000E+03 0.  0.
<mgrwt>
<rscale>  2 0.44560724E+03</rscale>
<asrwt>0</asrwt>
<pdfrwt beam="1">  1       21 0.28823922E-01 0.44560724E+03</pdfrwt>
<pdfrwt beam="2">  1       21 0.37245482E-01 0.44560724E+03</pdfrwt>
<totfact> 0.74387387E+04</totfact>
</mgrwt>
</event>
<event>
 7    0  0.4732500E-002  0.4016683E+03  0.7546771E-02  0.1043204E+00
         21   -1    0    0  502  501  0.00000000000E+00  0.00000000000E+00  0.23883145885E+02  0.23883145885E+02  0.00000000000E+00 0. -1.
         21   -1    0    0  501  502 -0.00000000000E+00 -0.00000000000E+00 -0.16888210830E+04  0.16888210830E+04  0.00000000000E+00 0. -1.
      99926    2    1    2    0    0  0.35527136788E-14  0.71054273576E-14 -0.16649379371E+04  0.17127042289E+04  0.40166832238E+03 0.  0.
      99925    2    3    3    0    0 -0.23015195413E+02  0.42465377117E+02 -0.10859315957E+04  0.11183736315E+04  0.26301928000E+03 0.  0.
         25    1    4    4    0    0 -0.21796656844E+02  0.54612111150E+02 -0.65831711762E+03  0.67267117701E+03  0.12509000000E+03 0.  0.
         25    1    4    4    0    0 -0.12185385693E+01 -0.12146734033E+02 -0.42761447806E+03  0.44570245449E+03  0.12509000000E+03 0.  0.
         25    1    3    3    0    0  0.23015195413E+02 -0.42465377117E+02 -0.57900634146E+03  0.59433059741E+03  0.12509000000E+03 0.  0.
<mgrwt>
<rscale>  2 0.40166832E+03</rscale>
<asrwt>0</asrwt>
<pdfrwt beam="1">  1       21 0.35122271E-02 0.40166832E+03</pdfrwt>
<pdfrwt beam="2">  1       21 0.24835606E+00 0.40166832E+03</pdfrwt>
<totfact> 0.29426092E+04</totfact>
</mgrwt>
</event>
<event>
 7    0  0.4732500E-002  0.4695756E+03  0.7546771E-02  0.1022040E+00
         21   -1    0    0  502  501  0.00000000000E+00  0.00000000000E+00  0.19726646614E+03  0.19726646614E+03  0.00000000000E+00 0. -1.
         21   -1    0    0  501  502 -0.00000000000E+00 -0.00000000000E+00 -0.27944592482E+03  0.27944592482E+03  0.00000000000E+00 0. -1.
      99926    2    1    2    0    0  0.00000000000E+00  0.00000000000E+00 -0.82179458675E+02  0.47671239096E+03  0.46957559590E+03 0.  0.
      99925    2    3    3    0    0  0.11459089851E+03  0.53004559963E+02 -0.58219030049E+02  0.29737425325E+03  0.26287151546E+03 0.  0.
         25    1    4    4    0    0  0.36802055184E+02  0.36859785877E+02 -0.62287684505E+02  0.14913181693E+03  0.12509000000E+03 0.  0.
         25    1    3    3    0    0 -0.11459089851E+03 -0.53004559963E+02 -0.23960428626E+02  0.17933813771E+03  0.12509000000E+03 0.  0.
         25    1    4    4    0    0  0.77788843325E+02  0.16144774086E+02  0.40686544556E+01  0.14824243632E+03  0.12509000000E+03 0.  0.
<mgrwt>
<rscale>  2 0.46957560E+03</rscale>
<asrwt>0</asrwt>
<pdfrwt beam="1">  1       21 0.29009775E-01 0.46957560E+03</pdfrwt>
<pdfrwt beam="2">  1       21 0.41094989E-01 0.46957560E+03</pdfrwt>
<totfact> 0.59723696E+04</totfact>
</mgrwt>
</event>
<event>
 7    0  0.4732500E-002  0.4484221E+03  0.7546771E-02  0.1028194E+00
         21   -1    0    0  502  501  0.00000000000E+00  0.00000000000E+00  0.58266269624E+03  0.58266269624E+03  0.00000000000E+00 0.  1.
         21   -1    0    0  501  502 -0.00000000000E+00 -0.00000000000E+00 -0.86277346774E+02  0.86277346774E+02  0.00000000000E+00 0.  1.
      99926    2    1    2    0    0  0.00000000000E+00  0.00000000000E+00  0.49638534947E+03  0.66894004302E+03  0.44842208463E+03 0.  0.
      99925    2    3    3    0    0 -0.29443057771E+02  0.47064262019E+02  0.45034208943E+03  0.52454673187E+03  0.26317168919E+03 0.  0.
         25    1    3    3    0    0  0.29443057771E+02 -0.47064262019E+02  0.46043260043E+02  0.14439331115E+03  0.12509000000E+03 0.  0.
         25    1    4    4    0    0 -0.23434830021E+02  0.60778295968E+02  0.26912451266E+03  0.30383993144E+03  0.12509000000E+03 0.  0.
         25    1    4    4    0    0 -0.60082277499E+01 -0.13714033948E+02  0.18121757676E+03  0.22070680043E+03  0.12509000000E+03 0.  0.
<mgrwt>
<rscale>  2 0.44842208E+03</rscale>
<asrwt>0</asrwt>
<pdfrwt beam="1">  1       21 0.85685689E-01 0.44842208E+03</pdfrwt>
<pdfrwt beam="2">  1       21 0.12687845E-01 0.44842208E+03</pdfrwt>
<totfact> 0.57547227E+04</totfact>
</mgrwt>
</event>
<event>
 7    0  0.4732500E-002  0.4567614E+03  0.7546771E-02  0.1025725E+00
         21   -1    0    0  502  501  0.00000000000E+00  0.00000000000E+00  0.43272026852E+03  0.43272026852E+03  0.00000000000E+00 0.  1.
         21   -1    0    0  501  502 -0.00000000000E+00 -0.00000000000E+00 -0.12053456759E+03  0.12053456759E+03  0.00000000000E+00 0.  1.
      99926    2    1    2    0    0 -0.14210854715E-13  0.14210854715E-13  0.31218570094E+03  0.55325483611E+03  0.45676142767E+03 0.  0.
      99925    2    3    3    0    0  0.67854693458E+02 -0.92334253664E+02  0.18908788599E+03  0.34365890588E+03  0.26309188725E+03 0.  0.
         25    1    4    4    0    0  0.35715935714E+02 -0.84614204967E+01  0.10983351599E+03  0.17046446268E+03  0.12509000000E+03 0.  0.
         25    1    3    3    0    0 -0.67854693458E+02  0.92334253664E+02  0.12309781494E+03  0.20959593023E+03  0.12509000000E+03 0.  0.
         25    1    4    4    0    0  0.32138757745E+02 -0.83872833167E+02  0.79254370003E+02  0.17319444321E+03  0.12509000000E+03 0.  0.
<mgrwt>
<rscale>  2 0.45676143E+03</rscale>
<asrwt>0</asrwt>
<pdfrwt beam="1">  1       21 0.63635333E-01 0.45676143E+03</pdfrwt>
<pdfrwt beam="2">  1       21 0.17725672E-01 0.45676143E+03</pdfrwt>
<totfact> 0.60800241E+04</totfact>
</mgrwt>
</event>
<event>
 7    0  0.4732500E-002  0.4612118E+03  0.7546771E-02  0.1024430E+00
         21   -1    0    0  502  501  0.00000000000E+00  0.00000000000E+00  0.26101399679E+02  0.26101399679E+02  0.00000000000E+00 0.  1.
         21   -1    0    0  501  502 -0.00000000000E+00 -0.00000000000E+00 -0.20374031505E+04  0.20374031505E+04  0.00000000000E+00 0.  1.
      99926    2    1    2    0    0  0.00000000000E+00 -0.14210854715E-13 -0.20113017508E+04  0.20635045502E+04  0.46121176888E+03 0.  0.
      99925    2    3    3    0    0  0.67880630985E+02  0.95259291446E+02 -0.11614322972E+04  0.11965514321E+04  0.26292249044E+03 0.  0.
         25    1    4    4    0    0  0.54699603382E+02  0.14899735958E+02 -0.50291950675E+03  0.52133442924E+03  0.12509000000E+03 0.  0.
         25    1    4    4    0    0  0.13181027602E+02  0.80359555488E+02 -0.65851279045E+03  0.67521700284E+03  0.12509000000E+03 0.  0.
         25    1    3    3    0    0 -0.67880630985E+02 -0.95259291446E+02 -0.84986945361E+03  0.86695311808E+03  0.12509000000E+03 0.  0.
<mgrwt>
<rscale>  2 0.46121177E+03</rscale>
<asrwt>0</asrwt>
<pdfrwt beam="1">  1       21 0.38384410E-02 0.46121177E+03</pdfrwt>
<pdfrwt beam="2">  1       21 0.29961812E+00 0.46121177E+03</pdfrwt>
<totfact> 0.12106167E+04</totfact>
</mgrwt>
</event>
<event>
 7    0  0.4732500E-002  0.4491102E+03  0.7546771E-02  0.1027988E+00
         21   -1    0    0  502  501  0.00000000000E+00  0.00000000000E+00  0.40292563613E+02  0.40292563613E+02  0.00000000000E+00 0.  1.
         21   -1    0    0  501  502 -0.00000000000E+00 -0.00000000000E+00 -0.12514715536E+04  0.12514715536E+04  0.00000000000E+00 0.  1.
      99926    2    1    2    0    0  0.00000000000E+00  0.00000000000E+00 -0.12111789900E+04  0.12917641172E+04  0.44911021892E+03 0.  0.
      99925    2    3    3    0    0 -0.60043527210E+02 -0.58623209402E+02 -0.57289056170E+03  0.63594285222E+03  0.26301674805E+03 0.  0.
         25    1    3    3    0    0  0.60043527210E+02  0.58623209402E+02 -0.63828842829E+03  0.65582126501E+03  0.12509000000E+03 0.  0.
         25    1    4    4    0    0 -0.45754346720E+02 -0.55579139645E+02 -0.24035816371E+03  0.28036058205E+03  0.12509000000E+03 0.  0.
         25    1    4    4    0    0 -0.14289180491E+02 -0.30440697579E+01 -0.33253239799E+03  0.35558227016E+03  0.12509000000E+03 0.  0.
<mgrwt>
<rscale>  2 0.44911022E+03</rscale>
<asrwt>0</asrwt>
<pdfrwt beam="1">  1       21 0.59253772E-02 0.44911022E+03</pdfrwt>
<pdfrwt beam="2">  1       21 0.18403993E+00 0.44911022E+03</pdfrwt>
<totfact> 0.30739005E+04</totfact>
</mgrwt>
</event>
<event>
 7    0  0.4732500E-002  0.4454559E+03  0.7546771E-02  0.1029086E+00
         21   -1    0    0  502  501  0.00000000000E+00  0.00000000000E+00  0.15673053062E+04  0.15673053062E+04  0.00000000000E+00 0.  1.
         21   -1    0    0  501  502 -0.00000000000E+00 -0.00000000000E+00 -0.31651618455E+02  0.31651618455E+02  0.00000000000E+00 0.  1.
      99926    2    1    2    0    0  0.00000000000E+00  0.14210854715E-13  0.15356536877E+04  0.15989569246E+04  0.44545594419E+03 0.  0.
      99925    2    3    3    0    0 -0.54563278135E+02 -0.88047960924E+02  0.10167868952E+04  0.10552659726E+04  0.26268058192E+03 0.  0.
         25    1    3    3    0    0  0.54563278135E+02  0.88047960924E+02  0.51886679257E+03  0.54369095199E+03  0.12509000000E+03 0.  0.
         25    1    4    4    0    0 -0.13532272032E+02 -0.36323140808E+02  0.62901103391E+03  0.64249893527E+03  0.12509000000E+03 0.  0.
         25    1    4    4    0    0 -0.41031006104E+02 -0.51724820116E+02  0.38777586125E+03  0.41276703738E+03  0.12509000000E+03 0.  0.
<mgrwt>
<rscale>  2 0.44545594E+03</rscale>
<asrwt>0</asrwt>
<pdfrwt beam="1">  1       21 0.23048602E+00 0.44545594E+03</pdfrwt>
<pdfrwt beam="2">  1       21 0.46546508E-02 0.44545594E+03</pdfrwt>
<totfact> 0.23119926E+04</totfact>
</mgrwt>
</event>
<event>
 7    0  0.4732500E-002  0.4540345E+03  0.7546771E-02  0.1026526E+00
         21   -1    0    0  502  501  0.00000000000E+00  0.00000000000E+00  0.67407796377E+02  0.67407796377E+02  0.00000000000E+00 0. -1.
         21   -1    0    0  501  502 -0.00000000000E+00 -0.00000000000E+00 -0.76455284263E+03  0.76455284263E+03  0.00000000000E+00 0. -1.
      99926    2    1    2    0    0  0.00000000000E+00  0.14210854715E-13 -0.69714504626E+03  0.83196063901E+03  0.45403445832E+03 0.  0.
      99925    2    3    3    0    0  0.67728834275E+02  0.89559844726E+02 -0.43530761668E+03  0.52081034027E+03  0.26294966935E+03 0.  0.
         25    1    4    4    0    0 -0.44548309708E+01  0.44343749629E+02 -0.17456963074E+03  0.21933599277E+03  0.12509000000E+03 0.  0.
         25    1    3    3    0    0 -0.67728834275E+02 -0.89559844726E+02 -0.26183742958E+03  0.31115029874E+03  0.12509000000E+03 0.  0.
         25    1    4    4    0    0  0.72183665246E+02  0.45216095097E+02 -0.26073798594E+03  0.30147434749E+03  0.12509000000E+03 0.  0.
<mgrwt>
<rscale>  2 0.45403446E+03</rscale>
<asrwt>0</asrwt>
<pdfrwt beam="1">  1       21 0.99129117E-02 0.45403446E+03</pdfrwt>
<pdfrwt beam="2">  1       21 0.11243424E+00 0.45403446E+03</pdfrwt>
<totfact> 0.46609532E+04</totfact>
</mgrwt>
</event>
<event>
 7    0  0.4732500E-002  0.4599257E+03  0.7546771E-02  0.1024803E+00
         21   -1    0    0  502  501  0.00000000000E+00  0.00000000000E+00  0.65315091395E+02  0.65315091395E+02  0.00000000000E+00 0. -1.
         21   -1    0    0  501  502 -0.00000000000E+00 -0.00000000000E+00 -0.80965852785E+03  0.80965852785E+03  0.00000000000E+00 0. -1.
      99926    2    1    2    0    0  0.00000000000E+00  0.00000000000E+00 -0.74434343646E+03  0.87497361925E+03  0.45992573638E+03 0.  0.
      99925    2    3    3    0    0  0.94704559706E+02  0.68024068672E+02 -0.49772852426E+03  0.57486921980E+03  0.26295381432E+03 0.  0.
         25    1    3    3    0    0 -0.94704559706E+02 -0.68024068672E+02 -0.24661491220E+03  0.30010439944E+03  0.12509000000E+03 0.  0.
         25    1    4    4    0    0  0.78718449973E+02  0.15988325065E+02 -0.29763169050E+03  0.33269257911E+03  0.12509000000E+03 0.  0.
         25    1    4    4    0    0  0.15986109732E+02  0.52035743608E+02 -0.20009683376E+03  0.24217664070E+03  0.12509000000E+03 0.  0.
<mgrwt>
<rscale>  2 0.45992574E+03</rscale>
<asrwt>0</asrwt>
<pdfrwt beam="1">  1       21 0.96051614E-02 0.45992574E+03</pdfrwt>
<pdfrwt beam="2">  1       21 0.11906742E+00 0.45992574E+03</pdfrwt>
<totfact> 0.42663478E+04</totfact>
</mgrwt>
</event>
<event>
 7    0  0.4732500E-002  0.4565930E+03  0.7546771E-02  0.1025774E+00
         21   -1    0    0  502  501  0.00000000000E+00  0.00000000000E+00  0.37551544994E+03  0.37551544994E+03  0.00000000000E+00 0. -1.
         21   -1    0    0  501  502 -0.00000000000E+00 -0.00000000000E+00 -0.13879397658E+03  0.13879397658E+03  0.00000000000E+00 0. -1.
      99926    2    1    2    0    0  0.00000000000E+00  0.00000000000E+00  0.23672147335E+03  0.51430942652E+03  0.45659295905E+03 0.  0.
      99925    2    3    3    0    0 -0.72874738679E+02 -0.28484158891E+02  0.24310858535E+03  0.36662605526E+03  0.26304145165E+03 0.  0.
         25    1    3    3    0    0  0.72874738679E+02  0.28484158891E+02 -0.63871119919E+01  0.14768337125E+03  0.12509000000E+03 0.  0.
         25    1    4    4    0    0  0.30077593139E+01 -0.66355050467E+01  0.12864749207E+03  0.17958497114E+03  0.12509000000E+03 0.  0.
         25    1    4    4    0    0 -0.75882497993E+02 -0.21848653845E+02  0.11446109327E+03  0.18704108412E+03  0.12509000000E+03 0.  0.
<mgrwt>
<rscale>  2 0.45659296E+03</rscale>
<asrwt>0</asrwt>
<pdfrwt beam="1">  1       21 0.55222860E-01 0.45659296E+03</pdfrwt>
<pdfrwt beam="2">  1       21 0.20410879E-01 0.45659296E+03</pdfrwt>
<totfact> 0.63470499E+04</totfact>
</mgrwt>
</event>
<event>
 7    0  0.4732500E-002  0.4579545E+03  0.7546771E-02  0.1025376E+00
         21   -1    0    0  502  501  0.00000000000E+00  0.00000000000E+00  0.42278261840E+02  0.42278261840E+02  0.00000000000E+00 0.  1.
         21   -1    0    0  501  502 -0.00000000000E+00 -0.00000000000E+00 -0.12401308141E+04  0.12401308141E+04  0.00000000000E+00 0.  1.
      99926    2    1    2    0    0  0.00000000000E+00  0.00000000000E+00 -0.11978525522E+04  0.12824090759E+04  0.45795447491E+03 0.  0.
      99925    2    3    3    0    0  0.42874203895E+02  0.56749047922E+02 -0.49532882318E+03  0.56529977477E+03  0.26297250899E+03 0.  0.
         25    1    4    4    0    0  0.36831349635E+02 -0.91615341553E+01 -0.24808368529E+03  0.28041666325E+03  0.12509000000E+03 0.  0.
         25    1    4    4    0    0  0.60428542596E+01  0.65910582077E+02 -0.24724513789E+03  0.28488311152E+03  0.12509000000E+03 0.  0.
         25    1    3    3    0    0 -0.42874203895E+02 -0.56749047922E+02 -0.70252372905E+03  0.71710930114E+03  0.12509000000E+03 0.  0.
<mgrwt>
<rscale>  2 0.45795447E+03</rscale>
<asrwt>0</asrwt>
<pdfrwt beam="1">  1       21 0.62173912E-02 0.45795447E+03</pdfrwt>
<pdfrwt beam="2">  1       21 0.18237219E+00 0.45795447E+03</pdfrwt>
<totfact> 0.28958424E+04</totfact>
</mgrwt>
</event>
<event>
 7    0  0.4732500E-002  0.4562206E+03  0.7546771E-02  0.1025883E+00
         21   -1    0    0  502  501  0.00000000000E+00  0.00000000000E+00  0.93622679969E+02  0.93622679969E+02  0.00000000000E+00 0. -1.
         21   -1    0    0  501  502 -0.00000000000E+00 -0.00000000000E+00 -0.55578748950E+03  0.55578748950E+03  0.00000000000E+00 0. -1.
      99926    2    1    2    0    0  0.00000000000E+00  0.00000000000E+00 -0.46216480953E+03  0.64941016947E+03  0.45622062321E+03 0.  0.
      99925    2    3    3    0    0 -0.69112490658E+02  0.90469602779E+02 -0.30404187927E+03  0.41786826275E+03  0.26308009289E+03 0.  0.
         25    1    4    4    0    0 -0.69145770912E+01  0.69165540097E+02 -0.12691403791E+03  0.19127562425E+03  0.12509000000E+03 0.  0.
         25    1    3    3    0    0  0.69112490658E+02 -0.90469602779E+02 -0.15812293026E+03  0.23154190672E+03  0.12509000000E+03 0.  0.
         25    1    4    4    0    0 -0.62197913567E+02  0.21304062682E+02 -0.17712784136E+03  0.22659263850E+03  0.12509000000E+03 0.  0.
<mgrwt>
<rscale>  2 0.45622062E+03</rscale>
<asrwt>0</asrwt>
<pdfrwt beam="1">  1       21 0.13768041E-01 0.45622062E+03</pdfrwt>
<pdfrwt beam="2">  1       21 0.81733456E-01 0.45622062E+03</pdfrwt>
<totfact> 0.55201978E+04</totfact>
</mgrwt>
</event>
<event>
 7    0  0.4732500E-002  0.4470163E+03  0.7546771E-02  0.1028616E+00
         21   -1    0    0  502  501  0.00000000000E+00  0.00000000000E+00  0.77597550996E+03  0.77597550996E+03  0.00000000000E+00 0.  1.
         21   -1    0    0  501  502 -0.00000000000E+00 -0.00000000000E+00 -0.64378172118E+02  0.64378172118E+02  0.00000000000E+00 0.  1.
      99926    2    1    2    0    0  0.00000000000E+00 -0.71054273576E-14  0.71159733784E+03  0.84035368208E+03  0.44701626341E+03 0.  0.
      99925    2    3    3    0    0 -0.88691293402E+02 -0.45647705008E+02  0.38632187046E+03  0.47786023899E+03  0.26297521160E+03 0.  0.
         25    1    4    4    0    0 -0.61751921358E+02 -0.40777275360E+02  0.14869211179E+03  0.20792531877E+03  0.12509000000E+03 0.  0.
         25    1    4    4    0    0 -0.26939372044E+02 -0.48704296477E+01  0.23762975866E+03  0.26993492022E+03  0.12509000000E+03 0.  0.
         25    1    3    3    0    0  0.88691293402E+02  0.45647705008E+02  0.32527546738E+03  0.36249344308E+03  0.12509000000E+03 0.  0.
<mgrwt>
<rscale>  2 0.44701626E+03</rscale>
<asrwt>0</asrwt>
<pdfrwt beam="1">  1       21 0.11411404E+00 0.44701626E+03</pdfrwt>
<pdfrwt beam="2">  1       21 0.94673787E-02 0.44701626E+03</pdfrwt>
<totfact> 0.48863404E+04</totfact>
</mgrwt>
</event>
<event>
 7    0  0.4732500E-002  0.4570467E+03  0.7546771E-02  0.1025641E+00
         21   -1    0    0  502  501  0.00000000000E+00  0.00000000000E+00  0.58319643621E+03  0.58319643621E+03  0.00000000000E+00 0.  1.
         21   -1    0    0  501  502 -0.00000000000E+00 -0.00000000000E+00 -0.89546039148E+02  0.89546039148E+02  0.00000000000E+00 0.  1.
      99926    2    1    2    0    0  0.00000000000E+00 -0.71054273576E-14  0.49365039706E+03  0.67274247536E+03  0.45704674119E+03 0.  0.
      99925    2    3    3    0    0 -0.74218422495E+02 -0.50734946944E+02  0.20443293518E+03  0.34505869878E+03  0.26304043707E+03 0.  0.
         25    1    4    4    0    0 -0.25427466168E+02 -0.54521882256E+02  0.71742265224E+02  0.15624868767E+03  0.12509000000E+03 0.  0.
         25    1    4    4    0    0 -0.48790956327E+02  0.37869353125E+01  0.13269066996E+03  0.18881001110E+03  0.12509000000E+03 0.  0.
         25    1    3    3    0    0  0.74218422495E+02  0.50734946944E+02  0.28921746188E+03  0.32768377658E+03  0.12509000000E+03 0.  0.
<mgrwt>
<rscale>  2 0.45704674E+03</rscale>
<asrwt>0</asrwt>
<pdfrwt beam="1">  1       21 0.85764180E-01 0.45704674E+03</pdfrwt>
<pdfrwt beam="2">  1       21 0.13168535E-01 0.45704674E+03</pdfrwt>
<totfact> 0.53539234E+04</totfact>
</mgrwt>
</event>
<event>
 7    0  0.4732500E-002  0.4552740E+03  0.7546771E-02  0.1026161E+00
         21   -1    0    0  502  501  0.00000000000E+00  0.00000000000E+00  0.38905959432E+02  0.38905959432E+02  0.00000000000E+00 0. -1.
         21   -1    0    0  501  502 -0.00000000000E+00 -0.00000000000E+00 -0.13318939396E+04  0.13318939396E+04  0.00000000000E+00 0. -1.
      99926    2    1    2    0    0  0.00000000000E+00  0.00000000000E+00 -0.12929879802E+04  0.13707998990E+04  0.45527403432E+03 0.  0.
      99925    2    3    3    0    0  0.75672332706E+02  0.83290049757E+02 -0.85484276891E+03  0.90145752019E+03  0.26307026976E+03 0.  0.
         25    1    4    4    0    0  0.22751330398E+02  0.37469057243E+02 -0.29247883752E+03  0.32111202373E+03  0.12509000000E+03 0.  0.
         25    1    4    4    0    0  0.52921002308E+02  0.45820992514E+02 -0.56236393138E+03  0.58034549646E+03  0.12509000000E+03 0.  0.
         25    1    3    3    0    0 -0.75672332706E+02 -0.83290049757E+02 -0.43814521126E+03  0.46934237884E+03  0.12509000000E+03 0.  0.
<mgrwt>
<rscale>  2 0.45527403E+03</rscale>
<asrwt>0</asrwt>
<pdfrwt beam="1">  1       21 0.57214645E-02 0.45527403E+03</pdfrwt>
<pdfrwt beam="2">  1       21 0.19586676E+00 0.45527403E+03</pdfrwt>
<totfact> 0.27062953E+04</totfact>
</mgrwt>
</event>
<event>
 7    0  0.4732500E-002  0.4540859E+03  0.7546771E-02  0.1026511E+00
         21   -1    0    0  502  501  0.00000000000E+00  0.00000000000E+00  0.12188698531E+04  0.12188698531E+04  0.00000000000E+00 0.  1.
         21   -1    0    0  501  502 -0.00000000000E+00 -0.00000000000E+00 -0.42292044780E+02  0.42292044780E+02  0.00000000000E+00 0.  1.
      99926    2    1    2    0    0  0.00000000000E+00  0.00000000000E+00  0.11765778084E+04  0.12611618979E+04  0.45408588795E+03 0.  0.
      99925    2    3    3    0    0 -0.46337356979E+02 -0.46078773886E+02  0.99462919816E+03  0.10308942082E+04  0.26303083984E+03 0.  0.
         25    1    3    3    0    0  0.46337356979E+02  0.46078773886E+02  0.18194861020E+03  0.23026768967E+03  0.12509000000E+03 0.  0.
         25    1    4    4    0    0  0.10500894958E+02 -0.41764514295E+02  0.53763304691E+03  0.55367079088E+03  0.12509000000E+03 0.  0.
         25    1    4    4    0    0 -0.56838251936E+02 -0.43142595904E+01  0.45699615126E+03  0.47722341737E+03  0.12509000000E+03 0.  0.
<mgrwt>
<rscale>  2 0.45408589E+03</rscale>
<asrwt>0</asrwt>
<pdfrwt beam="1">  1       21 0.17924554E+00 0.45408589E+03</pdfrwt>
<pdfrwt beam="2">  1       21 0.62194191E-02 0.45408589E+03</pdfrwt>
<totfact> 0.30480107E+04</totfact>
</mgrwt>
</event>
<event>
 7    0  0.4732500E-002  0.4455523E+03  0.7546771E-02  0.1029057E+00
         21   -1    0    0  502  501  0.00000000000E+00  0.00000000000E+00  0.22164076595E+03  0.22164076595E+03  0.00000000000E+00 0.  1.
         21   -1    0    0  501  502 -0.00000000000E+00 -0.00000000000E+00 -0.22391732572E+03  0.22391732572E+03  0.00000000000E+00 0.  1.
      99926    2    1    2    0    0  0.00000000000E+00  0.00000000000E+00 -0.22765597656E+01  0.44555809167E+03  0.44555227564E+03 0.  0.
      99925    2    3    3    0    0 -0.24613878293E+02  0.30458883666E+02 -0.98147497209E+02  0.28316249030E+03  0.26270606789E+03 0.  0.
         25    1    4    4    0    0 -0.44249630426E+02  0.32853748158E+02 -0.69378726134E+02  0.15329159892E+03  0.12509000000E+03 0.  0.
         25    1    3    3    0    0  0.24613878293E+02 -0.30458883666E+02  0.95870937443E+02  0.16239560137E+03  0.12509000000E+03 0.  0.
         25    1    4    4    0    0  0.19635752133E+02 -0.23948644921E+01 -0.28768771075E+02  0.12987089138E+03  0.12509000000E+03 0.  0.
<mgrwt>
<rscale>  2 0.44555228E+03</rscale>
<asrwt>0</asrwt>
<pdfrwt beam="1">  1       21 0.32594230E-01 0.44555228E+03</pdfrwt>
<pdfrwt beam="2">  1       21 0.32929018E-01 0.44555228E+03</pdfrwt>
<totfact> 0.74718766E+04</totfact>
</mgrwt>
</event>
<event>
 7    0  0.4732500E-002  0.4496055E+03  0.7546771E-02  0.1027840E+00
         21   -1    0    0  502  501  0.00000000000E+00  0.00000000000E+00  0.22256068965E+03  0.22256068965E+03  0.00000000000E+00 0. -1.
         21   -1    0    0  501  502 -0.00000000000E+00 -0.00000000000E+00 -0.22706742578E+03  0.22706742578E+03  0.00000000000E+00 0. -1.
      99926    2    1    2    0    0  0.14210854715E-13  0.00000000000E+00 -0.45067361279E+01  0.44962811544E+03  0.44960552879E+03 0.  0.
      99925    2    3    3    0    0  0.89418363766E+02  0.91717521838E+01 -0.62994693009E+02  0.28486126799E+03  0.26286469112E+03 0.  0.
         25    1    4    4    0    0  0.55542129580E+02  0.29424733162E+02 -0.15218578374E+01  0.14000202581E+03  0.12509000000E+03 0.  0.
         25    1    3    3    0    0 -0.89418363766E+02 -0.91717521838E+01  0.58487956881E+02  0.16476684744E+03  0.12509000000E+03 0.  0.
         25    1    4    4    0    0  0.33876234186E+02 -0.20252980978E+02 -0.61472835172E+02  0.14485924218E+03  0.12509000000E+03 0.  0.
<mgrwt>
<rscale>  2 0.44960553E+03</rscale>
<asrwt>0</asrwt>
<pdfrwt beam="1">  1       21 0.32729513E-01 0.44960553E+03</pdfrwt>
<pdfrwt beam="2">  1       21 0.33392268E-01 0.44960553E+03</pdfrwt>
<totfact> 0.71990216E+04</totfact>
</mgrwt>
</event>
<event>
 7    0  0.4732500E-002  0.4011238E+03  0.7546771E-02  0.1043391E+00
         21   -1    0    0  502  501  0.00000000000E+00  0.00000000000E+00  0.15033973993E+03  0.15033973993E+03  0.00000000000E+00 0.  1.
         21   -1    0    0  501  502 -0.00000000000E+00 -0.00000000000E+00 -0.26756115627E+03  0.26756115627E+03  0.00000000000E+00 0.  1.
      99926    2    1    2    0    0  0.00000000000E+00  0.00000000000E+00 -0.11722141634E+03  0.41790089619E+03  0.40112379460E+03 0.  0.
      99925    2    3    3    0    0  0.32431867591E+02  0.33929250617E+02 -0.85914431733E+02  0.28067606073E+03  0.26304893348E+03 0.  0.
         25    1    3    3    0    0 -0.32431867591E+02 -0.33929250617E+02 -0.31306984604E+02  0.13722483546E+03  0.12509000000E+03 0.  0.
         25    1    4    4    0    0 -0.21354424703E+02  0.18279077808E+02 -0.58391315088E+02  0.14088005507E+03  0.12509000000E+03 0.  0.
         25    1    4    4    0    0  0.53786292294E+02  0.15650172809E+02 -0.27523116645E+02  0.13979600566E+03  0.12509000000E+03 0.  0.
<mgrwt>
<rscale>  2 0.40112379E+03</rscale>
<asrwt>0</asrwt>
<pdfrwt beam="1">  1       21 0.22108785E-01 0.40112379E+03</pdfrwt>
<pdfrwt beam="2">  1       21 0.39347229E-01 0.40112379E+03</pdfrwt>
<totfact> 0.11240500E+05</totfact>
</mgrwt>
</event>
<event>
 7    0  0.4732500E-002  0.4524027E+03  0.7546771E-02  0.1027008E+00
         21   -1    0    0  502  501  0.00000000000E+00  0.00000000000E+00  0.33219297283E+03  0.33219297283E+03  0.00000000000E+00 0.  1.
         21   -1    0    0  501  502 -0.00000000000E+00 -0.00000000000E+00 -0.15402808707E+03  0.15402808707E+03  0.00000000000E+00 0.  1.
      99926    2    1    2    0    0  0.00000000000E+00  0.00000000000E+00  0.17816488575E+03  0.48622105990E+03  0.45240268851E+03 0.  0.
      99925    2    3    3    0    0  0.40966720828E+02 -0.67838896598E+02  0.29333287777E+02  0.27627168323E+03  0.26303082154E+03 0.  0.
         25    1    3    3    0    0 -0.40966720828E+02  0.67838896598E+02  0.14883159798E+03  0.20994937667E+03  0.12509000000E+03 0.  0.
         25    1    4    4    0    0  0.54515488763E+02 -0.46156444713E+02  0.35805870262E+02  0.14843154769E+03  0.12509000000E+03 0.  0.
         25    1    4    4    0    0 -0.13548767936E+02 -0.21682451886E+02 -0.64725824846E+01  0.12784013555E+03  0.12509000000E+03 0.  0.
<mgrwt>
<rscale>  2 0.45240269E+03</rscale>
<asrwt>0</asrwt>
<pdfrwt beam="1">  1       21 0.48851908E-01 0.45240269E+03</pdfrwt>
<pdfrwt beam="2">  1       21 0.22651189E-01 0.45240269E+03</pdfrwt>
<totfact> 0.67633789E+04</totfact>
</mgrwt>
</event>
<event>
 6    0  0.4732500E-002  0.4540379E+03  0.7546771E-02  0.1026525E+00
         21   -1    0    0  502  501  0.00000000000E+00  0.00000000000E+00  0.44204640365E+03  0.44204640365E+03  0.00000000000E+00 0.  1.
         21   -1    0    0  501  502 -0.00000000000E+00 -0.00000000000E+00 -0.11658867613E+03  0.11658867613E+03  0.00000000000E+00 0.  1.
      99926    2    1    2    0    0  0.14210854715E-13  0.00000000000E+00  0.32545772752E+03  0.55863507979E+03  0.45403790587E+03 0.  0.
         25    1    3    3    0    0  0.53769083160E+02 -0.50194636863E+02  0.71872348595E+02  0.16193751408E+03  0.12509000000E+03 0.  0.
         25    1    3    3    0    0 -0.10073768750E+03  0.42473378921E+02  0.10410479953E+03  0.19605455105E+03  0.12509000000E+03 0.  0.
         25    1    3    3    0    0  0.46968604340E+02  0.77212579415E+01  0.14948057939E+03  0.20064301466E+03  0.12509000000E+03 0.  0.
<mgrwt>
<rscale>  2 0.45403791E+03</rscale>
<asrwt>0</asrwt>
<pdfrwt beam="1">  1       21 0.65006823E-01 0.45403791E+03</pdfrwt>
<pdfrwt beam="2">  1       21 0.17145394E-01 0.45403791E+03</pdfrwt>
<totfact> 0.61768215E+04</totfact>
</mgrwt>
</event>
<event>
 7    0  0.4732500E-002  0.4482259E+03  0.7546771E-02  0.1028252E+00
         21   -1    0    0  502  501  0.00000000000E+00  0.00000000000E+00  0.17573842720E+03  0.17573842720E+03  0.00000000000E+00 0.  1.
         21   -1    0    0  501  502 -0.00000000000E+00 -0.00000000000E+00 -0.28580323770E+03  0.28580323770E+03  0.00000000000E+00 0.  1.
      99926    2    1    2    0    0  0.17763568394E-14  0.71054273576E-14 -0.11006481050E+03  0.46154166491E+03  0.44822588718E+03 0.  0.
      99925    2    3    3    0    0 -0.81370964716E+01 -0.35127576053E+02 -0.17313378504E+03  0.31688565021E+03  0.26294685555E+03 0.  0.
         25    1    4    4    0    0  0.20583773876E+02  0.12382412191E+02 -0.68599065914E+02  0.14467327266E+03  0.12509000000E+03 0.  0.
         25    1    4    4    0    0 -0.28720870347E+02 -0.47509988244E+02 -0.10453471913E+03  0.17221237755E+03  0.12509000000E+03 0.  0.
         25    1    3    3    0    0  0.81370964716E+01  0.35127576053E+02  0.63068974544E+02  0.14465601470E+03  0.12509000000E+03 0.  0.
<mgrwt>
<rscale>  2 0.44822589E+03</rscale>
<asrwt>0</asrwt>
<pdfrwt beam="1">  1       21 0.25843887E-01 0.44822589E+03</pdfrwt>
<pdfrwt beam="2">  1       21 0.42029888E-01 0.44822589E+03</pdfrwt>
<totfact> 0.71854210E+04</totfact>
</mgrwt>
</event>
<event>
 7    0  0.4732500E-002  0.4584542E+03  0.7546771E-02  0.1025230E+00
         21   -1    0    0  502  501  0.00000000000E+00  0.00000000000E+00  0.94850743564E+02  0.94850743564E+02  0.00000000000E+00 0. -1.
         21   -1    0    0  501  502 -0.00000000000E+00 -0.00000000000E+00 -0.55397630277E+03  0.55397630277E+03  0.00000000000E+00 0. -1.
      99926    2    1    2    0    0  0.00000000000E+00 -0.14210854715E-13 -0.45912555920E+03  0.64882704633E+03  0.45845420375E+03 0.  0.
      99925    2    3    3    0    0 -0.81258683098E+02 -0.82426757967E+02 -0.26979331191E+03  0.39408923608E+03  0.26290825554E+03 0.  0.
         25    1    3    3    0    0  0.81258683098E+02  0.82426757967E+02 -0.18933224729E+03  0.25473781025E+03  0.12509000000E+03 0.  0.
         25    1    4    4    0    0 -0.22390501075E+02 -0.76411652397E+02 -0.12685032082E+03  0.19513735458E+03  0.12509000000E+03 0.  0.
         25    1    4    4    0    0 -0.58868182023E+02 -0.60151055694E+01 -0.14294299109E+03  0.19895188150E+03  0.12509000000E+03 0.  0.
<mgrwt>
<rscale>  2 0.45845420E+03</rscale>
<asrwt>0</asrwt>
<pdfrwt beam="1">  1       21 0.13948639E-01 0.45845420E+03</pdfrwt>
<pdfrwt beam="2">  1       21 0.81467101E-01 0.45845420E+03</pdfrwt>
<totfact> 0.54274829E+04</totfact>
</mgrwt>
</event>
<event>
 7    0  0.4732500E-002  0.4529053E+03  0.7546771E-02  0.1026859E+00
         21   -1    0    0  502  501  0.00000000000E+00  0.00000000000E+00  0.25078900443E+03  0.25078900443E+03  0.00000000000E+00 0. -1.
         21   -1    0    0  501  502 -0.00000000000E+00 -0.00000000000E+00 -0.20447789451E+03  0.20447789451E+03  0.00000000000E+00 0. -1.
      99926    2    1    2    0    0  0.00000000000E+00  0.22204460493E-15  0.46311109916E+02  0.45526689894E+03  0.45290532164E+03 0.  0.
      99925    2    3    3    0    0  0.75581815284E+02  0.16686858202E+01  0.10999802214E+03  0.29583375872E+03  0.26401259933E+03 0.  0.
         25    1    3    3    0    0 -0.75581815284E+02 -0.16686858202E+01 -0.63686912228E+02  0.15943314023E+03  0.12509000000E+03 0.  0.
         25    1    4    4    0    0  0.72626749865E+02  0.15186547420E+02  0.35965907509E+02  0.14982099526E+03  0.12509000000E+03 0.  0.
         25    1    4    4    0    0  0.29550654196E+01 -0.13517861600E+02  0.74032114635E+02  0.14601276345E+03  0.12509000000E+03 0.  0.
<mgrwt>
<rscale>  2 0.45290532E+03</rscale>
<asrwt>0</asrwt>
<pdfrwt beam="1">  1       21 0.36880736E-01 0.45290532E+03</pdfrwt>
<pdfrwt beam="2">  1       21 0.30070278E-01 0.45290532E+03</pdfrwt>
<totfact> 0.69683550E+04</totfact>
</mgrwt>
</event>
<event>
 7    0  0.4732500E-002  0.4554905E+03  0.7546771E-02  0.1026097E+00
         21   -1    0    0  502  501  0.00000000000E+00  0.00000000000E+00  0.82173269434E+03  0.82173269434E+03  0.00000000000E+00 0. -1.
         21   -1    0    0  501  502 -0.00000000000E+00 -0.00000000000E+00 -0.63120149839E+02  0.63120149839E+02  0.00000000000E+00 0. -1.
      99926    2    1    2    0    0  0.35527136788E-14  0.00000000000E+00  0.75861254451E+03  0.88485284418E+03  0.45549046442E+03 0.  0.
      99925    2    3    3    0    0 -0.27011826876E+02 -0.60359860557E+02  0.65673774129E+03  0.71049994003E+03  0.26293107916E+03 0.  0.
         25    1    4    4    0    0 -0.28458628149E+02 -0.45550734994E+02  0.24948745386E+03  0.28421164774E+03  0.12509000000E+03 0.  0.
         25    1    3    3    0    0  0.27011826876E+02  0.60359860557E+02  0.10187480322E+03  0.17435290416E+03  0.12509000000E+03 0.  0.
         25    1    4    4    0    0  0.14468012727E+01 -0.14809125563E+02  0.40725028743E+03  0.42628829229E+03  0.12509000000E+03 0.  0.
<mgrwt>
<rscale>  2 0.45549046E+03</rscale>
<asrwt>0</asrwt>
<pdfrwt beam="1">  1       21 0.12084304E+00 0.45549046E+03</pdfrwt>
<pdfrwt beam="2">  1       21 0.92823755E-02 0.45549046E+03</pdfrwt>
<totfact> 0.43726902E+04</totfact>
</mgrwt>
</event>
<event>
 7    0  0.4732500E-002  0.4544733E+03  0.7546771E-02  0.1026396E+00
         21   -1    0    0  502  501  0.00000000000E+00  0.00000000000E+00  0.23547125773E+03  0.23547125773E+03  0.00000000000E+00 0.  1.
         21   -1    0    0  501  502 -0.00000000000E+00 -0.00000000000E+00 -0.21929001325E+03  0.21929001325E+03  0.00000000000E+00 0.  1.
      99926    2    1    2    0    0  0.00000000000E+00  0.71054273576E-14  0.16181244481E+02  0.45476127099E+03  0.45447330055E+03 0.  0.
      99925    2    3    3    0    0  0.10478516466E+03 -0.35498950844E+02 -0.11724366706E+02  0.28544990847E+03  0.26287655511E+03 0.  0.
         25    1    4    4    0    0  0.92396552091E+02 -0.35312521979E+02 -0.87450820187E+01  0.15971249671E+03  0.12509000000E+03 0.  0.
         25    1    3    3    0    0 -0.10478516466E+03  0.35498950844E+02  0.27905611187E+02  0.16931136252E+03  0.12509000000E+03 0.  0.
         25    1    4    4    0    0  0.12388612565E+02 -0.18642886535E+00 -0.29792846877E+01  0.12573741175E+03  0.12509000000E+03 0.  0.
<mgrwt>
<rscale>  2 0.45447330E+03</rscale>
<asrwt>0</asrwt>
<pdfrwt beam="1">  1       21 0.34628126E-01 0.45447330E+03</pdfrwt>
<pdfrwt beam="2">  1       21 0.32248531E-01 0.45447330E+03</pdfrwt>
<totfact> 0.68852196E+04</totfact>
</mgrwt>
</event>
<event>
 7    0  0.4732500E-002  0.4540747E+03  0.7546771E-02  0.1026514E+00
         21   -1    0    0  502  501  0.00000000000E+00  0.00000000000E+00  0.39937186019E+02  0.39937186019E+02  0.00000000000E+00 0.  1.
         21   -1    0    0  501  502 -0.00000000000E+00 -0.00000000000E+00 -0.12906755190E+04  0.12906755190E+04  0.00000000000E+00 0.  1.
      99926    2    1    2    0    0  0.00000000000E+00  0.00000000000E+00 -0.12507383329E+04  0.13306127050E+04  0.45407465594E+03 0.  0.
      99925    2    3    3    0    0  0.52759963915E+02  0.93508958413E+02 -0.69238441397E+03  0.74843219515E+03  0.26311030944E+03 0.  0.
         25    1    4    4    0    0  0.52971944707E+02  0.16069052540E+02 -0.34967226824E+03  0.37547629040E+03  0.12509000000E+03 0.  0.
         25    1    3    3    0    0 -0.52759963915E+02 -0.93508958413E+02 -0.55835391897E+03  0.58218050983E+03  0.12509000000E+03 0.  0.
         25    1    4    4    0    0 -0.21198079189E+00  0.77439905873E+02 -0.34271214573E+03  0.37295590475E+03  0.12509000000E+03 0.  0.
<mgrwt>
<rscale>  2 0.45407466E+03</rscale>
<asrwt>0</asrwt>
<pdfrwt beam="1">  1       21 0.58731163E-02 0.45407466E+03</pdfrwt>
<pdfrwt beam="2">  1       21 0.18980520E+00 0.45407466E+03</pdfrwt>
<totfact> 0.28442581E+04</totfact>
</mgrwt>
</event>
<event>
 6    0  0.4732500E-002  0.4539621E+03  0.7546771E-02  0.1026547E+00
         21   -1    0    0  502  501  0.00000000000E+00  0.00000000000E+00  0.22990247918E+03  0.22990247918E+03  0.00000000000E+00 0. -1.
         21   -1    0    0  501  502 -0.00000000000E+00 -0.00000000000E+00 -0.22409678234E+03  0.22409678234E+03  0.00000000000E+00 0. -1.
      99926    2    1    2    0    0  0.00000000000E+00  0.00000000000E+00  0.58056968407E+01  0.45399926152E+03  0.45396213867E+03 0.  0.
         25    1    3    3    0    0  0.78191896045E+02  0.44620426272E+02 -0.57387554646E+02  0.16445605667E+03  0.12509000000E+03 0.  0.
         25    1    3    3    0    0 -0.23740270026E+02 -0.26308829683E+01 -0.12518577723E+02  0.12796384198E+03  0.12509000000E+03 0.  0.
         25    1    3    3    0    0 -0.54451626019E+02 -0.41989543304E+02  0.75711829210E+02  0.16157936287E+03  0.12509000000E+03 0.  0.
<mgrwt>
<rscale>  2 0.45396214E+03</rscale>
<asrwt>0</asrwt>
<pdfrwt beam="1">  1       21 0.33809188E-01 0.45396214E+03</pdfrwt>
<pdfrwt beam="2">  1       21 0.32955409E-01 0.45396214E+03</pdfrwt>
<totfact> 0.69190363E+04</totfact>
</mgrwt>
</event>
<event>
 7    0  0.4732500E-002  0.4544159E+03  0.7546771E-02  0.1026413E+00
         21   -1    0    0  502  501  0.00000000000E+00  0.00000000000E+00  0.48281791971E+02  0.48281791971E+02  0.00000000000E+00 0.  1.
         21   -1    0    0  501  502 -0.00000000000E+00 -0.00000000000E+00 -0.10692115879E+04  0.10692115879E+04  0.00000000000E+00 0.  1.
      99926    2    1    2    0    0  0.00000000000E+00  0.00000000000E+00 -0.10209297960E+04  0.11174933799E+04  0.45441589524E+03 0.  0.
      99925    2    3    3    0    0  0.38593458197E+02  0.92122779568E+02 -0.51494498247E+03  0.58679176777E+03  0.26302125813E+03 0.  0.
         25    1    3    3    0    0 -0.38593458197E+02 -0.92122779568E+02 -0.50598481348E+03  0.53070161212E+03  0.12509000000E+03 0.  0.
         25    1    4    4    0    0 -0.14506665439E+02  0.67631226100E+02 -0.24784470881E+03  0.28611000309E+03  0.12509000000E+03 0.  0.
         25    1    4    4    0    0  0.53100123636E+02  0.24491553468E+02 -0.26710027366E+03  0.30068176468E+03  0.12509000000E+03 0.  0.
<mgrwt>
<rscale>  2 0.45441590E+03</rscale>
<asrwt>0</asrwt>
<pdfrwt beam="1">  1       21 0.71002634E-02 0.45441590E+03</pdfrwt>
<pdfrwt beam="2">  1       21 0.15723700E+00 0.45441590E+03</pdfrwt>
<totfact> 0.35045706E+04</totfact>
</mgrwt>
</event>
<event>
 7    0  0.4732500E-002  0.4510351E+03  0.7546771E-02  0.1027414E+00
         21   -1    0    0  502  501  0.00000000000E+00  0.00000000000E+00  0.28466398879E+03  0.28466398879E+03  0.00000000000E+00 0. -1.
         21   -1    0    0  501  502 -0.00000000000E+00 -0.00000000000E+00 -0.17866032557E+03  0.17866032557E+03  0.00000000000E+00 0. -1.
      99926    2    1    2    0    0  0.00000000000E+00  0.00000000000E+00  0.10600366323E+03  0.46332431436E+03  0.45103508030E+03 0.  0.
      99925    2    3    3    0    0  0.99100477223E+02  0.45663815047E+02  0.74768958511E+02  0.29441841313E+03  0.26303177801E+03 0.  0.
         25    1    4    4    0    0  0.22717099834E+02 -0.10319377971E+02  0.40444516815E+02  0.13381264225E+03  0.12509000000E+03 0.  0.
         25    1    4    4    0    0  0.76383377389E+02  0.55983193018E+02  0.34324441697E+02  0.16060577088E+03  0.12509000000E+03 0.  0.
         25    1    3    3    0    0 -0.99100477223E+02 -0.45663815047E+02  0.31234704717E+02  0.16890590123E+03  0.12509000000E+03 0.  0.
<mgrwt>
<rscale>  2 0.45103508E+03</rscale>
<asrwt>0</asrwt>
<pdfrwt beam="1">  1       21 0.41862351E-01 0.45103508E+03</pdfrwt>
<pdfrwt beam="2">  1       21 0.26273577E-01 0.45103508E+03</pdfrwt>
<totfact> 0.70115024E+04</totfact>
</mgrwt>
</event>
<event>
 7    0  0.4732500E-002  0.4542663E+03  0.7546771E-02  0.1026457E+00
         21   -1    0    0  502  501  0.00000000000E+00  0.00000000000E+00  0.49875208687E+03  0.49875208687E+03  0.00000000000E+00 0.  1.
         21   -1    0    0  501  502 -0.00000000000E+00 -0.00000000000E+00 -0.10343707874E+03  0.10343707874E+03  0.00000000000E+00 0.  1.
      99926    2    1    2    0    0  0.00000000000E+00  0.00000000000E+00  0.39531500813E+03  0.60218916562E+03  0.45426626062E+03 0.  0.
      99925    2    3    3    0    0 -0.69617504975E+02 -0.85826033557E+02  0.22101000259E+03  0.36085444351E+03  0.26297871231E+03 0.  0.
         25    1    4    4    0    0 -0.27341400188E+02 -0.55868483270E+01  0.12450432059E+03  0.17868295661E+03  0.12509000000E+03 0.  0.
         25    1    4    4    0    0 -0.42276104788E+02 -0.80239185230E+02  0.96505681997E+02  0.18217148690E+03  0.12509000000E+03 0.  0.
         25    1    3    3    0    0  0.69617504975E+02  0.85826033557E+02  0.17430500554E+03  0.24133472210E+03  0.12509000000E+03 0.  0.
<mgrwt>
<rscale>  2 0.45426626E+03</rscale>
<asrwt>0</asrwt>
<pdfrwt beam="1">  1       21 0.73345895E-01 0.45426626E+03</pdfrwt>
<pdfrwt beam="2">  1       21 0.15211335E-01 0.45426626E+03</pdfrwt>
<totfact> 0.58884336E+04</totfact>
</mgrwt>
</event>
<event>
 7    0  0.4732500E-002  0.4552629E+03  0.7546771E-02  0.1026164E+00
         21   -1    0    0  502  501  0.00000000000E+00  0.00000000000E+00  0.61756738308E+03  0.61756738308E+03  0.00000000000E+00 0.  1.
         21   -1    0    0  501  502 -0.00000000000E+00 -0.00000000000E+00 -0.83903528025E+02  0.83903528025E+02  0.00000000000E+00 0.  1.
      99926    2    1    2    0    0  0.00000000000E+00  0.00000000000E+00  0.53366385506E+03  0.70147091111E+03  0.45526292287E+03 0.  0.
      99925    2    3    3    0    0 -0.19853034031E+02 -0.20130663295E+02  0.50492382705E+03  0.57004456719E+03  0.26306529779E+03 0.  0.
         25    1    4    4    0    0  0.39662136000E+01  0.28319441678E+02  0.24140098709E+03  0.27338556343E+03  0.12509000000E+03 0.  0.
         25    1    4    4    0    0 -0.23819247631E+02 -0.48450104973E+02  0.26352283996E+03  0.29665900376E+03  0.12509000000E+03 0.  0.
         25    1    3    3    0    0  0.19853034031E+02  0.20130663295E+02  0.28740028008E+02  0.13142634391E+03  0.12509000000E+03 0.  0.
<mgrwt>
<rscale>  2 0.45526292E+03</rscale>
<asrwt>0</asrwt>
<pdfrwt beam="1">  1       21 0.90818731E-01 0.45526292E+03</pdfrwt>
<pdfrwt beam="2">  1       21 0.12338754E-01 0.45526292E+03</pdfrwt>
<totfact> 0.52714012E+04</totfact>
</mgrwt>
</event>
<event>
 7    0  0.4732500E-002  0.4566059E+03  0.7546771E-02  0.1025770E+00
         21   -1    0    0  502  501  0.00000000000E+00  0.00000000000E+00  0.52086035693E+02  0.52086035693E+02  0.00000000000E+00 0.  1.
         21   -1    0    0  501  502 -0.00000000000E+00 -0.00000000000E+00 -0.10006948497E+04  0.10006948497E+04  0.00000000000E+00 0.  1.
      99926    2    1    2    0    0  0.71054273576E-14  0.00000000000E+00 -0.94860881396E+03  0.10527808853E+04  0.45660585917E+03 0.  0.
      99925    2    3    3    0    0  0.39101645213E+02  0.41658565478E+02 -0.36679139163E+03  0.45493191130E+03  0.26298810660E+03 0.  0.
         25    1    3    3    0    0 -0.39101645213E+02 -0.41658565478E+02 -0.58181742234E+03  0.59784897405E+03  0.12509000000E+03 0.  0.
         25    1    4    4    0    0  0.32806811813E+02  0.59835897151E+02 -0.18907661859E+03  0.23675746511E+03  0.12509000000E+03 0.  0.
         25    1    4    4    0    0  0.62948333998E+01 -0.18177331673E+02 -0.17771477303E+03  0.21817444619E+03  0.12509000000E+03 0.  0.
<mgrwt>
<rscale>  2 0.45660586E+03</rscale>
<asrwt>0</asrwt>
<pdfrwt beam="1">  1       21 0.76597123E-02 0.45660586E+03</pdfrwt>
<pdfrwt beam="2">  1       21 0.14716098E+00 0.45660586E+03</pdfrwt>
<totfact> 0.36713199E+04</totfact>
</mgrwt>
</event>
<event>
 7    0  0.4732500E-002  0.4455134E+03  0.7546771E-02  0.1029069E+00
         21   -1    0    0  502  501  0.00000000000E+00  0.00000000000E+00  0.19685862460E+03  0.19685862460E+03  0.00000000000E+00 0.  1.
         21   -1    0    0  501  502 -0.00000000000E+00 -0.00000000000E+00 -0.25206180039E+03  0.25206180039E+03  0.00000000000E+00 0.  1.
      99926    2    1    2    0    0  0.00000000000E+00  0.00000000000E+00 -0.55203175784E+02  0.44892042499E+03  0.44551336383E+03 0.  0.
      99925    2    3    3    0    0 -0.21327254872E+02 -0.84916462241E+02 -0.92690265108E+02  0.29169941072E+03  0.26235739671E+03 0.  0.
         25    1    4    4    0    0  0.22424833134E+02 -0.30509041920E+02 -0.24210822920E+02  0.13291857217E+03  0.12509000000E+03 0.  0.
         25    1    4    4    0    0 -0.43752088007E+02 -0.54407420320E+02 -0.68479442188E+02  0.15878083856E+03  0.12509000000E+03 0.  0.
         25    1    3    3    0    0  0.21327254872E+02  0.84916462241E+02  0.37487089325E+02  0.15722101426E+03  0.12509000000E+03 0.  0.
<mgrwt>
<rscale>  2 0.44551336E+03</rscale>
<asrwt>0</asrwt>
<pdfrwt beam="1">  1       21 0.28949798E-01 0.44551336E+03</pdfrwt>
<pdfrwt beam="2">  1       21 0.37067912E-01 0.44551336E+03</pdfrwt>
<totfact> 0.74472360E+04</totfact>
</mgrwt>
</event>
<event>
 7    0  0.4732500E-002  0.4557190E+03  0.7546771E-02  0.1026030E+00
         21   -1    0    0  502  501  0.00000000000E+00  0.00000000000E+00  0.16739320848E+03  0.16739320848E+03  0.00000000000E+00 0.  1.
         21   -1    0    0  501  502 -0.00000000000E+00 -0.00000000000E+00 -0.31016761065E+03  0.31016761065E+03  0.00000000000E+00 0.  1.
      99926    2    1    2    0    0  0.71054273576E-14  0.71054273576E-14 -0.14277440217E+03  0.47756081913E+03  0.45571899900E+03 0.  0.
      99925    2    3    3    0    0 -0.51610330256E+02 -0.37812846364E+02  0.84511414245E+01  0.27113865299E+03  0.26334636852E+03 0.  0.
         25    1    3    3    0    0  0.51610330256E+02  0.37812846364E+02 -0.15122554359E+03  0.20642216614E+03  0.12509000000E+03 0.  0.
         25    1    4    4    0    0 -0.40559118696E+02 -0.42483660705E+02  0.35316979712E+02  0.14263485090E+03  0.12509000000E+03 0.  0.
         25    1    4    4    0    0 -0.11051211560E+02  0.46708143404E+01 -0.26865838288E+02  0.12850380209E+03  0.12509000000E+03 0.  0.
<mgrwt>
<rscale>  2 0.45571900E+03</rscale>
<asrwt>0</asrwt>
<pdfrwt beam="1">  1       21 0.24616648E-01 0.45571900E+03</pdfrwt>
<pdfrwt beam="2">  1       21 0.45612884E-01 0.45571900E+03</pdfrwt>
<totfact> 0.66497807E+04</totfact>
</mgrwt>
</event>
<event>
 7    0  0.4732500E-002  0.4534213E+03  0.7546771E-02  0.1026707E+00
         21   -1    0    0  502  501  0.00000000000E+00  0.00000000000E+00  0.17055001186E+04  0.17055001186E+04  0.00000000000E+00 0.  1.
         21   -1    0    0  501  502 -0.00000000000E+00 -0.00000000000E+00 -0.30136451470E+02  0.30136451470E+02  0.00000000000E+00 0.  1.
      99926    2    1    2    0    0  0.28421709430E-13 -0.17763568394E-14  0.16753636671E+04  0.17356365701E+04  0.45342131205E+03 0.  0.
      99925    2    3    3    0    0  0.74411684546E+02 -0.15262434609E+02  0.13688018860E+04  0.13959342380E+04  0.26314207723E+03 0.  0.
         25    1    4    4    0    0  0.78340071211E+01  0.11536606876E+02  0.52349612426E+03  0.53841449198E+03  0.12509000000E+03 0.  0.
         25    1    4    4    0    0  0.66577677425E+02 -0.26799041485E+02  0.84530576178E+03  0.85751974599E+03  0.12509000000E+03 0.  0.
         25    1    3    3    0    0 -0.74411684546E+02  0.15262434609E+02  0.30656178108E+03  0.33970233209E+03  0.12509000000E+03 0.  0.
<mgrwt>
<rscale>  2 0.45342131E+03</rscale>
<asrwt>0</asrwt>
<pdfrwt beam="1">  1       21 0.25080878E+00 0.45342131E+03</pdfrwt>
<pdfrwt beam="2">  1       21 0.44318322E-02 0.45342131E+03</pdfrwt>
<totfact> 0.18758486E+04</totfact>
</mgrwt>
</event>
<event>
 7    0  0.4732500E-002  0.4537259E+03  0.7546771E-02  0.1026617E+00
         21   -1    0    0  502  501  0.00000000000E+00  0.00000000000E+00  0.12480405720E+03  0.12480405720E+03  0.00000000000E+00 0. -1.
         21   -1    0    0  501  502 -0.00000000000E+00 -0.00000000000E+00 -0.41238089360E+03  0.41238089360E+03  0.00000000000E+00 0. -1.
      99926    2    1    2    0    0  0.61062266354E-15  0.14210854715E-13 -0.28757683640E+03  0.53718495081E+03  0.45372594651E+03 0.  0.
      99925    2    3    3    0    0  0.23317824431E+00  0.89646383635E+02 -0.25860454982E+03  0.38058536600E+03  0.26444730884E+03 0.  0.
         25    1    3    3    0    0 -0.23317824431E+00 -0.89646383635E+02 -0.28972286578E+02  0.15659958480E+03  0.12509000000E+03 0.  0.
         25    1    4    4    0    0 -0.25448834073E+02  0.79702407910E+02 -0.12669762104E+03  0.19672293273E+03  0.12509000000E+03 0.  0.
         25    1    4    4    0    0  0.25682012317E+02  0.99439757252E+01 -0.13190692878E+03  0.18386243328E+03  0.12509000000E+03 0.  0.
<mgrwt>
<rscale>  2 0.45372595E+03</rscale>
<asrwt>0</asrwt>
<pdfrwt beam="1">  1       21 0.18353538E-01 0.45372595E+03</pdfrwt>
<pdfrwt beam="2">  1       21 0.60644249E-01 0.45372595E+03</pdfrwt>
<totfact> 0.63357820E+04</totfact>
</mgrwt>
</event>
<event>
 7    0  0.4732500E-002  0.4495036E+03  0.7546771E-02  0.1027870E+00
         21   -1    0    0  502  501  0.00000000000E+00  0.00000000000E+00  0.70304875642E+02  0.70304875642E+02  0.00000000000E+00 0.  1.
         21   -1    0    0  501  502 -0.00000000000E+00 -0.00000000000E+00 -0.71849020709E+03  0.71849020709E+03  0.00000000000E+00 0.  1.
      99926    2    1    2    0    0  0.00000000000E+00  0.00000000000E+00 -0.64818533144E+03  0.78879508273E+03  0.44950356910E+03 0.  0.
      99925    2    3    3    0    0  0.95654068523E+02 -0.49779627858E+02 -0.40094244759E+03  0.49146653736E+03  0.26297680295E+03 0.  0.
         25    1    4    4    0    0  0.39082378212E+02 -0.99339007730E+01 -0.25668421032E+03  0.28837546116E+03  0.12509000000E+03 0.  0.
         25    1    4    4    0    0  0.56571690311E+02 -0.39845727085E+02 -0.14425823727E+03  0.20309107620E+03  0.12509000000E+03 0.  0.
         25    1    3    3    0    0 -0.95654068523E+02  0.49779627858E+02 -0.24724288385E+03  0.29732854537E+03  0.12509000000E+03 0.  0.
<mgrwt>
<rscale>  2 0.44950357E+03</rscale>
<asrwt>0</asrwt>
<pdfrwt beam="1">  1       21 0.10338952E-01 0.44950357E+03</pdfrwt>
<pdfrwt beam="2">  1       21 0.10566033E+00 0.44950357E+03</pdfrwt>
<totfact> 0.50453127E+04</totfact>
</mgrwt>
</event>
<event>
 7    0  0.4732500E-002  0.4524545E+03  0.7546771E-02  0.1026993E+00
         21   -1    0    0  502  501  0.00000000000E+00  0.00000000000E+00  0.35053324613E+02  0.35053324613E+02  0.00000000000E+00 0. -1.
         21   -1    0    0  501  502 -0.00000000000E+00 -0.00000000000E+00 -0.14600261196E+04  0.14600261196E+04  0.00000000000E+00 0. -1.
      99926    2    1    2    0    0  0.71054273576E-14  0.00000000000E+00 -0.14249727949E+04  0.14950794442E+04  0.45245450385E+03 0.  0.
      99925    2    3    3    0    0  0.35243132423E+02 -0.10447951903E+03 -0.92985067920E+03  0.97263187179E+03  0.26312055060E+03 0.  0.
         25    1    3    3    0    0 -0.35243132423E+02  0.10447951903E+03 -0.49512211575E+03  0.52244757237E+03  0.12509000000E+03 0.  0.
         25    1    4    4    0    0  0.48386610630E+02 -0.81637786719E+02 -0.48554620054E+03  0.51030247233E+03  0.12509000000E+03 0.  0.
         25    1    4    4    0    0 -0.13143478207E+02 -0.22841732306E+02 -0.44430447866E+03  0.46232939946E+03  0.12509000000E+03 0.  0.
<mgrwt>
<rscale>  2 0.45245450E+03</rscale>
<asrwt>0</asrwt>
<pdfrwt beam="1">  1       21 0.51549010E-02 0.45245450E+03</pdfrwt>
<pdfrwt beam="2">  1       21 0.21470971E+00 0.45245450E+03</pdfrwt>
<totfact> 0.24378439E+04</totfact>
</mgrwt>
</event>
<event>
 7    0  0.4732500E-002  0.4548222E+03  0.7546771E-02  0.1026294E+00
         21   -1    0    0  502  501  0.00000000000E+00  0.00000000000E+00  0.23889622856E+02  0.23889622856E+02  0.00000000000E+00 0. -1.
         21   -1    0    0  501  502 -0.00000000000E+00 -0.00000000000E+00 -0.21647813662E+04  0.21647813662E+04  0.00000000000E+00 0. -1.
      99926    2    1    2    0    0  0.00000000000E+00  0.00000000000E+00 -0.21408917433E+04  0.21886709890E+04  0.45482220880E+03 0.  0.
      99925    2    3    3    0    0 -0.86309059459E+02  0.12289559109E+02 -0.16933197406E+04  0.17158406889E+04  0.26301566256E+03 0.  0.
         25    1    3    3    0    0  0.86309059459E+02 -0.12289559109E+02 -0.44757200269E+03  0.47283030011E+03  0.12509000000E+03 0.  0.
         25    1    4    4    0    0 -0.50990762865E+02  0.36322803425E+02 -0.70721663513E+03  0.72091766593E+03  0.12509000000E+03 0.  0.
         25    1    4    4    0    0 -0.35318296594E+02 -0.24033244316E+02 -0.98610310548E+03  0.99492302298E+03  0.12509000000E+03 0.  0.
<mgrwt>
<rscale>  2 0.45482221E+03</rscale>
<asrwt>0</asrwt>
<pdfrwt beam="1">  1       21 0.35131790E-02 0.45482221E+03</pdfrwt>
<pdfrwt beam="2">  1       21 0.31835028E+00 0.45482221E+03</pdfrwt>
<totfact> 0.10881931E+04</totfact>
</mgrwt>
</event>
<event>
 7    0  0.4732500E-002  0.4685097E+03  0.7546771E-02  0.1022342E+00
         21   -1    0    0  502  501  0.00000000000E+00  0.00000000000E+00  0.72886850050E+03  0.72886850050E+03  0.00000000000E+00 0.  1.
         21   -1    0    0  501  502 -0.00000000000E+00 -0.00000000000E+00 -0.75288391735E+02  0.75288391735E+02  0.00000000000E+00 0.  1.
      99926    2    1    2    0    0  0.00000000000E+00  0.00000000000E+00  0.65358010876E+03  0.80415689223E+03  0.46850971042E+03 0.  0.
      99925    2    3    3    0    0  0.52117999707E+02 -0.10962100501E+03  0.35232511578E+03  0.45611216877E+03  0.26300622171E+03 0.  0.
         25    1    4    4    0    0  0.64741688762E+02 -0.73370120568E+02  0.19402685221E+03  0.25073609300E+03  0.12509000000E+03 0.  0.
         25    1    4    4    0    0 -0.12623689055E+02 -0.36250884441E+02  0.15829826357E+03  0.20537607577E+03  0.12509000000E+03 0.  0.
         25    1    3    3    0    0 -0.52117999707E+02  0.10962100501E+03  0.30125499298E+03  0.34804472346E+03  0.12509000000E+03 0.  0.
<mgrwt>
<rscale>  2 0.46850971E+03</rscale>
<asrwt>0</asrwt>
<pdfrwt beam="1">  1       21 0.10718654E+00 0.46850971E+03</pdfrwt>
<pdfrwt beam="2">  1       21 0.11071823E-01 0.46850971E+03</pdfrwt>
<totfact> 0.42838917E+04</totfact>
</mgrwt>
</event>
<event>
 7    0  0.4732500E-002  0.4575400E+03  0.7546771E-02  0.1025497E+00
         21   -1    0    0  502  501  0.00000000000E+00  0.00000000000E+00  0.29962441302E+03  0.29962441302E+03  0.00000000000E+00 0. -1.
         21   -1    0    0  501  502 -0.00000000000E+00 -0.00000000000E+00 -0.17467106542E+03  0.17467106542E+03  0.00000000000E+00 0. -1.
      99926    2    1    2    0    0  0.00000000000E+00  0.00000000000E+00  0.12495334760E+03  0.47429547843E+03  0.45754001113E+03 0.  0.
      99925    2    3    3    0    0  0.54227372978E+02 -0.91177842116E+02  0.12594736746E+03  0.31027565327E+03  0.26297192772E+03 0.  0.
         25    1    4    4    0    0 -0.56670395876E+01 -0.17864730601E+02  0.50400923127E+02  0.13615808859E+03  0.12509000000E+03 0.  0.
         25    1    4    4    0    0  0.59894412566E+02 -0.73313111515E+02  0.75546444331E+02  0.17411756467E+03  0.12509000000E+03 0.  0.
         25    1    3    3    0    0 -0.54227372978E+02  0.91177842116E+02 -0.99401985565E+00  0.16401982517E+03  0.12509000000E+03 0.  0.
<mgrwt>
<rscale>  2 0.45754001E+03</rscale>
<asrwt>0</asrwt>
<pdfrwt beam="1">  1       21 0.44062414E-01 0.45754001E+03</pdfrwt>
<pdfrwt beam="2">  1       21 0.25686921E-01 0.45754001E+03</pdfrwt>
<totfact> 0.65781956E+04</totfact>
</mgrwt>
</event>
<event>
 7    0  0.4732500E-002  0.4530353E+03  0.7546771E-02  0.1026821E+00
         21   -1    0    0  502  501  0.00000000000E+00  0.00000000000E+00  0.64869536487E+02  0.64869536487E+02  0.00000000000E+00 0.  1.
         21   -1    0    0  501  502 -0.00000000000E+00 -0.00000000000E+00 -0.79097593803E+03  0.79097593803E+03  0.00000000000E+00 0.  1.
      99926    2    1    2    0    0  0.00000000000E+00  0.00000000000E+00 -0.72610640154E+03  0.85584547452E+03  0.45303528548E+03 0.  0.
      99925    2    3    3    0    0 -0.17678409295E+02  0.32655674338E+02 -0.65581037158E+03  0.70762955381E+03  0.26319844744E+03 0.  0.
         25    1    4    4    0    0  0.21756039485E+02  0.11342737090E+02 -0.39265606890E+03  0.41282960103E+03  0.12509000000E+03 0.  0.
         25    1    4    4    0    0 -0.39434448781E+02  0.21312937248E+02 -0.26315430268E+03  0.29479995278E+03  0.12509000000E+03 0.  0.
         25    1    3    3    0    0  0.17678409295E+02 -0.32655674338E+02 -0.70296029967E+02  0.14821592071E+03  0.12509000000E+03 0.  0.
<mgrwt>
<rscale>  2 0.45303529E+03</rscale>
<asrwt>0</asrwt>
<pdfrwt beam="1">  1       21 0.95396385E-02 0.45303529E+03</pdfrwt>
<pdfrwt beam="2">  1       21 0.11631998E+00 0.45303529E+03</pdfrwt>
<totfact> 0.45882018E+04</totfact>
</mgrwt>
</event>
<event>
 7    0  0.4732500E-002  0.4690667E+03  0.7546771E-02  0.1022184E+00
         21   -1    0    0  502  501  0.00000000000E+00  0.00000000000E+00  0.45808392486E+02  0.45808392486E+02  0.00000000000E+00 0.  1.
         21   -1    0    0  501  502 -0.00000000000E+00 -0.00000000000E+00 -0.12007819979E+04  0.12007819979E+04  0.00000000000E+00 0.  1.
      99926    2    1    2    0    0  0.14210854715E-13  0.00000000000E+00 -0.11549736054E+04  0.12465903904E+04  0.46906670336E+03 0.  0.
      99925    2    3    3    0    0  0.64630270599E+02  0.22430826734E+02 -0.43835404014E+03  0.51592540334E+03  0.26333352129E+03 0.  0.
         25    1    4    4    0    0  0.40266204113E+02  0.10815639704E+02 -0.14563939693E+03  0.19646039625E+03  0.12509000000E+03 0.  0.
         25    1    4    4    0    0  0.24364066486E+02  0.11615187030E+02 -0.29271464321E+03  0.31946500709E+03  0.12509000000E+03 0.  0.
         25    1    3    3    0    0 -0.64630270599E+02 -0.22430826734E+02 -0.71661956526E+03  0.73066498704E+03  0.12509000000E+03 0.  0.
<mgrwt>
<rscale>  2 0.46906670E+03</rscale>
<asrwt>0</asrwt>
<pdfrwt beam="1">  1       21 0.67365281E-02 0.46906670E+03</pdfrwt>
<pdfrwt beam="2">  1       21 0.17658559E+00 0.46906670E+03</pdfrwt>
<totfact> 0.27561971E+04</totfact>
</mgrwt>
</event>
<event>
 7    0  0.4732500E-002  0.4569240E+03  0.7546771E-02  0.1025677E+00
         21   -1    0    0  502  501  0.00000000000E+00  0.00000000000E+00  0.15009895946E+03  0.15009895946E+03  0.00000000000E+00 0. -1.
         21   -1    0    0  501  502 -0.00000000000E+00 -0.00000000000E+00 -0.34773644497E+03  0.34773644497E+03  0.00000000000E+00 0. -1.
      99926    2    1    2    0    0  0.00000000000E+00  0.00000000000E+00 -0.19763748552E+03  0.49783540443E+03  0.45692396985E+03 0.  0.
      99925    2    3    3    0    0 -0.96774573161E+02 -0.23388328477E+02 -0.18680754459E+03  0.33759456182E+03  0.26298421537E+03 0.  0.
         25    1    4    4    0    0 -0.32899974577E+02  0.17407680348E+02 -0.11805096491E+03  0.17598003886E+03  0.12509000000E+03 0.  0.
         25    1    4    4    0    0 -0.63874598584E+02 -0.40796008825E+02 -0.68756579679E+02  0.16161452295E+03  0.12509000000E+03 0.  0.
         25    1    3    3    0    0  0.96774573161E+02  0.23388328477E+02 -0.10829940925E+02  0.16024084261E+03  0.12509000000E+03 0.  0.
<mgrwt>
<rscale>  2 0.45692397E+03</rscale>
<asrwt>0</asrwt>
<pdfrwt beam="1">  1       21 0.22073376E-01 0.45692397E+03</pdfrwt>
<pdfrwt beam="2">  1       21 0.51137713E-01 0.45692397E+03</pdfrwt>
<totfact> 0.64433255E+04</totfact>
</mgrwt>
</event>
<event>
 7    0  0.4732500E-002  0.4659816E+03  0.7546771E-02  0.1023061E+00
         21   -1    0    0  502  501  0.00000000000E+00  0.00000000000E+00  0.28223169114E+03  0.28223169114E+03  0.00000000000E+00 0. -1.
         21   -1    0    0  501  502 -0.00000000000E+00 -0.00000000000E+00 -0.19234093920E+03  0.19234093920E+03  0.00000000000E+00 0. -1.
      99926    2    1    2    0    0  0.14210854715E-13  0.17763568394E-14  0.89890751942E+02  0.47457263034E+03  0.46598158138E+03 0.  0.
      99925    2    3    3    0    0 -0.71208313671E+02 -0.82547491516E+01  0.15805067818E+03  0.31509834256E+03  0.26299844826E+03 0.  0.
         25    1    3    3    0    0  0.71208313671E+02  0.82547491516E+01 -0.68159926239E+02  0.15947428778E+03  0.12509000000E+03 0.  0.
         25    1    4    4    0    0 -0.37468345514E+01  0.21719277880E+02  0.81456919805E+02  0.15089235794E+03  0.12509000000E+03 0.  0.
         25    1    4    4    0    0 -0.67461479119E+02 -0.29974027032E+02  0.76593758376E+02  0.16420598462E+03  0.12509000000E+03 0.  0.
<mgrwt>
<rscale>  2 0.46598158E+03</rscale>
<asrwt>0</asrwt>
<pdfrwt beam="1">  1       21 0.41504661E-01 0.46598158E+03</pdfrwt>
<pdfrwt beam="2">  1       21 0.28285432E-01 0.46598158E+03</pdfrwt>
<totfact> 0.61554042E+04</totfact>
</mgrwt>
</event>
<event>
 7    0  0.4732500E-002  0.4380458E+03  0.7546771E-02  0.1031348E+00
         21   -1    0    0  502  501  0.00000000000E+00  0.00000000000E+00  0.42962059004E+02  0.42962059004E+02  0.00000000000E+00 0.  1.
         21   -1    0    0  501  502 -0.00000000000E+00 -0.00000000000E+00 -0.11165904397E+04  0.11165904397E+04  0.00000000000E+00 0.  1.
      99926    2    1    2    0    0  0.00000000000E+00  0.71054273576E-14 -0.10736283807E+04  0.11595524987E+04  0.43804577091E+03 0.  0.
      99925    2    3    3    0    0 -0.37559421762E+02 -0.33660771216E+02 -0.90390616138E+03  0.94276482029E+03  0.26308819834E+03 0.  0.
         25    1    4    4    0    0  0.45639777457E+01 -0.39581380644E+02 -0.53632824575E+03  0.55216212372E+03  0.12509000000E+03 0.  0.
         25    1    4    4    0    0 -0.42123399508E+02  0.59206094279E+01 -0.36757791563E+03  0.39060269656E+03  0.12509000000E+03 0.  0.
         25    1    3    3    0    0  0.37559421762E+02  0.33660771216E+02 -0.16972221929E+03  0.21678767839E+03  0.12509000000E+03 0.  0.
<mgrwt>
<rscale>  2 0.43804577E+03</rscale>
<asrwt>0</asrwt>
<pdfrwt beam="1">  1       21 0.63179498E-02 0.43804577E+03</pdfrwt>
<pdfrwt beam="2">  1       21 0.16420448E+00 0.43804577E+03</pdfrwt>
<totfact> 0.38277800E+04</totfact>
</mgrwt>
</event>
<event>
 7    0  0.4732500E-002  0.4092590E+03  0.7546771E-02  0.1040620E+00
         21   -1    0    0  502  501  0.00000000000E+00  0.00000000000E+00  0.31343807173E+03  0.31343807173E+03  0.00000000000E+00 0.  1.
         21   -1    0    0  501  502 -0.00000000000E+00 -0.00000000000E+00 -0.13359328717E+03  0.13359328717E+03  0.00000000000E+00 0.  1.
      99926    2    1    2    0    0  0.00000000000E+00 -0.35527136788E-14  0.17984478456E+03  0.44703135890E+03  0.40925895140E+03 0.  0.
      99925    2    3    3    0    0  0.54290524201E+02  0.24937815580E+02  0.10336837631E+03  0.28871046709E+03  0.26286756537E+03 0.  0.
         25    1    4    4    0    0  0.28727841333E+02  0.44039720926E+02  0.25861541846E+02  0.13813440315E+03  0.12509000000E+03 0.  0.
         25    1    4    4    0    0  0.25562682868E+02 -0.19101905347E+02  0.77506834464E+02  0.15057606394E+03  0.12509000000E+03 0.  0.
         25    1    3    3    0    0 -0.54290524201E+02 -0.24937815580E+02  0.76476408248E+02  0.15832089181E+03  0.12509000000E+03 0.  0.
<mgrwt>
<rscale>  2 0.40925895E+03</rscale>
<asrwt>0</asrwt>
<pdfrwt beam="1">  1       21 0.46093834E-01 0.40925895E+03</pdfrwt>
<pdfrwt beam="2">  1       21 0.19646072E-01 0.40925895E+03</pdfrwt>
<totfact> 0.10123517E+05</totfact>
</mgrwt>
</event>
<event>
 7    0  0.4732500E-002  0.4550279E+03  0.7546771E-02  0.1026233E+00
         21   -1    0    0  502  501  0.00000000000E+00  0.00000000000E+00  0.39113884603E+03  0.39113884603E+03  0.00000000000E+00 0. -1.
         21   -1    0    0  501  502 -0.00000000000E+00 -0.00000000000E+00 -0.13233818898E+03  0.13233818898E+03  0.00000000000E+00 0. -1.
      99926    2    1    2    0    0  0.00000000000E+00  0.00000000000E+00  0.25880065704E+03  0.52347703501E+03  0.45502793990E+03 0.  0.
      99925    2    3    3    0    0 -0.38015436381E+02  0.81370763552E+02  0.24100359526E+03  0.36845891325E+03  0.26384249708E+03 0.  0.
         25    1    3    3    0    0  0.38015436381E+02 -0.81370763552E+02  0.17797061787E+02  0.15501812176E+03  0.12509000000E+03 0.  0.
         25    1    4    4    0    0  0.20346236365E+02  0.55077770622E+02  0.12093723993E+03  0.18363238890E+03  0.12509000000E+03 0.  0.
         25    1    4    4    0    0 -0.58361672746E+02  0.26292992930E+02  0.12006635532E+03  0.18482652435E+03  0.12509000000E+03 0.  0.
<mgrwt>
<rscale>  2 0.45502794E+03</rscale>
<asrwt>0</asrwt>
<pdfrwt beam="1">  1       21 0.57520418E-01 0.45502794E+03</pdfrwt>
<pdfrwt beam="2">  1       21 0.19461498E-01 0.45502794E+03</pdfrwt>
<totfact> 0.63636119E+04</totfact>
</mgrwt>
</event>
<event>
 7    0  0.4732500E-002  0.4165160E+03  0.7546771E-02  0.1038206E+00
         21   -1    0    0  502  501  0.00000000000E+00  0.00000000000E+00  0.21293788802E+03  0.21293788802E+03  0.00000000000E+00 0.  1.
         21   -1    0    0  501  502 -0.00000000000E+00 -0.00000000000E+00 -0.20368094042E+03  0.20368094042E+03  0.00000000000E+00 0.  1.
      99926    2    1    2    0    0  0.71054273576E-14  0.00000000000E+00  0.92569475990E+01  0.41661882844E+03  0.41651597464E+03 0.  0.
      99925    2    3    3    0    0 -0.60324813217E+02  0.10846134646E+02 -0.30225605565E+02  0.27183242773E+03  0.26310180502E+03 0.  0.
         25    1    4    4    0    0  0.10465041867E+02  0.12621574299E+02 -0.83611322236E+01  0.12643669511E+03  0.12509000000E+03 0.  0.
         25    1    4    4    0    0 -0.70789855083E+02 -0.17754396529E+01 -0.21864473341E+02  0.14539573262E+03  0.12509000000E+03 0.  0.
         25    1    3    3    0    0  0.60324813217E+02 -0.10846134646E+02  0.39482553164E+02  0.14478640071E+03  0.12509000000E+03 0.  0.
<mgrwt>
<rscale>  2 0.41651597E+03</rscale>
<asrwt>0</asrwt>
<pdfrwt beam="1">  1       21 0.31314395E-01 0.41651597E+03</pdfrwt>
<pdfrwt beam="2">  1       21 0.29953080E-01 0.41651597E+03</pdfrwt>
<totfact> 0.98362018E+04</totfact>
</mgrwt>
</event>
<event>
 7    0  0.4732500E-002  0.4543971E+03  0.7546771E-02  0.1026419E+00
         21   -1    0    0  502  501  0.00000000000E+00  0.00000000000E+00  0.74740043946E+03  0.74740043946E+03  0.00000000000E+00 0.  1.
         21   -1    0    0  501  502 -0.00000000000E+00 -0.00000000000E+00 -0.69064959877E+02  0.69064959877E+02  0.00000000000E+00 0.  1.
      99926    2    1    2    0    0  0.00000000000E+00  0.00000000000E+00  0.67833547958E+03  0.81646539934E+03  0.45439710106E+03 0.  0.
      99925    2    3    3    0    0  0.40884004074E+02  0.51369759289E+01  0.61537444391E+03  0.67048769411E+03  0.26300218900E+03 0.  0.
         25    1    4    4    0    0  0.32540830260E+02 -0.96475569903E+01  0.40404835182E+03  0.42432836306E+03  0.12509000000E+03 0.  0.
         25    1    4    4    0    0  0.83431738146E+01  0.14784532919E+02  0.21132609209E+03  0.24615933105E+03  0.12509000000E+03 0.  0.
         25    1    3    3    0    0 -0.40884004074E+02 -0.51369759289E+01  0.62961035671E+02  0.14597770523E+03  0.12509000000E+03 0.  0.
<mgrwt>
<rscale>  2 0.45439710E+03</rscale>
<asrwt>0</asrwt>
<pdfrwt beam="1">  1       21 0.10991182E+00 0.45439710E+03</pdfrwt>
<pdfrwt beam="2">  1       21 0.10156612E-01 0.45439710E+03</pdfrwt>
<totfact> 0.47201603E+04</totfact>
</mgrwt>
</event>
<event>
 7    0  0.4732500E-002  0.4552325E+03  0.7546771E-02  0.1026173E+00
         21   -1    0    0  502  501  0.00000000000E+00  0.00000000000E+00  0.16888104335E+04  0.16888104335E+04  0.00000000000E+00 0.  1.
         21   -1    0    0  501  502 -0.00000000000E+00 -0.00000000000E+00 -0.30677893345E+02  0.30677893345E+02  0.00000000000E+00 0.  1.
      99926    2    1    2    0    0  0.00000000000E+00  0.00000000000E+00  0.16581325401E+04  0.17194883268E+04  0.45523245208E+03 0.  0.
      99925    2    3    3    0    0 -0.16114426481E+02 -0.74877056072E+01  0.61706715444E+03  0.67078418081E+03  0.26241913737E+03 0.  0.
         25    1    4    4    0    0  0.63267745775E+01  0.30351063225E+01  0.39855650945E+03  0.41778468052E+03  0.12509000000E+03 0.  0.
         25    1    4    4    0    0 -0.22441201058E+02 -0.10522811930E+02  0.21851064499E+03  0.25299950029E+03  0.12509000000E+03 0.  0.
         25    1    3    3    0    0  0.16114426481E+02  0.74877056072E+01  0.10410653857E+04  0.10487041460E+04  0.12509000000E+03 0.  0.
<mgrwt>
<rscale>  2 0.45523245E+03</rscale>
<asrwt>0</asrwt>
<pdfrwt beam="1">  1       21 0.24835441E+00 0.45523245E+03</pdfrwt>
<pdfrwt beam="2">  1       21 0.45114560E-02 0.45523245E+03</pdfrwt>
<totfact> 0.18825011E+04</totfact>
</mgrwt>
</event>
<event>
 7    0  0.4732500E-002  0.4748423E+03  0.7546771E-02  0.1020562E+00
         21   -1    0    0  502  501  0.00000000000E+00  0.00000000000E+00  0.44011431035E+04  0.44011431035E+04  0.00000000000E+00 0.  1.
         21   -1    0    0  501  502 -0.00000000000E+00 -0.00000000000E+00 -0.12807764939E+02  0.12807764939E+02  0.00000000000E+00 0.  1.
      99926    2    1    2    0    0  0.00000000000E+00  0.00000000000E+00  0.43883353386E+04  0.44139508685E+04  0.47484231628E+03 0.  0.
      99925    2    3    3    0    0 -0.11360258015E+03  0.65130219062E+02  0.27352254748E+04  0.27509514031E+04  0.26292153406E+03 0.  0.
         25    1    4    4    0    0 -0.66755694843E+02  0.23781429470E+02  0.17434106915E+04  0.17493285073E+04  0.12509000000E+03 0.  0.
         25    1    4    4    0    0 -0.46846885304E+02  0.41348789592E+02  0.99181478329E+03  0.10016228959E+04  0.12509000000E+03 0.  0.
         25    1    3    3    0    0  0.11360258015E+03 -0.65130219062E+02  0.16531098639E+04  0.16629994653E+04  0.12509000000E+03 0.  0.
<mgrwt>
<rscale>  2 0.47484232E+03</rscale>
<asrwt>0</asrwt>
<pdfrwt beam="1">  1       21 0.64722587E+00 0.47484232E+03</pdfrwt>
<pdfrwt beam="2">  1       21 0.18834979E-02 0.47484232E+03</pdfrwt>
<totfact> 0.14781690E+02</totfact>
</mgrwt>
</event>
<event>
 7    0  0.4732500E-002  0.4520671E+03  0.7546771E-02  0.1027107E+00
         21   -1    0    0  502  501  0.00000000000E+00  0.00000000000E+00  0.10939957235E+03  0.10939957235E+03  0.00000000000E+00 0. -1.
         21   -1    0    0  501  502 -0.00000000000E+00 -0.00000000000E+00 -0.46701424541E+03  0.46701424541E+03  0.00000000000E+00 0. -1.
      99926    2    1    2    0    0  0.00000000000E+00  0.00000000000E+00 -0.35761467306E+03  0.57641381777E+03  0.45206706905E+03 0.  0.
      99925    2    3    3    0    0 -0.14572776364E+02  0.99707723757E+02 -0.28322710184E+03  0.39939682751E+03  0.26295672385E+03 0.  0.
         25    1    4    4    0    0  0.23115544286E+02  0.46915770606E+02 -0.17685563718E+03  0.22284712792E+03  0.12509000000E+03 0.  0.
         25    1    4    4    0    0 -0.37688320650E+02  0.52791953151E+02 -0.10637146467E+03  0.17654969959E+03  0.12509000000E+03 0.  0.
         25    1    3    3    0    0  0.14572776364E+02 -0.99707723757E+02 -0.74387571220E+02  0.17701699026E+03  0.12509000000E+03 0.  0.
<mgrwt>
<rscale>  2 0.45206707E+03</rscale>
<asrwt>0</asrwt>
<pdfrwt beam="1">  1       21 0.16088172E-01 0.45206707E+03</pdfrwt>
<pdfrwt beam="2">  1       21 0.68678566E-01 0.45206707E+03</pdfrwt>
<totfact> 0.61569421E+04</totfact>
</mgrwt>
</event>
<event>
 7    0  0.4732500E-002  0.4510522E+03  0.7546771E-02  0.1027409E+00
         21   -1    0    0  502  501  0.00000000000E+00  0.00000000000E+00  0.28968592684E+02  0.28968592684E+02  0.00000000000E+00 0.  1.
         21   -1    0    0  501  502 -0.00000000000E+00 -0.00000000000E+00 -0.17557643167E+04  0.17557643167E+04  0.00000000000E+00 0.  1.
      99926    2    1    2    0    0  0.00000000000E+00  0.00000000000E+00 -0.17267957241E+04  0.17847329094E+04  0.45105219805E+03 0.  0.
      99925    2    3    3    0    0 -0.35830877435E+02 -0.44549992019E+02 -0.72118456612E+03  0.76976007105E+03  0.26297306898E+03 0.  0.
         25    1    3    3    0    0  0.35830877435E+02  0.44549992019E+02 -0.10056111579E+04  0.10149728384E+04  0.12509000000E+03 0.  0.
         25    1    4    4    0    0  0.18002282027E+02 -0.19248315157E+01 -0.33345350662E+03  0.35660417315E+03  0.12509000000E+03 0.  0.
         25    1    4    4    0    0 -0.53833159462E+02 -0.42625160504E+02 -0.38773105950E+03  0.41315589790E+03  0.12509000000E+03 0.  0.
<mgrwt>
<rscale>  2 0.45105220E+03</rscale>
<asrwt>0</asrwt>
<pdfrwt beam="1">  1       21 0.42600869E-02 0.45105220E+03</pdfrwt>
<pdfrwt beam="2">  1       21 0.25820065E+00 0.45105220E+03</pdfrwt>
<totfact> 0.18103163E+04</totfact>
</mgrwt>
</event>
<event>
 7    0  0.4732500E-002  0.4537772E+03  0.7546771E-02  0.1026602E+00
         21   -1    0    0  502  501  0.00000000000E+00  0.00000000000E+00  0.49635119242E+03  0.49635119242E+03  0.00000000000E+00 0.  1.
         21   -1    0    0  501  502 -0.00000000000E+00 -0.00000000000E+00 -0.10371374028E+03  0.10371374028E+03  0.00000000000E+00 0.  1.
      99926    2    1    2    0    0  0.71054273576E-14 -0.14210854715E-13  0.39263745214E+03  0.60006493270E+03  0.45377720815E+03 0.  0.
      99925    2    3    3    0    0  0.51556379777E+02 -0.77427204823E+02  0.32987753303E+03  0.43201926067E+03  0.26299890199E+03 0.  0.
         25    1    3    3    0    0 -0.51556379777E+02  0.77427204823E+02  0.62759919112E+02  0.16804567203E+03  0.12509000000E+03 0.  0.
         25    1    4    4    0    0  0.35396854898E+02  0.17619782646E+01  0.15653972524E+03  0.20349013633E+03  0.12509000000E+03 0.  0.
         25    1    4    4    0    0  0.16159524879E+02 -0.79189183087E+02  0.17333780779E+03  0.22852912434E+03  0.12509000000E+03 0.  0.
<mgrwt>
<rscale>  2 0.45377721E+03</rscale>
<asrwt>0</asrwt>
<pdfrwt beam="1">  1       21 0.72992821E-01 0.45377721E+03</pdfrwt>
<pdfrwt beam="2">  1       21 0.15252021E-01 0.45377721E+03</pdfrwt>
<totfact> 0.59244592E+04</totfact>
</mgrwt>
</event>
<event>
 7    0  0.4732500E-002  0.4546987E+03  0.7546771E-02  0.1026330E+00
         21   -1    0    0  502  501  0.00000000000E+00  0.00000000000E+00  0.80763668174E+02  0.80763668174E+02  0.00000000000E+00 0.  1.
         21   -1    0    0  501  502 -0.00000000000E+00 -0.00000000000E+00 -0.63998744953E+03  0.63998744953E+03  0.00000000000E+00 0.  1.
      99926    2    1    2    0    0  0.00000000000E+00  0.00000000000E+00 -0.55922378136E+03  0.72075111770E+03  0.45469873107E+03 0.  0.
      99925    2    3    3    0    0  0.33740373135E+02 -0.10658857424E+03 -0.32704408481E+03  0.43429962700E+03  0.26298059941E+03 0.  0.
         25    1    4    4    0    0 -0.12687630664E+02 -0.43758613770E+02 -0.19644287478E+03  0.23730382088E+03  0.12509000000E+03 0.  0.
         25    1    3    3    0    0 -0.33740373135E+02  0.10658857424E+03 -0.23217969655E+03  0.28645149071E+03  0.12509000000E+03 0.  0.
         25    1    4    4    0    0  0.46428003800E+02 -0.62829960467E+02 -0.13060121002E+03  0.19699580612E+03  0.12509000000E+03 0.  0.
<mgrwt>
<rscale>  2 0.45469873E+03</rscale>
<asrwt>0</asrwt>
<pdfrwt beam="1">  1       21 0.11877011E-01 0.45469873E+03</pdfrwt>
<pdfrwt beam="2">  1       21 0.94115795E-01 0.45469873E+03</pdfrwt>
<totfact> 0.51913695E+04</totfact>
</mgrwt>
</event>
<event>
 7    0  0.4732500E-002  0.4569001E+03  0.7546771E-02  0.1025684E+00
         21   -1    0    0  502  501  0.00000000000E+00  0.00000000000E+00  0.28527639844E+02  0.28527639844E+02  0.00000000000E+00 0. -1.
         21   -1    0    0  501  502 -0.00000000000E+00 -0.00000000000E+00 -0.18294338485E+04  0.18294338485E+04  0.00000000000E+00 0. -1.
      99926    2    1    2    0    0  0.00000000000E+00  0.00000000000E+00 -0.18009062087E+04  0.18579614884E+04  0.45690012016E+03 0.  0.
      99925    2    3    3    0    0  0.76486641961E+02 -0.43004132314E+02 -0.82973077141E+03  0.87483952246E+03  0.26304272512E+03 0.  0.
         25    1    4    4    0    0  0.35266152672E+02 -0.62106002898E+02 -0.44631626109E+03  0.46898461610E+03  0.12509000000E+03 0.  0.
         25    1    4    4    0    0  0.41220489288E+02  0.19101870584E+02 -0.38341451032E+03  0.40585490636E+03  0.12509000000E+03 0.  0.
         25    1    3    3    0    0 -0.76486641961E+02  0.43004132314E+02 -0.97117543726E+03  0.98312196590E+03  0.12509000000E+03 0.  0.
<mgrwt>
<rscale>  2 0.45690012E+03</rscale>
<asrwt>0</asrwt>
<pdfrwt beam="1">  1       21 0.41952400E-02 0.45690012E+03</pdfrwt>
<pdfrwt beam="2">  1       21 0.26903446E+00 0.45690012E+03</pdfrwt>
<totfact> 0.15934414E+04</totfact>
</mgrwt>
</event>
<event>
 7    0  0.4732500E-002  0.4568094E+03  0.7546771E-02  0.1025711E+00
         21   -1    0    0  502  501  0.00000000000E+00  0.00000000000E+00  0.14452980896E+03  0.14452980896E+03  0.00000000000E+00 0.  1.
         21   -1    0    0  501  502 -0.00000000000E+00 -0.00000000000E+00 -0.36095469800E+03  0.36095469800E+03  0.00000000000E+00 0.  1.
      99926    2    1    2    0    0 -0.14210854715E-13  0.35527136788E-14 -0.21642488904E+03  0.50548450696E+03  0.45680942874E+03 0.  0.
      99925    2    3    3    0    0  0.71156076367E+02  0.23359508108E+02 -0.23229810138E+03  0.35882735305E+03  0.26303195162E+03 0.  0.
         25    1    4    4    0    0  0.65691158911E+02  0.36448272003E+02 -0.14439835830E+03  0.20528565189E+03  0.12509000000E+03 0.  0.
         25    1    4    4    0    0  0.54649174568E+01 -0.13088763895E+02 -0.87899743083E+02  0.15354170117E+03  0.12509000000E+03 0.  0.
         25    1    3    3    0    0 -0.71156076367E+02 -0.23359508108E+02  0.15873212342E+02  0.14665715391E+03  0.12509000000E+03 0.  0.
<mgrwt>
<rscale>  2 0.45680943E+03</rscale>
<asrwt>0</asrwt>
<pdfrwt beam="1">  1       21 0.21254384E-01 0.45680943E+03</pdfrwt>
<pdfrwt beam="2">  1       21 0.53081572E-01 0.45680943E+03</pdfrwt>
<totfact> 0.63963452E+04</totfact>
</mgrwt>
</event>
<event>
 7    0  0.4732500E-002  0.3965026E+03  0.7546771E-02  0.1044997E+00
         21   -1    0    0  502  501  0.00000000000E+00  0.00000000000E+00  0.42078788103E+03  0.42078788103E+03  0.00000000000E+00 0.  1.
         21   -1    0    0  501  502 -0.00000000000E+00 -0.00000000000E+00 -0.93404740732E+02  0.93404740732E+02  0.00000000000E+00 0.  1.
      99926    2    1    2    0    0  0.00000000000E+00  0.00000000000E+00  0.32738314030E+03  0.51419262176E+03  0.39650262512E+03 0.  0.
      99925    2    3    3    0    0 -0.29138199533E+02 -0.20887513605E+02  0.23630112441E+03  0.35535696892E+03  0.26297344175E+03 0.  0.
         25    1    4    4    0    0 -0.77295736819E+01 -0.37690390631E+02  0.15851952087E+03  0.20556327116E+03  0.12509000000E+03 0.  0.
         25    1    4    4    0    0 -0.21408625851E+02  0.16802877026E+02  0.77781603546E+02  0.14979369776E+03  0.12509000000E+03 0.  0.
         25    1    3    3    0    0  0.29138199533E+02  0.20887513605E+02  0.91082015887E+02  0.15883565284E+03  0.12509000000E+03 0.  0.
<mgrwt>
<rscale>  2 0.39650263E+03</rscale>
<asrwt>0</asrwt>
<pdfrwt beam="1">  1       21 0.61880570E-01 0.39650263E+03</pdfrwt>
<pdfrwt beam="2">  1       21 0.13735991E-01 0.39650263E+03</pdfrwt>
<totfact> 0.10520409E+05</totfact>
</mgrwt>
</event>
<event>
 7    0  0.4732500E-002  0.4556846E+03  0.7546771E-02  0.1026040E+00
         21   -1    0    0  502  501  0.00000000000E+00  0.00000000000E+00  0.44322888330E+02  0.44322888330E+02  0.00000000000E+00 0.  1.
         21   -1    0    0  501  502 -0.00000000000E+00 -0.00000000000E+00 -0.11712257360E+04  0.11712257360E+04  0.00000000000E+00 0.  1.
      99926    2    1    2    0    0  0.00000000000E+00  0.00000000000E+00 -0.11269028477E+04  0.12155486244E+04  0.45568457296E+03 0.  0.
      99925    2    3    3    0    0 -0.70398279859E+02 -0.48464595733E+02 -0.50817158639E+03  0.57853950617E+03  0.26299213701E+03 0.  0.
         25    1    3    3    0    0  0.70398279859E+02  0.48464595733E+02 -0.61873126132E+03  0.63700911821E+03  0.12509000000E+03 0.  0.
         25    1    4    4    0    0 -0.49286587695E+02 -0.11156125264E+02 -0.33119640356E+03  0.35762017937E+03  0.12509000000E+03 0.  0.
         25    1    4    4    0    0 -0.21111692163E+02 -0.37308470469E+02 -0.17697518283E+03  0.22091932680E+03  0.12509000000E+03 0.  0.
<mgrwt>
<rscale>  2 0.45568457E+03</rscale>
<asrwt>0</asrwt>
<pdfrwt beam="1">  1       21 0.65180725E-02 0.45568457E+03</pdfrwt>
<pdfrwt beam="2">  1       21 0.17223906E+00 0.45568457E+03</pdfrwt>
<totfact> 0.31498707E+04</totfact>
</mgrwt>
</event>
<event>
 7    0  0.4732500E-002  0.4556694E+03  0.7546771E-02  0.1026045E+00
         21   -1    0    0  502  501  0.00000000000E+00  0.00000000000E+00  0.11422162355E+03  0.11422162355E+03  0.00000000000E+00 0.  1.
         21   -1    0    0  501  502 -0.00000000000E+00 -0.00000000000E+00 -0.45445545843E+03  0.45445545843E+03  0.00000000000E+00 0.  1.
      99926    2    1    2    0    0  0.00000000000E+00  0.00000000000E+00 -0.34023383488E+03  0.56867708199E+03  0.45566935510E+03 0.  0.
      99925    2    3    3    0    0  0.79561566126E+02 -0.14013932032E+02 -0.11392403215E+03  0.29777106875E+03  0.26298762554E+03 0.  0.
         25    1    4    4    0    0  0.29161836632E+02 -0.51086428093E+01 -0.98080280185E+02  0.16169032256E+03  0.12509000000E+03 0.  0.
         25    1    4    4    0    0  0.50399729494E+02 -0.89052892229E+01 -0.15843751966E+02  0.13608074620E+03  0.12509000000E+03 0.  0.
         25    1    3    3    0    0 -0.79561566126E+02  0.14013932032E+02 -0.22630980273E+03  0.27090601323E+03  0.12509000000E+03 0.  0.
<mgrwt>
<rscale>  2 0.45566936E+03</rscale>
<asrwt>0</asrwt>
<pdfrwt beam="1">  1       21 0.16797298E-01 0.45566936E+03</pdfrwt>
<pdfrwt beam="2">  1       21 0.66831684E-01 0.45566936E+03</pdfrwt>
<totfact> 0.60328950E+04</totfact>
</mgrwt>
</event>
<event>
 6    0  0.4732500E-002  0.4526979E+03  0.7546771E-02  0.1026921E+00
         21   -1    0    0  502  501  0.00000000000E+00  0.00000000000E+00  0.25991720420E+03  0.25991720420E+03  0.00000000000E+00 0. -1.
         21   -1    0    0  501  502 -0.00000000000E+00 -0.00000000000E+00 -0.19711601309E+03  0.19711601309E+03  0.00000000000E+00 0. -1.
      99926    2    1    2    0    0  0.00000000000E+00  0.71054273576E-14  0.62801191104E+02  0.45703321729E+03  0.45269788171E+03 0.  0.
         25    1    3    3    0    0 -0.15212185310E+02  0.78643124885E+02  0.41046357576E+02  0.15410536410E+03  0.12509000000E+03 0.  0.
         25    1    3    3    0    0 -0.59352845374E+02 -0.17678573591E+02  0.36766816508E+02  0.14434195202E+03  0.12509000000E+03 0.  0.
         25    1    3    3    0    0  0.74565030684E+02 -0.60964551295E+02 -0.15011982980E+02  0.15858590117E+03  0.12509000000E+03 0.  0.
<mgrwt>
<rscale>  2 0.45269788E+03</rscale>
<asrwt>0</asrwt>
<pdfrwt beam="1">  1       21 0.38223118E-01 0.45269788E+03</pdfrwt>
<pdfrwt beam="2">  1       21 0.28987649E-01 0.45269788E+03</pdfrwt>
<totfact> 0.69667584E+04</totfact>
</mgrwt>
</event>
<event>
 7    0  0.4732500E-002  0.4413262E+03  0.7546771E-02  0.1030341E+00
         21   -1    0    0  502  501  0.00000000000E+00  0.00000000000E+00  0.14360074306E+04  0.14360074306E+04  0.00000000000E+00 0. -1.
         21   -1    0    0  501  502 -0.00000000000E+00 -0.00000000000E+00 -0.33908040536E+02  0.33908040536E+02  0.00000000000E+00 0. -1.
      99926    2    1    2    0    0  0.00000000000E+00  0.00000000000E+00  0.14020993901E+04  0.14699154711E+04  0.44132617492E+03 0.  0.
      99925    2    3    3    0    0 -0.60325660112E+02 -0.79493792968E+02  0.89402761862E+03  0.93724025918E+03  0.26301230427E+03 0.  0.
         25    1    4    4    0    0 -0.52629374277E+01 -0.71952448364E+02  0.46502317661E+03  0.48692804008E+03  0.12509000000E+03 0.  0.
         25    1    3    3    0    0  0.60325660112E+02  0.79493792968E+02  0.50807177145E+03  0.53267521196E+03  0.12509000000E+03 0.  0.
         25    1    4    4    0    0 -0.55062722684E+02 -0.75413446033E+01  0.42900444201E+03  0.45031221910E+03  0.12509000000E+03 0.  0.
<mgrwt>
<rscale>  2 0.44132617E+03</rscale>
<asrwt>0</asrwt>
<pdfrwt beam="1">  1       21 0.21117752E+00 0.44132617E+03</pdfrwt>
<pdfrwt beam="2">  1       21 0.49864775E-02 0.44132617E+03</pdfrwt>
<totfact> 0.27314412E+04</totfact>
</mgrwt>
</event>
<event>
 7    0  0.4732500E-002  0.5238568E+03  0.7546771E-02  0.1007733E+00
         21   -1    0    0  502  501  0.00000000000E+00  0.00000000000E+00  0.34772310527E+03  0.34772310527E+03  0.00000000000E+00 0.  1.
         21   -1    0    0  501  502 -0.00000000000E+00 -0.00000000000E+00 -0.19730207482E+03  0.19730207482E+03  0.00000000000E+00 0.  1.
      99926    2    1    2    0    0  0.00000000000E+00  0.00000000000E+00  0.15042103045E+03  0.54502518009E+03  0.52385681301E+03 0.  0.
      99925    2    3    3    0    0  0.92266465461E+02 -0.13094757298E+03  0.32563978271E+02  0.31008229264E+03  0.26349620113E+03 0.  0.
         25    1    4    4    0    0  0.56848129418E+02 -0.97576962619E+02 -0.11225087112E+02  0.16889785118E+03  0.12509000000E+03 0.  0.
         25    1    4    4    0    0  0.35418336043E+02 -0.33370610357E+02  0.43789065382E+02  0.14118444146E+03  0.12509000000E+03 0.  0.
         25    1    3    3    0    0 -0.92266465461E+02  0.13094757298E+03  0.11785705217E+03  0.23494288745E+03  0.12509000000E+03 0.  0.
<mgrwt>
<rscale>  2 0.52385681E+03</rscale>
<asrwt>0</asrwt>
<pdfrwt beam="1">  1       21 0.51135751E-01 0.52385681E+03</pdfrwt>
<pdfrwt beam="2">  1       21 0.29015011E-01 0.52385681E+03</pdfrwt>
<totfact> 0.37279511E+04</totfact>
</mgrwt>
</event>
<event>
 7    0  0.4732500E-002  0.4537299E+03  0.7546771E-02  0.1026616E+00
         21   -1    0    0  502  501  0.00000000000E+00  0.00000000000E+00  0.97010798952E+02  0.97010798952E+02  0.00000000000E+00 0.  1.
         21   -1    0    0  501  502 -0.00000000000E+00 -0.00000000000E+00 -0.53053588863E+03  0.53053588863E+03  0.00000000000E+00 0.  1.
      99926    2    1    2    0    0  0.14210854715E-13  0.00000000000E+00 -0.43352508968E+03  0.62754668759E+03  0.45372992156E+03 0.  0.
      99925    2    3    3    0    0  0.10688021349E+03 -0.33917725177E+02 -0.28618648046E+03  0.40409654553E+03  0.26233094441E+03 0.  0.
         25    1    4    4    0    0  0.74844919448E+02 -0.13372032374E+02 -0.10281220586E+03  0.17888105263E+03  0.12509000000E+03 0.  0.
         25    1    3    3    0    0 -0.10688021349E+03  0.33917725177E+02 -0.14733860922E+03  0.22345014205E+03  0.12509000000E+03 0.  0.
         25    1    4    4    0    0  0.32035294040E+02 -0.20545692803E+02 -0.18337427460E+03  0.22521549290E+03  0.12509000000E+03 0.  0.
<mgrwt>
<rscale>  2 0.45372992E+03</rscale>
<asrwt>0</asrwt>
<pdfrwt beam="1">  1       21 0.14266294E-01 0.45372992E+03</pdfrwt>
<pdfrwt beam="2">  1       21 0.78019984E-01 0.45372992E+03</pdfrwt>
<totfact> 0.57589205E+04</totfact>
</mgrwt>
</event>
<event>
 7    0  0.4732500E-002  0.4543905E+03  0.7546771E-02  0.1026421E+00
         21   -1    0    0  502  501  0.00000000000E+00  0.00000000000E+00  0.23053044430E+03  0.23053044430E+03  0.00000000000E+00 0.  1.
         21   -1    0    0  501  502 -0.00000000000E+00 -0.00000000000E+00 -0.22390830844E+03  0.22390830844E+03  0.00000000000E+00 0.  1.
      99926    2    1    2    0    0 -0.71054273576E-14  0.14210854715E-13  0.66221358585E+01  0.45443875273E+03  0.45439050089E+03 0.  0.
      99925    2    3    3    0    0 -0.52551320376E+02 -0.78921134315E+02 -0.56599651893E+02  0.28522087761E+03  0.26297764489E+03 0.  0.
         25    1    3    3    0    0  0.52551320376E+02  0.78921134315E+02  0.63221787752E+02  0.16921787512E+03  0.12509000000E+03 0.  0.
         25    1    4    4    0    0 -0.56703643622E+02 -0.69172187356E+02 -0.25366729246E+02  0.15585593911E+03  0.12509000000E+03 0.  0.
         25    1    4    4    0    0  0.41523232469E+01 -0.97489469591E+01 -0.31232922648E+02  0.12936493850E+03  0.12509000000E+03 0.  0.
<mgrwt>
<rscale>  2 0.45439050E+03</rscale>
<asrwt>0</asrwt>
<pdfrwt beam="1">  1       21 0.33901536E-01 0.45439050E+03</pdfrwt>
<pdfrwt beam="2">  1       21 0.32927692E-01 0.45439050E+03</pdfrwt>
<totfact> 0.68921496E+04</totfact>
</mgrwt>
</event>
<event>
 7    0  0.4732500E-002  0.4541416E+03  0.7546771E-02  0.1026494E+00
         21   -1    0    0  502  501  0.00000000000E+00  0.00000000000E+00  0.98061914544E+02  0.98061914544E+02  0.00000000000E+00 0.  1.
         21   -1    0    0  501  502 -0.00000000000E+00 -0.00000000000E+00 -0.52580188427E+03  0.52580188427E+03  0.00000000000E+00 0.  1.
      99926    2    1    2    0    0 -0.88817841970E-15  0.22204460493E-15 -0.42773996972E+03  0.62386379881E+03  0.45414156137E+03 0.  0.
      99925    2    3    3    0    0  0.38072333795E+01  0.79903934020E+00 -0.11519453780E+03  0.28719290817E+03  0.26304914270E+03 0.  0.
         25    1    4    4    0    0 -0.32940177353E+02  0.80477167185E+01 -0.78634916984E+02  0.15159412686E+03  0.12509000000E+03 0.  0.
         25    1    4    4    0    0  0.36747410732E+02 -0.72486773783E+01 -0.36559620818E+02  0.13559878131E+03  0.12509000000E+03 0.  0.
         25    1    3    3    0    0 -0.38072333795E+01 -0.79903934020E+00 -0.31254543192E+03  0.33667089064E+03  0.12509000000E+03 0.  0.
<mgrwt>
<rscale>  2 0.45414156E+03</rscale>
<asrwt>0</asrwt>
<pdfrwt beam="1">  1       21 0.14420870E-01 0.45414156E+03</pdfrwt>
<pdfrwt beam="2">  1       21 0.77323806E-01 0.45414156E+03</pdfrwt>
<totfact> 0.57622480E+04</totfact>
</mgrwt>
</event>
<event>
 7    0  0.4732500E-002  0.4522756E+03  0.7546771E-02  0.1027046E+00
         21   -1    0    0  502  501  0.00000000000E+00  0.00000000000E+00  0.22284644107E+03  0.22284644107E+03  0.00000000000E+00 0.  1.
         21   -1    0    0  501  502 -0.00000000000E+00 -0.00000000000E+00 -0.22947779316E+03  0.22947779316E+03  0.00000000000E+00 0.  1.
      99926    2    1    2    0    0  0.00000000000E+00  0.14210854715E-13 -0.66313520946E+01  0.45232423423E+03  0.45227562176E+03 0.  0.
      99925    2    3    3    0    0 -0.32439973693E+02 -0.92534265131E+02  0.46993494079E+02  0.28458016028E+03  0.26298771268E+03 0.  0.
         25    1    3    3    0    0  0.32439973693E+02  0.92534265131E+02 -0.53624846174E+02  0.16774407394E+03  0.12509000000E+03 0.  0.
         25    1    4    4    0    0 -0.35824329207E+02 -0.68883472098E+02 -0.42934191901E+01  0.14728970378E+03  0.12509000000E+03 0.  0.
         25    1    4    4    0    0  0.33843555134E+01 -0.23650793033E+02  0.51286913270E+02  0.13729045650E+03  0.12509000000E+03 0.  0.
<mgrwt>
<rscale>  2 0.45227562E+03</rscale>
<asrwt>0</asrwt>
<pdfrwt beam="1">  1       21 0.32771535E-01 0.45227562E+03</pdfrwt>
<pdfrwt beam="2">  1       21 0.33746734E-01 0.45227562E+03</pdfrwt>
<totfact> 0.70257115E+04</totfact>
</mgrwt>
</event>
<event>
 7    0  0.4732500E-002  0.4512023E+03  0.7546771E-02  0.1027364E+00
         21   -1    0    0  502  501  0.00000000000E+00  0.00000000000E+00  0.71492381266E+03  0.71492381266E+03  0.00000000000E+00 0.  1.
         21   -1    0    0  501  502 -0.00000000000E+00 -0.00000000000E+00 -0.71190630206E+02  0.71190630206E+02  0.00000000000E+00 0.  1.
      99926    2    1    2    0    0  0.00000000000E+00  0.00000000000E+00  0.64373318246E+03  0.78611444287E+03  0.45120229065E+03 0.  0.
      99925    2    3    3    0    0  0.79350806454E+02  0.43267328328E+02  0.51452381379E+03  0.58484054680E+03  0.26293553971E+03 0.  0.
         25    1    3    3    0    0 -0.79350806454E+02 -0.43267328328E+02  0.12920936867E+03  0.20127389607E+03  0.12509000000E+03 0.  0.
         25    1    4    4    0    0  0.50379326619E+02 -0.13742161403E+02  0.28768875983E+03  0.31802398366E+03  0.12509000000E+03 0.  0.
         25    1    4    4    0    0  0.28971479835E+02  0.57009489732E+02  0.22683505396E+03  0.26681656315E+03  0.12509000000E+03 0.  0.
<mgrwt>
<rscale>  2 0.45120229E+03</rscale>
<asrwt>0</asrwt>
<pdfrwt beam="1">  1       21 0.10513585E+00 0.45120229E+03</pdfrwt>
<pdfrwt beam="2">  1       21 0.10469211E-01 0.45120229E+03</pdfrwt>
<totfact> 0.49915090E+04</totfact>
</mgrwt>
</event>
<event>
 7    0  0.4732500E-002  0.4507701E+03  0.7546771E-02  0.1027493E+00
         21   -1    0    0  502  501  0.00000000000E+00  0.00000000000E+00  0.92437647712E+03  0.92437647712E+03  0.00000000000E+00 0. -1.
         21   -1    0    0  501  502 -0.00000000000E+00 -0.00000000000E+00 -0.54954251105E+02  0.54954251105E+02  0.00000000000E+00 0. -1.
      99926    2    1    2    0    0  0.00000000000E+00  0.00000000000E+00  0.86942222602E+03  0.97933072823E+03  0.45077008348E+03 0.  0.
      99925    2    3    3    0    0 -0.89446979546E+02  0.46972117213E+02  0.63577988370E+03  0.69570528126E+03  0.26378520790E+03 0.  0.
         25    1    3    3    0    0  0.89446979546E+02 -0.46972117213E+02  0.23364234232E+03  0.28362544697E+03  0.12509000000E+03 0.  0.
         25    1    4    4    0    0 -0.76629677768E+02  0.18254270120E+02  0.26953328967E+03  0.30741019539E+03  0.12509000000E+03 0.  0.
         25    1    4    4    0    0 -0.12817301777E+02  0.28717847093E+02  0.36624659403E+03  0.38829508586E+03  0.12509000000E+03 0.  0.
<mgrwt>
<rscale>  2 0.45077008E+03</rscale>
<asrwt>0</asrwt>
<pdfrwt beam="1">  1       21 0.13593771E+00 0.45077008E+03</pdfrwt>
<pdfrwt beam="2">  1       21 0.80815081E-02 0.45077008E+03</pdfrwt>
<totfact> 0.41324854E+04</totfact>
</mgrwt>
</event>
<event>
 7    0  0.4732500E-002  0.4431968E+03  0.7546771E-02  0.1029770E+00
         21   -1    0    0  502  501  0.00000000000E+00  0.00000000000E+00  0.72341160953E+03  0.72341160953E+03  0.00000000000E+00 0. -1.
         21   -1    0    0  501  502 -0.00000000000E+00 -0.00000000000E+00 -0.67880931282E+02  0.67880931282E+02  0.00000000000E+00 0. -1.
      99926    2    1    2    0    0  0.14210854715E-13  0.00000000000E+00  0.65553067825E+03  0.79129254081E+03  0.44319681296E+03 0.  0.
      99925    2    3    3    0    0 -0.83133103494E+02  0.16207207166E+02  0.31748719395E+03  0.42102953721E+03  0.26323747153E+03 0.  0.
         25    1    4    4    0    0 -0.79255071432E+02 -0.80554295463E+01  0.18606130640E+03  0.23793397011E+03  0.12509000000E+03 0.  0.
         25    1    3    3    0    0  0.83133103494E+02 -0.16207207166E+02  0.33804348430E+03  0.37026300360E+03  0.12509000000E+03 0.  0.
         25    1    4    4    0    0 -0.38780320619E+01  0.24262636713E+02  0.13142588755E+03  0.18309556710E+03  0.12509000000E+03 0.  0.
<mgrwt>
<rscale>  2 0.44319681E+03</rscale>
<asrwt>0</asrwt>
<pdfrwt beam="1">  1       21 0.10638406E+00 0.44319681E+03</pdfrwt>
<pdfrwt beam="2">  1       21 0.99824903E-02 0.44319681E+03</pdfrwt>
<totfact> 0.52923915E+04</totfact>
</mgrwt>
</event>
<event>
 7    0  0.4732500E-002  0.4521342E+03  0.7546771E-02  0.1027088E+00
         21   -1    0    0  502  501  0.00000000000E+00  0.00000000000E+00  0.61739469767E+03  0.61739469767E+03  0.00000000000E+00 0.  1.
         21   -1    0    0  501  502 -0.00000000000E+00 -0.00000000000E+00 -0.82777394165E+02  0.82777394165E+02  0.00000000000E+00 0.  1.
      99926    2    1    2    0    0  0.00000000000E+00  0.00000000000E+00  0.53461730350E+03  0.70017209183E+03  0.45213415816E+03 0.  0.
      99925    2    3    3    0    0 -0.10094395179E+03 -0.39932020087E+02  0.36655475917E+03  0.46421282725E+03  0.26333801451E+03 0.  0.
         25    1    4    4    0    0 -0.67850752788E+02  0.64381400956E+01  0.22943734452E+03  0.27006328418E+03  0.12509000000E+03 0.  0.
         25    1    4    4    0    0 -0.33093199007E+02 -0.46370160183E+02  0.13711741465E+03  0.19414954307E+03  0.12509000000E+03 0.  0.
         25    1    3    3    0    0  0.10094395179E+03  0.39932020087E+02  0.16806254433E+03  0.23595926458E+03  0.12509000000E+03 0.  0.
<mgrwt>
<rscale>  2 0.45213416E+03</rscale>
<asrwt>0</asrwt>
<pdfrwt beam="1">  1       21 0.90793336E-01 0.45213416E+03</pdfrwt>
<pdfrwt beam="2">  1       21 0.12173147E-01 0.45213416E+03</pdfrwt>
<totfact> 0.54103542E+04</totfact>
</mgrwt>
</event>
<event>
 7    0  0.4732500E-002  0.4560825E+03  0.7546771E-02  0.1025924E+00
         21   -1    0    0  502  501  0.00000000000E+00  0.00000000000E+00  0.18784320070E+03  0.18784320070E+03  0.00000000000E+00 0.  1.
         21   -1    0    0  501  502 -0.00000000000E+00 -0.00000000000E+00 -0.27684162752E+03  0.27684162752E+03  0.00000000000E+00 0.  1.
      99926    2    1    2    0    0  0.00000000000E+00  0.00000000000E+00 -0.88998426815E+02  0.46468482822E+03  0.45608252499E+03 0.  0.
      99925    2    3    3    0    0  0.31858532437E+02 -0.10913649714E+03 -0.43597391555E+02  0.28965767833E+03  0.26282141649E+03 0.  0.
         25    1    4    4    0    0 -0.15259981193E+02 -0.73365596940E+02 -0.40136402834E+02  0.15124092294E+03  0.12509000000E+03 0.  0.
         25    1    4    4    0    0  0.47118513630E+02 -0.35770900201E+02 -0.34609887206E+01  0.13841675538E+03  0.12509000000E+03 0.  0.
         25    1    3    3    0    0 -0.31858532437E+02  0.10913649714E+03 -0.45401035261E+02  0.17502714989E+03  0.12509000000E+03 0.  0.
<mgrwt>
<rscale>  2 0.45608252E+03</rscale>
<asrwt>0</asrwt>
<pdfrwt beam="1">  1       21 0.27624000E-01 0.45608252E+03</pdfrwt>
<pdfrwt beam="2">  1       21 0.40712004E-01 0.45608252E+03</pdfrwt>
<totfact> 0.67253012E+04</totfact>
</mgrwt>
</event>
<event>
 7    0  0.4732500E-002  0.4200886E+03  0.7546771E-02  0.1037037E+00
         21   -1    0    0  502  501  0.00000000000E+00  0.00000000000E+00  0.15363472186E+03  0.15363472186E+03  0.00000000000E+00 0.  1.
         21   -1    0    0  501  502 -0.00000000000E+00 -0.00000000000E+00 -0.28716562167E+03  0.28716562167E+03  0.00000000000E+00 0.  1.
      99926    2    1    2    0    0  0.00000000000E+00  0.88817841970E-15 -0.13353089981E+03  0.44080034353E+03  0.42008861166E+03 0.  0.
      99925    2    3    3    0    0 -0.75562034901E+02  0.74861362360E+01 -0.90822592228E+02  0.28836291049E+03  0.26294250614E+03 0.  0.
         25    1    4    4    0    0 -0.32846877656E+02 -0.27570952976E+01 -0.31129600330E+01  0.12939751762E+03  0.12509000000E+03 0.  0.
         25    1    3    3    0    0  0.75562034901E+02 -0.74861362360E+01 -0.42708307582E+02  0.15243743304E+03  0.12509000000E+03 0.  0.
         25    1    4    4    0    0 -0.42715157245E+02  0.10243231534E+02 -0.87709632195E+02  0.15896539287E+03  0.12509000000E+03 0.  0.
<mgrwt>
<rscale>  2 0.42008861E+03</rscale>
<asrwt>0</asrwt>
<pdfrwt beam="1">  1       21 0.22593342E-01 0.42008861E+03</pdfrwt>
<pdfrwt beam="2">  1       21 0.42230238E-01 0.42008861E+03</pdfrwt>
<totfact> 0.92839193E+04</totfact>
</mgrwt>
</event>
<event>
 7    0  0.4732500E-002  0.4507343E+03  0.7546771E-02  0.1027503E+00
         21   -1    0    0  502  501  0.00000000000E+00  0.00000000000E+00  0.12185248076E+03  0.12185248076E+03  0.00000000000E+00 0. -1.
         21   -1    0    0  501  502 -0.00000000000E+00 -0.00000000000E+00 -0.41681835678E+03  0.41681835678E+03  0.00000000000E+00 0. -1.
      99926    2    1    2    0    0  0.00000000000E+00  0.00000000000E+00 -0.29496587602E+03  0.53867083754E+03  0.45073429335E+03 0.  0.
      99925    2    3    3    0    0  0.27572461325E+02 -0.93753620610E+02 -0.12801407993E+03  0.30830071726E+03  0.26289112880E+03 0.  0.
         25    1    4    4    0    0  0.30306811007E+02 -0.50135766090E+02 -0.10569764962E+03  0.17392986825E+03  0.12509000000E+03 0.  0.
         25    1    3    3    0    0 -0.27572461325E+02  0.93753620610E+02 -0.16695179609E+03  0.23037012028E+03  0.12509000000E+03 0.  0.
         25    1    4    4    0    0 -0.27343496821E+01 -0.43617854521E+02 -0.22316430310E+02  0.13437084901E+03  0.12509000000E+03 0.  0.
<mgrwt>
<rscale>  2 0.45073429E+03</rscale>
<asrwt>0</asrwt>
<pdfrwt beam="1">  1       21 0.17919482E-01 0.45073429E+03</pdfrwt>
<pdfrwt beam="2">  1       21 0.61296817E-01 0.45073429E+03</pdfrwt>
<totfact> 0.64780832E+04</totfact>
</mgrwt>
</event>
<event>
 7    0  0.4732500E-002  0.4614905E+03  0.7546771E-02  0.1024350E+00
         21   -1    0    0  502  501  0.00000000000E+00  0.00000000000E+00  0.74866451089E+02  0.74866451089E+02  0.00000000000E+00 0. -1.
         21   -1    0    0  501  502 -0.00000000000E+00 -0.00000000000E+00 -0.71117802802E+03  0.71117802802E+03  0.00000000000E+00 0. -1.
      99926    2    1    2    0    0  0.00000000000E+00  0.00000000000E+00 -0.63631157693E+03  0.78604447911E+03  0.46149052017E+03 0.  0.
      99925    2    3    3    0    0 -0.64494945973E+02  0.70920178501E+02 -0.27705198118E+03  0.39373817657E+03  0.26283584542E+03 0.  0.
         25    1    4    4    0    0 -0.60704350428E+02  0.80430932673E+01 -0.12707360674E+03  0.18853360215E+03  0.12509000000E+03 0.  0.
         25    1    4    4    0    0 -0.37905955456E+01  0.62877085233E+02 -0.14997837444E+03  0.20520457441E+03  0.12509000000E+03 0.  0.
         25    1    3    3    0    0  0.64494945973E+02 -0.70920178501E+02 -0.35925959575E+03  0.39230630254E+03  0.12509000000E+03 0.  0.
<mgrwt>
<rscale>  2 0.46149052E+03</rscale>
<asrwt>0</asrwt>
<pdfrwt beam="1">  1       21 0.11009773E-01 0.46149052E+03</pdfrwt>
<pdfrwt beam="2">  1       21 0.10458500E+00 0.46149052E+03</pdfrwt>
<totfact> 0.46055885E+04</totfact>
</mgrwt>
</event>
<event>
 7    0  0.4732500E-002  0.4445306E+03  0.7546771E-02  0.1029366E+00
         21   -1    0    0  502  501  0.00000000000E+00  0.00000000000E+00  0.18801538393E+03  0.18801538393E+03  0.00000000000E+00 0.  1.
         21   -1    0    0  501  502 -0.00000000000E+00 -0.00000000000E+00 -0.26275433846E+03  0.26275433846E+03  0.00000000000E+00 0.  1.
      99926    2    1    2    0    0  0.14210854715E-13 -0.71054273576E-14 -0.74738954528E+02  0.45076972240E+03  0.44453057410E+03 0.  0.
      99925    2    3    3    0    0 -0.76549537446E+02  0.57865240280E+02 -0.85458326412E+02  0.29274874041E+03  0.26304083664E+03 0.  0.
         25    1    3    3    0    0  0.76549537446E+02 -0.57865240280E+02  0.10719371884E+02  0.15802098199E+03  0.12509000000E+03 0.  0.
         25    1    4    4    0    0 -0.23287108732E+02  0.33936069090E+02 -0.25364883609E+01  0.13171138178E+03  0.12509000000E+03 0.  0.
         25    1    4    4    0    0 -0.53262428714E+02  0.23929171189E+02 -0.82921838051E+02  0.16103735862E+03  0.12509000000E+03 0.  0.
<mgrwt>
<rscale>  2 0.44453057E+03</rscale>
<asrwt>0</asrwt>
<pdfrwt beam="1">  1       21 0.27649321E-01 0.44453057E+03</pdfrwt>
<pdfrwt beam="2">  1       21 0.38640344E-01 0.44453057E+03</pdfrwt>
<totfact> 0.74920727E+04</totfact>
</mgrwt>
</event>
<event>
 7    0  0.4732500E-002  0.4539551E+03  0.7546771E-02  0.1026549E+00
         21   -1    0    0  502  501  0.00000000000E+00  0.00000000000E+00  0.17103490248E+03  0.17103490248E+03  0.00000000000E+00 0.  1.
         21   -1    0    0  501  502 -0.00000000000E+00 -0.00000000000E+00 -0.30121807643E+03  0.30121807643E+03  0.00000000000E+00 0.  1.
      99926    2    1    2    0    0 -0.35527136788E-14  0.14210854715E-13 -0.13018317394E+03  0.47225297891E+03  0.45395508292E+03 0.  0.
      99925    2    3    3    0    0 -0.18792180300E+02 -0.10807297132E+03 -0.57471305117E+02  0.29068360611E+03  0.26298497063E+03 0.  0.
         25    1    4    4    0    0  0.29369011528E+02 -0.61477743766E+02 -0.38179540818E+02  0.14746944515E+03  0.12509000000E+03 0.  0.
         25    1    3    3    0    0  0.18792180300E+02  0.10807297132E+03 -0.72711868828E+02  0.18156937280E+03  0.12509000000E+03 0.  0.
         25    1    4    4    0    0 -0.48161191828E+02 -0.46595227555E+02 -0.19291764298E+02  0.14321416096E+03  0.12509000000E+03 0.  0.
<mgrwt>
<rscale>  2 0.45395508E+03</rscale>
<asrwt>0</asrwt>
<pdfrwt beam="1">  1       21 0.25152192E-01 0.45395508E+03</pdfrwt>
<pdfrwt beam="2">  1       21 0.44296776E-01 0.45395508E+03</pdfrwt>
<totfact> 0.67829190E+04</totfact>
</mgrwt>
</event>
<event>
 7    0  0.4732500E-002  0.4483489E+03  0.7546771E-02  0.1028216E+00
         21   -1    0    0  502  501  0.00000000000E+00  0.00000000000E+00  0.39538291604E+02  0.39538291604E+02  0.00000000000E+00 0.  1.
         21   -1    0    0  501  502 -0.00000000000E+00 -0.00000000000E+00 -0.12710255421E+04  0.12710255421E+04  0.00000000000E+00 0.  1.
      99926    2    1    2    0    0 -0.35527136788E-14  0.00000000000E+00 -0.12314872505E+04  0.13105638337E+04  0.44834887540E+03 0.  0.
      99925    2    3    3    0    0  0.22216160704E+02  0.10434120833E+03 -0.79544888534E+03  0.84456210673E+03  0.26299349304E+03 0.  0.
         25    1    4    4    0    0 -0.16548227354E+02  0.73278208190E+02 -0.47756287539E+03  0.49935693414E+03  0.12509000000E+03 0.  0.
         25    1    4    4    0    0  0.38764388059E+02  0.31063000144E+02 -0.31788600995E+03  0.34520517259E+03  0.12509000000E+03 0.  0.
         25    1    3    3    0    0 -0.22216160704E+02 -0.10434120833E+03 -0.43603836512E+03  0.46600172694E+03  0.12509000000E+03 0.  0.
<mgrwt>
<rscale>  2 0.44834888E+03</rscale>
<asrwt>0</asrwt>
<pdfrwt beam="1">  1       21 0.58144554E-02 0.44834888E+03</pdfrwt>
<pdfrwt beam="2">  1       21 0.18691550E+00 0.44834888E+03</pdfrwt>
<totfact> 0.30349065E+04</totfact>
</mgrwt>
</event>
<event>
 7    0  0.4732500E-002  0.4467560E+03  0.7546771E-02  0.1028694E+00
         21   -1    0    0  502  501  0.00000000000E+00  0.00000000000E+00  0.48842343684E+03  0.48842343684E+03  0.00000000000E+00 0. -1.
         21   -1    0    0  501  502 -0.00000000000E+00 -0.00000000000E+00 -0.10216078698E+03  0.10216078698E+03  0.00000000000E+00 0. -1.
      99926    2    1    2    0    0  0.00000000000E+00  0.00000000000E+00  0.38626264986E+03  0.59058422381E+03  0.44675596330E+03 0.  0.
      99925    2    3    3    0    0 -0.14690852133E+02 -0.99294328468E+02  0.20258662795E+03  0.34674088491E+03  0.26289297184E+03 0.  0.
         25    1    4    4    0    0 -0.87034457725E+01 -0.69228644958E+02  0.61992150983E+02  0.15607334857E+03  0.12509000000E+03 0.  0.
         25    1    3    3    0    0  0.14690852133E+02  0.99294328468E+02  0.18367602191E+03  0.24384333890E+03  0.12509000000E+03 0.  0.
         25    1    4    4    0    0 -0.59874063603E+01 -0.30065683510E+02  0.14059447697E+03  0.19066753634E+03  0.12509000000E+03 0.  0.
<mgrwt>
<rscale>  2 0.44675596E+03</rscale>
<asrwt>0</asrwt>
<pdfrwt beam="1">  1       21 0.71826975E-01 0.44675596E+03</pdfrwt>
<pdfrwt beam="2">  1       21 0.15023645E-01 0.44675596E+03</pdfrwt>
<totfact> 0.63285173E+04</totfact>
</mgrwt>
</event>
<event>
 7    0  0.4732500E-002  0.4565065E+03  0.7546771E-02  0.1025799E+00
         21   -1    0    0  502  501  0.00000000000E+00  0.00000000000E+00  0.55567978883E+03  0.55567978883E+03  0.00000000000E+00 0.  1.
         21   -1    0    0  501  502 -0.00000000000E+00 -0.00000000000E+00 -0.93758215427E+02  0.93758215427E+02  0.00000000000E+00 0.  1.
      99926    2    1    2    0    0  0.00000000000E+00  0.00000000000E+00  0.46192157341E+03  0.64943800426E+03  0.45650649656E+03 0.  0.
      99925    2    3    3    0    0 -0.98416208726E+02 -0.52999690416E+02  0.32563394987E+03  0.43329790675E+03  0.26308722766E+03 0.  0.
         25    1    4    4    0    0 -0.82904995765E+02 -0.43297361030E+02  0.14724256495E+03  0.21465269816E+03  0.12509000000E+03 0.  0.
         25    1    4    4    0    0 -0.15511212960E+02 -0.97023293859E+01  0.17839138492E+03  0.21864520859E+03  0.12509000000E+03 0.  0.
         25    1    3    3    0    0  0.98416208726E+02  0.52999690416E+02  0.13628762354E+03  0.21614009751E+03  0.12509000000E+03 0.  0.
<mgrwt>
<rscale>  2 0.45650650E+03</rscale>
<asrwt>0</asrwt>
<pdfrwt beam="1">  1       21 0.81717615E-01 0.45650650E+03</pdfrwt>
<pdfrwt beam="2">  1       21 0.13787973E-01 0.45650650E+03</pdfrwt>
<totfact> 0.55076368E+04</totfact>
</mgrwt>
</event>
<event>
 7    0  0.4732500E-002  0.4559207E+03  0.7546771E-02  0.1025971E+00
         21   -1    0    0  502  501  0.00000000000E+00  0.00000000000E+00  0.33678772686E+03  0.33678772686E+03  0.00000000000E+00 0. -1.
         21   -1    0    0  501  502 -0.00000000000E+00 -0.00000000000E+00 -0.15429871682E+03  0.15429871682E+03  0.00000000000E+00 0. -1.
      99926    2    1    2    0    0  0.71054273576E-14  0.00000000000E+00  0.18248901005E+03  0.49108644368E+03  0.45592066895E+03 0.  0.
      99925    2    3    3    0    0 -0.45796568556E+02  0.10163143628E+03  0.14056263425E+03  0.31836816550E+03  0.26300980994E+03 0.  0.
         25    1    4    4    0    0 -0.52927682670E+01  0.24533090819E+02  0.95685795116E+02  0.15947778976E+03  0.12509000000E+03 0.  0.
         25    1    3    3    0    0  0.45796568556E+02 -0.10163143628E+03  0.41926375795E+02  0.17271827818E+03  0.12509000000E+03 0.  0.
         25    1    4    4    0    0 -0.40503800289E+02  0.77098345457E+02  0.44876839134E+02  0.15889037573E+03  0.12509000000E+03 0.  0.
<mgrwt>
<rscale>  2 0.45592067E+03</rscale>
<asrwt>0</asrwt>
<pdfrwt beam="1">  1       21 0.49527607E-01 0.45592067E+03</pdfrwt>
<pdfrwt beam="2">  1       21 0.22690988E-01 0.45592067E+03</pdfrwt>
<totfact> 0.65422040E+04</totfact>
</mgrwt>
</event>
<event>
 7    0  0.4732500E-002  0.4571945E+03  0.7546771E-02  0.1025598E+00
         21   -1    0    0  502  501  0.00000000000E+00  0.00000000000E+00  0.15859093227E+03  0.15859093227E+03  0.00000000000E+00 0. -1.
         21   -1    0    0  501  502 -0.00000000000E+00 -0.00000000000E+00 -0.32950617862E+03  0.32950617862E+03  0.00000000000E+00 0. -1.
      99926    2    1    2    0    0  0.00000000000E+00  0.71054273576E-14 -0.17091524635E+03  0.48809711088E+03  0.45719445340E+03 0.  0.
      99925    2    3    3    0    0  0.74587254665E+02 -0.58354360916E+02 -0.37119934073E+02  0.28190015726E+03  0.26290933639E+03 0.  0.
         25    1    4    4    0    0  0.12420676007E+02  0.22883097241E+01 -0.25898949365E+01  0.12575263500E+03  0.12509000000E+03 0.  0.
         25    1    3    3    0    0 -0.74587254665E+02  0.58354360916E+02 -0.13379531228E+03  0.20619695363E+03  0.12509000000E+03 0.  0.
         25    1    4    4    0    0  0.62166578658E+02 -0.60642670641E+02 -0.34530039136E+02  0.15614752226E+03  0.12509000000E+03 0.  0.
<mgrwt>
<rscale>  2 0.45719445E+03</rscale>
<asrwt>0</asrwt>
<pdfrwt beam="1">  1       21 0.23322196E-01 0.45719445E+03</pdfrwt>
<pdfrwt beam="2">  1       21 0.48456791E-01 0.45719445E+03</pdfrwt>
<totfact> 0.64975921E+04</totfact>
</mgrwt>
</event>
<event>
 7    0  0.4732500E-002  0.4459943E+03  0.7546771E-02  0.1028923E+00
         21   -1    0    0  502  501  0.00000000000E+00  0.00000000000E+00  0.61551521171E+02  0.61551521171E+02  0.00000000000E+00 0.  1.
         21   -1    0    0  501  502 -0.00000000000E+00 -0.00000000000E+00 -0.80790425364E+03  0.80790425364E+03  0.00000000000E+00 0.  1.
      99926    2    1    2    0    0  0.31086244690E-14  0.00000000000E+00 -0.74635273247E+03  0.86945577482E+03  0.44599433078E+03 0.  0.
      99925    2    3    3    0    0 -0.33411111752E+01 -0.10431261933E+03 -0.46788095364E+03  0.54683165098E+03  0.26309690640E+03 0.  0.
         25    1    4    4    0    0  0.19793063973E+02 -0.56969262689E+02 -0.17020192825E+03  0.21966671744E+03  0.12509000000E+03 0.  0.
         25    1    4    4    0    0 -0.23134175148E+02 -0.47343356637E+02 -0.29767902539E+03  0.32716493353E+03  0.12509000000E+03 0.  0.
         25    1    3    3    0    0  0.33411111752E+01  0.10431261933E+03 -0.27847177884E+03  0.32262412384E+03  0.12509000000E+03 0.  0.
<mgrwt>
<rscale>  2 0.44599433E+03</rscale>
<asrwt>0</asrwt>
<pdfrwt beam="1">  1       21 0.90516949E-02 0.44599433E+03</pdfrwt>
<pdfrwt beam="2">  1       21 0.11880944E+00 0.44599433E+03</pdfrwt>
<totfact> 0.47869281E+04</totfact>
</mgrwt>
</event>
<event>
 7    0  0.4732500E-002  0.4528089E+03  0.7546771E-02  0.1026888E+00
         21   -1    0    0  502  501  0.00000000000E+00  0.00000000000E+00  0.97273339068E+02  0.97273339068E+02  0.00000000000E+00 0. -1.
         21   -1    0    0  501  502 -0.00000000000E+00 -0.00000000000E+00 -0.52695813776E+03  0.52695813776E+03  0.00000000000E+00 0. -1.
      99926    2    1    2    0    0  0.00000000000E+00  0.00000000000E+00 -0.42968479870E+03  0.62423147683E+03  0.45280891162E+03 0.  0.
      99925    2    3    3    0    0  0.94687412500E+02 -0.50938056364E+02 -0.23163356013E+03  0.36648704358E+03  0.26286546990E+03 0.  0.
         25    1    4    4    0    0  0.45246487471E+02 -0.42683357536E+02 -0.16486129381E+03  0.21609226718E+03  0.12509000000E+03 0.  0.
         25    1    3    3    0    0 -0.94687412500E+02  0.50938056364E+02 -0.19805123857E+03  0.25774443325E+03  0.12509000000E+03 0.  0.
         25    1    4    4    0    0  0.49440925029E+02 -0.82546988274E+01 -0.66772266322E+02  0.15039477641E+03  0.12509000000E+03 0.  0.
<mgrwt>
<rscale>  2 0.45280891E+03</rscale>
<asrwt>0</asrwt>
<pdfrwt beam="1">  1       21 0.14304903E-01 0.45280891E+03</pdfrwt>
<pdfrwt beam="2">  1       21 0.77493844E-01 0.45280891E+03</pdfrwt>
<totfact> 0.58211517E+04</totfact>
</mgrwt>
</event>
<event>
 7    0  0.4732500E-002  0.4587410E+03  0.7546771E-02  0.1025147E+00
         21   -1    0    0  502  501  0.00000000000E+00  0.00000000000E+00  0.49434283301E+02  0.49434283301E+02  0.00000000000E+00 0. -1.
         21   -1    0    0  501  502 -0.00000000000E+00 -0.00000000000E+00 -0.10642581197E+04  0.10642581197E+04  0.00000000000E+00 0. -1.
      99926    2    1    2    0    0  0.35527136788E-14  0.00000000000E+00 -0.10148238364E+04  0.11136924030E+04  0.45874104849E+03 0.  0.
      99925    2    3    3    0    0  0.16234617667E+02 -0.55481797824E+02 -0.39059060827E+03  0.47442999686E+03  0.26302282402E+03 0.  0.
         25    1    4    4    0    0 -0.25900613615E+02 -0.10585242411E+02 -0.21376097127E+03  0.24924716664E+03  0.12509000000E+03 0.  0.
         25    1    4    4    0    0  0.42135231282E+02 -0.44896555413E+02 -0.17682963700E+03  0.22518283022E+03  0.12509000000E+03 0.  0.
         25    1    3    3    0    0 -0.16234617667E+02  0.55481797824E+02 -0.62423322809E+03  0.63926240610E+03  0.12509000000E+03 0.  0.
<mgrwt>
<rscale>  2 0.45874105E+03</rscale>
<asrwt>0</asrwt>
<pdfrwt beam="1">  1       21 0.72697474E-02 0.45874105E+03</pdfrwt>
<pdfrwt beam="2">  1       21 0.15650855E+00 0.45874105E+03</pdfrwt>
<totfact> 0.34014891E+04</totfact>
</mgrwt>
</event>
<event>
 7    0  0.4732500E-002  0.4546977E+03  0.7546771E-02  0.1026330E+00
         21   -1    0    0  502  501  0.00000000000E+00  0.00000000000E+00  0.15664430709E+04  0.15664430709E+04  0.00000000000E+00 0.  1.
         21   -1    0    0  501  502 -0.00000000000E+00 -0.00000000000E+00 -0.32996733388E+02  0.32996733388E+02  0.00000000000E+00 0.  1.
      99926    2    1    2    0    0  0.00000000000E+00  0.71054273576E-14  0.15334463375E+04  0.15994398042E+04  0.45469772103E+03 0.  0.
      99925    2    3    3    0    0  0.89010804594E+02 -0.54216316011E+02  0.81282312075E+03  0.86065183681E+03  0.26301677954E+03 0.  0.
         25    1    4    4    0    0  0.55487412457E+02  0.76534304031E+01  0.45231584411E+03  0.47262517799E+03  0.12509000000E+03 0.  0.
         25    1    4    4    0    0  0.33523392137E+02 -0.61869746414E+02  0.36050727664E+03  0.38802665881E+03  0.12509000000E+03 0.  0.
         25    1    3    3    0    0 -0.89010804594E+02  0.54216316011E+02  0.72062321672E+03  0.73878796744E+03  0.12509000000E+03 0.  0.
<mgrwt>
<rscale>  2 0.45469772E+03</rscale>
<asrwt>0</asrwt>
<pdfrwt beam="1">  1       21 0.23035922E+00 0.45469772E+03</pdfrwt>
<pdfrwt beam="2">  1       21 0.48524619E-02 0.45469772E+03</pdfrwt>
<totfact> 0.21492858E+04</totfact>
</mgrwt>
</event>
<event>
 7    0  0.4732500E-002  0.4564327E+03  0.7546771E-02  0.1025821E+00
         21   -1    0    0  502  501  0.00000000000E+00  0.00000000000E+00  0.15206405737E+03  0.15206405737E+03  0.00000000000E+00 0.  1.
         21   -1    0    0  501  502 -0.00000000000E+00 -0.00000000000E+00 -0.34250508829E+03  0.34250508829E+03  0.00000000000E+00 0.  1.
      99926    2    1    2    0    0  0.00000000000E+00  0.71054273576E-14 -0.19044103092E+03  0.49456914566E+03  0.45643274815E+03 0.  0.
      99925    2    3    3    0    0 -0.54557621381E+02  0.54174028169E+02 -0.21170487811E+03  0.34620803662E+03  0.26292525520E+03 0.  0.
         25    1    3    3    0    0  0.54557621381E+02 -0.54174028169E+02  0.21263847195E+02  0.14836110904E+03  0.12509000000E+03 0.  0.
         25    1    4    4    0    0 -0.20876550812E+02 -0.70900962372E+01 -0.71656256603E+02  0.14583630223E+03  0.12509000000E+03 0.  0.
         25    1    4    4    0    0 -0.33681070568E+02  0.61264124406E+02 -0.14004862151E+03  0.20037173438E+03  0.12509000000E+03 0.  0.
<mgrwt>
<rscale>  2 0.45643275E+03</rscale>
<asrwt>0</asrwt>
<pdfrwt beam="1">  1       21 0.22362361E-01 0.45643275E+03</pdfrwt>
<pdfrwt beam="2">  1       21 0.50368396E-01 0.45643275E+03</pdfrwt>
<totfact> 0.64912435E+04</totfact>
</mgrwt>
</event>
<event>
 7    0  0.4732500E-002  0.4550230E+03  0.7546771E-02  0.1026235E+00
         21   -1    0    0  502  501  0.00000000000E+00  0.00000000000E+00  0.85796063959E+02  0.85796063959E+02  0.00000000000E+00 0.  1.
         21   -1    0    0  501  502 -0.00000000000E+00 -0.00000000000E+00 -0.60330826511E+03  0.60330826511E+03  0.00000000000E+00 0.  1.
      99926    2    1    2    0    0  0.00000000000E+00  0.00000000000E+00 -0.51751220115E+03  0.68910432906E+03  0.45502296425E+03 0.  0.
      99925    2    3    3    0    0 -0.11151871501E+03  0.15110473486E+02 -0.34395308872E+03  0.44737095567E+03  0.26300626329E+03 0.  0.
         25    1    4    4    0    0 -0.32536288132E+02  0.41566782238E+02 -0.16097164376E+03  0.21058439075E+03  0.12509000000E+03 0.  0.
         25    1    3    3    0    0  0.11151871501E+03 -0.15110473486E+02 -0.17355911242E+03  0.24173337339E+03  0.12509000000E+03 0.  0.
         25    1    4    4    0    0 -0.78982426878E+02 -0.26456308753E+02 -0.18298144496E+03  0.23678656492E+03  0.12509000000E+03 0.  0.
<mgrwt>
<rscale>  2 0.45502296E+03</rscale>
<asrwt>0</asrwt>
<pdfrwt beam="1">  1       21 0.12617068E-01 0.45502296E+03</pdfrwt>
<pdfrwt beam="2">  1       21 0.88721804E-01 0.45502296E+03</pdfrwt>
<totfact> 0.53488976E+04</totfact>
</mgrwt>
</event>
<event>
 7    0  0.4732500E-002  0.4585455E+03  0.7546771E-02  0.1025204E+00
         21   -1    0    0  502  501  0.00000000000E+00  0.00000000000E+00  0.23336627884E+03  0.23336627884E+03  0.00000000000E+00 0. -1.
         21   -1    0    0  501  502 -0.00000000000E+00 -0.00000000000E+00 -0.22525097857E+03  0.22525097857E+03  0.00000000000E+00 0. -1.
      99926    2    1    2    0    0  0.00000000000E+00  0.00000000000E+00  0.81153002624E+01  0.45861725741E+03  0.45854545107E+03 0.  0.
      99925    2    3    3    0    0  0.76547434717E+02  0.52656224962E+01  0.93081227168E+02  0.28904735036E+03  0.26267283711E+03 0.  0.
         25    1    3    3    0    0 -0.76547434717E+02 -0.52656224962E+01 -0.84965926906E+02  0.16956990705E+03  0.12509000000E+03 0.  0.
         25    1    4    4    0    0 -0.20159029129E+00  0.14945024005E+02  0.52443058638E+02  0.13645943309E+03  0.12509000000E+03 0.  0.
         25    1    4    4    0    0  0.76749025008E+02 -0.96794015092E+01  0.40638168531E+02  0.15258791726E+03  0.12509000000E+03 0.  0.
<mgrwt>
<rscale>  2 0.45854545E+03</rscale>
<asrwt>0</asrwt>
<pdfrwt beam="1">  1       21 0.34318571E-01 0.45854545E+03</pdfrwt>
<pdfrwt beam="2">  1       21 0.33125144E-01 0.45854545E+03</pdfrwt>
<totfact> 0.66383709E+04</totfact>
</mgrwt>
</event>
<event>
 7    0  0.4732500E-002  0.4634519E+03  0.7546771E-02  0.1023785E+00
         21   -1    0    0  502  501  0.00000000000E+00  0.00000000000E+00  0.16869851406E+03  0.16869851406E+03  0.00000000000E+00 0.  1.
         21   -1    0    0  501  502 -0.00000000000E+00 -0.00000000000E+00 -0.31830107614E+03  0.31830107614E+03  0.00000000000E+00 0.  1.
      99926    2    1    2    0    0  0.00000000000E+00  0.35527136788E-14 -0.14960256207E+03  0.48699959020E+03  0.46345191150E+03 0.  0.
      99925    2    3    3    0    0 -0.73317258644E+02 -0.17483380405E+02 -0.19280023709E+03  0.33470173653E+03  0.26300614443E+03 0.  0.
         25    1    4    4    0    0 -0.14275719793E+02 -0.42264832404E+02 -0.86381332712E+02  0.15842775948E+03  0.12509000000E+03 0.  0.
         25    1    4    4    0    0 -0.59041538851E+02  0.24781452000E+02 -0.10641890438E+03  0.17627397704E+03  0.12509000000E+03 0.  0.
         25    1    3    3    0    0  0.73317258644E+02  0.17483380405E+02  0.43197675018E+02  0.15229785367E+03  0.12509000000E+03 0.  0.
<mgrwt>
<rscale>  2 0.46345191E+03</rscale>
<asrwt>0</asrwt>
<pdfrwt beam="1">  1       21 0.24808605E-01 0.46345191E+03</pdfrwt>
<pdfrwt beam="2">  1       21 0.46808982E-01 0.46345191E+03</pdfrwt>
<totfact> 0.61933422E+04</totfact>
</mgrwt>
</event>
<event>
 7    0  0.4732500E-002  0.4517388E+03  0.7546771E-02  0.1027205E+00
         21   -1    0    0  502  501  0.00000000000E+00  0.00000000000E+00  0.66087321147E+02  0.66087321147E+02  0.00000000000E+00 0.  1.
         21   -1    0    0  501  502 -0.00000000000E+00 -0.00000000000E+00 -0.77196316585E+03  0.77196316585E+03  0.00000000000E+00 0.  1.
      99926    2    1    2    0    0  0.00000000000E+00  0.00000000000E+00 -0.70587584471E+03  0.83805048700E+03  0.45173876369E+03 0.  0.
      99925    2    3    3    0    0 -0.43336385490E+02 -0.87724735035E+02 -0.35096131349E+03  0.44922468537E+03  0.26278375699E+03 0.  0.
         25    1    4    4    0    0 -0.48392630509E+02 -0.35224941226E+02 -0.22340982680E+03  0.26294885812E+03  0.12509000000E+03 0.  0.
         25    1    4    4    0    0  0.50562450189E+01 -0.52499793809E+02 -0.12755148669E+03  0.18627582726E+03  0.12509000000E+03 0.  0.
         25    1    3    3    0    0  0.43336385490E+02  0.87724735035E+02 -0.35491453121E+03  0.38882580163E+03  0.12509000000E+03 0.  0.
<mgrwt>
<rscale>  2 0.45173876E+03</rscale>
<asrwt>0</asrwt>
<pdfrwt beam="1">  1       21 0.97187245E-02 0.45173876E+03</pdfrwt>
<pdfrwt beam="2">  1       21 0.11352399E+00 0.45173876E+03</pdfrwt>
<totfact> 0.47174210E+04</totfact>
</mgrwt>
</event>
<event>
 7    0  0.4732500E-002  0.4536498E+03  0.7546771E-02  0.1026639E+00
         21   -1    0    0  502  501  0.00000000000E+00  0.00000000000E+00  0.31267713501E+03  0.31267713501E+03  0.00000000000E+00 0.  1.
         21   -1    0    0  501  502 -0.00000000000E+00 -0.00000000000E+00 -0.16454524375E+03  0.16454524375E+03  0.00000000000E+00 0.  1.
      99926    2    1    2    0    0  0.14432899320E-14  0.00000000000E+00  0.14813189126E+03  0.47722237877E+03  0.45364980060E+03 0.  0.
      99925    2    3    3    0    0  0.44687475230E+00 -0.68803159094E+02  0.50885910683E+00  0.27185893966E+03  0.26300750890E+03 0.  0.
         25    1    4    4    0    0 -0.25147123285E+02 -0.57373540766E+02 -0.22266353043E+02  0.14165944927E+03  0.12509000000E+03 0.  0.
         25    1    4    4    0    0  0.25593998037E+02 -0.11429618328E+02  0.22775212150E+02  0.13019949039E+03  0.12509000000E+03 0.  0.
         25    1    3    3    0    0 -0.44687475230E+00  0.68803159094E+02  0.14762303215E+03  0.20536343910E+03  0.12509000000E+03 0.  0.
<mgrwt>
<rscale>  2 0.45364980E+03</rscale>
<asrwt>0</asrwt>
<pdfrwt beam="1">  1       21 0.45981932E-01 0.45364980E+03</pdfrwt>
<pdfrwt beam="2">  1       21 0.24197830E-01 0.45364980E+03</pdfrwt>
<totfact> 0.67624638E+04</totfact>
</mgrwt>
</event>
<event>
 7    0  0.4732500E-002  0.4579803E+03  0.7546771E-02  0.1025369E+00
         21   -1    0    0  502  501  0.00000000000E+00  0.00000000000E+00  0.87960015378E+02  0.87960015378E+02  0.00000000000E+00 0.  1.
         21   -1    0    0  501  502 -0.00000000000E+00 -0.00000000000E+00 -0.59614015218E+03  0.59614015218E+03  0.00000000000E+00 0.  1.
      99926    2    1    2    0    0 -0.35527136788E-14 -0.71054273576E-14 -0.50818013681E+03  0.68410016756E+03  0.45798033562E+03 0.  0.
      99925    2    3    3    0    0  0.11974184520E+02 -0.44541677478E+02 -0.15976366298E+03  0.31104670027E+03  0.26286551621E+03 0.  0.
         25    1    4    4    0    0  0.38269746342E+02 -0.17205969717E+02 -0.52672198307E+02  0.14206508175E+03  0.12509000000E+03 0.  0.
         25    1    3    3    0    0 -0.11974184520E+02  0.44541677478E+02 -0.34841647382E+03  0.37305346729E+03  0.12509000000E+03 0.  0.
         25    1    4    4    0    0 -0.26295561821E+02 -0.27335707761E+02 -0.10709146468E+03  0.16898161852E+03  0.12509000000E+03 0.  0.
<mgrwt>
<rscale>  2 0.45798034E+03</rscale>
<asrwt>0</asrwt>
<pdfrwt beam="1">  1       21 0.12935297E-01 0.45798034E+03</pdfrwt>
<pdfrwt beam="2">  1       21 0.87667668E-01 0.45798034E+03</pdfrwt>
<totfact> 0.52531347E+04</totfact>
</mgrwt>
</event>
<event>
 7    0  0.4732500E-002  0.4602700E+03  0.7546771E-02  0.1024703E+00
         21   -1    0    0  502  501  0.00000000000E+00  0.00000000000E+00  0.22087629453E+03  0.22087629453E+03  0.00000000000E+00 0.  1.
         21   -1    0    0  501  502 -0.00000000000E+00 -0.00000000000E+00 -0.23978180648E+03  0.23978180648E+03  0.00000000000E+00 0.  1.
      99926    2    1    2    0    0  0.35527136788E-14  0.00000000000E+00 -0.18905511949E+02  0.46065810102E+03  0.46026999430E+03 0.  0.
      99925    2    3    3    0    0  0.22325904765E+02  0.97449617141E+02  0.50800482024E+02  0.28601186544E+03  0.26311066929E+03 0.  0.
         25    1    4    4    0    0  0.50878848941E+02  0.59485157951E+02  0.22916385081E+02  0.14933120937E+03  0.12509000000E+03 0.  0.
         25    1    4    4    0    0 -0.28552944176E+02  0.37964459190E+02  0.27884096943E+02  0.13668065607E+03  0.12509000000E+03 0.  0.
         25    1    3    3    0    0 -0.22325904765E+02 -0.97449617141E+02 -0.69705993973E+02  0.17464623557E+03  0.12509000000E+03 0.  0.
<mgrwt>
<rscale>  2 0.46026999E+03</rscale>
<asrwt>0</asrwt>
<pdfrwt beam="1">  1       21 0.32481808E-01 0.46026999E+03</pdfrwt>
<pdfrwt beam="2">  1       21 0.35262030E-01 0.46026999E+03</pdfrwt>
<totfact> 0.65342193E+04</totfact>
</mgrwt>
</event>
<event>
 7    0  0.4732500E-002  0.4688684E+03  0.7546771E-02  0.1022240E+00
         21   -1    0    0  502  501  0.00000000000E+00  0.00000000000E+00  0.34674402586E+03  0.34674402586E+03  0.00000000000E+00 0. -1.
         21   -1    0    0  501  502 -0.00000000000E+00 -0.00000000000E+00 -0.15850137100E+03  0.15850137100E+03  0.00000000000E+00 0. -1.
      99926    2    1    2    0    0  0.00000000000E+00  0.00000000000E+00  0.18824265486E+03  0.50524539686E+03  0.46886843991E+03 0.  0.
      99925    2    3    3    0    0 -0.10832276024E+03  0.49602574478E+02  0.16054911502E+03  0.33029204300E+03  0.26291173339E+03 0.  0.
         25    1    4    4    0    0 -0.91255353071E+02  0.48788352522E+02  0.93408354753E+02  0.18729781537E+03  0.12509000000E+03 0.  0.
         25    1    4    4    0    0 -0.17067407165E+02  0.81422195665E+00  0.67140760270E+02  0.14299422763E+03  0.12509000000E+03 0.  0.
         25    1    3    3    0    0  0.10832276024E+03 -0.49602574478E+02  0.27693539838E+02  0.17495335387E+03  0.12509000000E+03 0.  0.
<mgrwt>
<rscale>  2 0.46886844E+03</rscale>
<asrwt>0</asrwt>
<pdfrwt beam="1">  1       21 0.50991769E-01 0.46886844E+03</pdfrwt>
<pdfrwt beam="2">  1       21 0.23309025E-01 0.46886844E+03</pdfrwt>
<totfact> 0.58224772E+04</totfact>
</mgrwt>
</event>
<event>
 7    0  0.4732500E-002  0.4500014E+03  0.7546771E-02  0.1027722E+00
         21   -1    0    0  502  501  0.00000000000E+00  0.00000000000E+00  0.88271532295E+03  0.88271532295E+03  0.00000000000E+00 0. -1.
         21   -1    0    0  501  502 -0.00000000000E+00 -0.00000000000E+00 -0.57351806823E+02  0.57351806823E+02  0.00000000000E+00 0. -1.
      99926    2    1    2    0    0 -0.88817841970E-15  0.00000000000E+00  0.82536351613E+03  0.94006712978E+03  0.45000141636E+03 0.  0.
      99925    2    3    3    0    0  0.75013108896E+01  0.10744409178E+03  0.54703123493E+03  0.61646726979E+03  0.26303653779E+03 0.  0.
         25    1    4    4    0    0 -0.42287970465E+01  0.72723461911E+02  0.20953745191E+03  0.25467633673E+03  0.12509000000E+03 0.  0.
         25    1    4    4    0    0  0.11730107936E+02  0.34720629869E+02  0.33749378301E+03  0.36179093306E+03  0.12509000000E+03 0.  0.
         25    1    3    3    0    0 -0.75013108896E+01 -0.10744409178E+03  0.27833228120E+03  0.32359985999E+03  0.12509000000E+03 0.  0.
<mgrwt>
<rscale>  2 0.45000142E+03</rscale>
<asrwt>0</asrwt>
<pdfrwt beam="1">  1       21 0.12981107E+00 0.45000142E+03</pdfrwt>
<pdfrwt beam="2">  1       21 0.84340898E-02 0.45000142E+03</pdfrwt>
<totfact> 0.43210248E+04</totfact>
</mgrwt>
</event>
<event>
 7    0  0.4732500E-002  0.4550325E+03  0.7546771E-02  0.1026232E+00
         21   -1    0    0  502  501  0.00000000000E+00  0.00000000000E+00  0.26368631593E+03  0.26368631593E+03  0.00000000000E+00 0.  1.
         21   -1    0    0  501  502 -0.00000000000E+00 -0.00000000000E+00 -0.19630770270E+03  0.19630770270E+03  0.00000000000E+00 0.  1.
      99926    2    1    2    0    0  0.00000000000E+00  0.17763568394E-14  0.67378613220E+02  0.45999401863E+03  0.45503254791E+03 0.  0.
      99925    2    3    3    0    0 -0.11227147796E+03  0.14009551027E+02  0.45855200482E+02  0.28995897024E+03  0.26300637394E+03 0.  0.
         25    1    3    3    0    0  0.11227147796E+03 -0.14009551027E+02  0.21523412738E+02  0.17003504839E+03  0.12509000000E+03 0.  0.
         25    1    4    4    0    0 -0.26768157204E+02  0.29196040785E+02  0.41498342676E+02  0.13761745377E+03  0.12509000000E+03 0.  0.
         25    1    4    4    0    0 -0.85503320757E+02 -0.15186489758E+02  0.43568578066E+01  0.15234151647E+03  0.12509000000E+03 0.  0.
<mgrwt>
<rscale>  2 0.45503255E+03</rscale>
<asrwt>0</asrwt>
<pdfrwt beam="1">  1       21 0.38777400E-01 0.45503255E+03</pdfrwt>
<pdfrwt beam="2">  1       21 0.28868780E-01 0.45503255E+03</pdfrwt>
<totfact> 0.68163314E+04</totfact>
</mgrwt>
</event>
<event>
 7    0  0.4732500E-002  0.4469343E+03  0.7546771E-02  0.1028640E+00
         21   -1    0    0  502  501  0.00000000000E+00  0.00000000000E+00  0.13038033800E+03  0.13038033800E+03  0.00000000000E+00 0. -1.
         21   -1    0    0  501  502 -0.00000000000E+00 -0.00000000000E+00 -0.38301456083E+03  0.38301456083E+03  0.00000000000E+00 0. -1.
      99926    2    1    2    0    0  0.00000000000E+00 -0.35527136788E-14 -0.25263422284E+03  0.51339489883E+03  0.44693430345E+03 0.  0.
      99925    2    3    3    0    0 -0.32198839160E+02 -0.20394136912E+02 -0.47326256268E+02  0.26997847518E+03  0.26305116701E+03 0.  0.
         25    1    4    4    0    0  0.15333864333E+02 -0.35785611257E+02 -0.19809059569E+02  0.13249771436E+03  0.12509000000E+03 0.  0.
         25    1    3    3    0    0  0.32198839160E+02  0.20394136912E+02 -0.20530796657E+03  0.24341642365E+03  0.12509000000E+03 0.  0.
         25    1    4    4    0    0 -0.47532703494E+02  0.15391474345E+02 -0.27517196699E+02  0.13748076083E+03  0.12509000000E+03 0.  0.
<mgrwt>
<rscale>  2 0.44693430E+03</rscale>
<asrwt>0</asrwt>
<pdfrwt beam="1">  1       21 0.19173580E-01 0.44693430E+03</pdfrwt>
<pdfrwt beam="2">  1       21 0.56325669E-01 0.44693430E+03</pdfrwt>
<totfact> 0.68627283E+04</totfact>
</mgrwt>
</event>
<event>
 7    0  0.4732500E-002  0.4545819E+03  0.7546771E-02  0.1026364E+00
         21   -1    0    0  502  501  0.00000000000E+00  0.00000000000E+00  0.87030551336E+03  0.87030551336E+03  0.00000000000E+00 0. -1.
         21   -1    0    0  501  502 -0.00000000000E+00 -0.00000000000E+00 -0.59359808148E+02  0.59359808148E+02  0.00000000000E+00 0. -1.
      99926    2    1    2    0    0  0.00000000000E+00  0.71054273576E-14  0.81094570522E+03  0.92966532151E+03  0.45458186635E+03 0.  0.
      99925    2    3    3    0    0  0.97887437341E+02  0.33132338458E+02  0.41801946082E+03  0.50455563699E+03  0.26297608057E+03 0.  0.
         25    1    4    4    0    0  0.64981136316E+02 -0.17884082710E+02  0.18600713951E+03  0.23406954638E+03  0.12509000000E+03 0.  0.
         25    1    4    4    0    0  0.32906301025E+02  0.51016421167E+02  0.23201232130E+03  0.27048609061E+03  0.12509000000E+03 0.  0.
         25    1    3    3    0    0 -0.97887437341E+02 -0.33132338458E+02  0.39292624440E+03  0.42510968452E+03  0.12509000000E+03 0.  0.
<mgrwt>
<rscale>  2 0.45458187E+03</rscale>
<asrwt>0</asrwt>
<pdfrwt beam="1">  1       21 0.12798610E+00 0.45458187E+03</pdfrwt>
<pdfrwt beam="2">  1       21 0.87293841E-02 0.45458187E+03</pdfrwt>
<totfact> 0.42112963E+04</totfact>
</mgrwt>
</event>
<event>
 7    0  0.4732500E-002  0.4587755E+03  0.7546771E-02  0.1025137E+00
         21   -1    0    0  502  501  0.00000000000E+00  0.00000000000E+00  0.26333934344E+04  0.26333934344E+04  0.00000000000E+00 0. -1.
         21   -1    0    0  501  502 -0.00000000000E+00 -0.00000000000E+00 -0.19981344576E+02  0.19981344576E+02  0.00000000000E+00 0. -1.
      99926    2    1    2    0    0  0.00000000000E+00  0.00000000000E+00  0.26134120898E+04  0.26533747790E+04  0.45877550770E+03 0.  0.
      99925    2    3    3    0    0  0.20699354170E+02 -0.11356795893E+03  0.15362204015E+04  0.15628173132E+04  0.26286629310E+03 0.  0.
         25    1    4    4    0    0 -0.24193381572E+02 -0.51617473477E+02  0.63125712170E+03  0.64605165821E+03  0.12509000000E+03 0.  0.
         25    1    3    3    0    0 -0.20699354170E+02  0.11356795893E+03  0.10771916883E+04  0.10905574657E+04  0.12509000000E+03 0.  0.
         25    1    4    4    0    0  0.44892735742E+02 -0.61950485454E+02  0.90496327980E+03  0.91676565503E+03  0.12509000000E+03 0.  0.
<mgrwt>
<rscale>  2 0.45877551E+03</rscale>
<asrwt>0</asrwt>
<pdfrwt beam="1">  1       21 0.38726350E+00 0.45877551E+03</pdfrwt>
<pdfrwt beam="2">  1       21 0.29384348E-02 0.45877551E+03</pdfrwt>
<totfact> 0.55225558E+03</totfact>
</mgrwt>
</event>
<event>
 7    0  0.4732500E-002  0.4675268E+03  0.7546771E-02  0.1022621E+00
         21   -1    0    0  502  501  0.00000000000E+00  0.00000000000E+00  0.28350613523E+03  0.28350613523E+03  0.00000000000E+00 0. -1.
         21   -1    0    0  501  502 -0.00000000000E+00 -0.00000000000E+00 -0.19274833195E+03  0.19274833195E+03  0.00000000000E+00 0. -1.
      99926    2    1    2    0    0  0.00000000000E+00 -0.17763568394E-14  0.90757803287E+02  0.47625446718E+03  0.46752683201E+03 0.  0.
      99925    2    3    3    0    0  0.10411012807E+03 -0.90102210426E+01 -0.12283560368E+02  0.28341999522E+03  0.26316516674E+03 0.  0.
         25    1    3    3    0    0 -0.10411012807E+03  0.90102210426E+01  0.10304136366E+03  0.19283447196E+03  0.12509000000E+03 0.  0.
         25    1    4    4    0    0  0.15426196016E+02  0.10661171795E+02  0.11490863149E+02  0.12700856721E+03  0.12509000000E+03 0.  0.
         25    1    4    4    0    0  0.88683932057E+02 -0.19671392838E+02 -0.23774423518E+02  0.15641142802E+03  0.12509000000E+03 0.  0.
<mgrwt>
<rscale>  2 0.46752683E+03</rscale>
<asrwt>0</asrwt>
<pdfrwt beam="1">  1       21 0.41692078E-01 0.46752683E+03</pdfrwt>
<pdfrwt beam="2">  1       21 0.28345343E-01 0.46752683E+03</pdfrwt>
<totfact> 0.60708601E+04</totfact>
</mgrwt>
</event>
<event>
 7    0  0.4732500E-002  0.4579955E+03  0.7546771E-02  0.1025364E+00
         21   -1    0    0  502  501  0.00000000000E+00  0.00000000000E+00  0.24870736951E+03  0.24870736951E+03  0.00000000000E+00 0. -1.
         21   -1    0    0  501  502 -0.00000000000E+00 -0.00000000000E+00 -0.21085006532E+03  0.21085006532E+03  0.00000000000E+00 0. -1.
      99926    2    1    2    0    0  0.00000000000E+00 -0.14210854715E-13  0.37857304194E+02  0.45955743483E+03  0.45799548079E+03 0.  0.
      99925    2    3    3    0    0 -0.78908621315E+01 -0.11553529897E+03  0.34992320454E+02  0.28906876294E+03  0.26253688541E+03 0.  0.
         25    1    4    4    0    0  0.99811987279E+01 -0.19221420340E+02  0.28181507483E+02  0.13004150411E+03  0.12509000000E+03 0.  0.
         25    1    3    3    0    0  0.78908621315E+01  0.11553529897E+03  0.28649837398E+01  0.17048867189E+03  0.12509000000E+03 0.  0.
         25    1    4    4    0    0 -0.17872060859E+02 -0.96313878627E+02  0.68108129705E+01  0.15902725882E+03  0.12509000000E+03 0.  0.
<mgrwt>
<rscale>  2 0.45799548E+03</rscale>
<asrwt>0</asrwt>
<pdfrwt beam="1">  1       21 0.36574613E-01 0.45799548E+03</pdfrwt>
<pdfrwt beam="2">  1       21 0.31007362E-01 0.45799548E+03</pdfrwt>
<totfact> 0.66607030E+04</totfact>
</mgrwt>
</event>
<event>
 7    0  0.4732500E-002  0.4588318E+03  0.7546771E-02  0.1025121E+00
         21   -1    0    0  502  501  0.00000000000E+00  0.00000000000E+00  0.50245816884E+02  0.50245816884E+02  0.00000000000E+00 0.  1.
         21   -1    0    0  501  502 -0.00000000000E+00 -0.00000000000E+00 -0.10474834145E+04  0.10474834145E+04  0.00000000000E+00 0.  1.
      99926    2    1    2    0    0  0.00000000000E+00 -0.14210854715E-13 -0.99723759759E+03  0.10977292314E+04  0.45883182031E+03 0.  0.
      99925    2    3    3    0    0 -0.80822336718E+01  0.85525569965E+02 -0.81450874726E+03  0.86020599784E+03  0.26296371182E+03 0.  0.
         25    1    4    4    0    0 -0.21356652576E+02  0.34459851194E+02 -0.51223621377E+03  0.52884500068E+03  0.12509000000E+03 0.  0.
         25    1    3    3    0    0  0.80822336718E+01 -0.85525569965E+02 -0.18272885033E+03  0.23752323352E+03  0.12509000000E+03 0.  0.
         25    1    4    4    0    0  0.13274418904E+02  0.51065718771E+02 -0.30227253350E+03  0.33136099716E+03  0.12509000000E+03 0.  0.
<mgrwt>
<rscale>  2 0.45883182E+03</rscale>
<asrwt>0</asrwt>
<pdfrwt beam="1">  1       21 0.73890910E-02 0.45883182E+03</pdfrwt>
<pdfrwt beam="2">  1       21 0.15404167E+00 0.45883182E+03</pdfrwt>
<totfact> 0.34529303E+04</totfact>
</mgrwt>
</event>
<event>
 7    0  0.4732500E-002  0.4362936E+03  0.7546771E-02  0.1031890E+00
         21   -1    0    0  502  501  0.00000000000E+00  0.00000000000E+00  0.29174930185E+03  0.29174930185E+03  0.00000000000E+00 0. -1.
         21   -1    0    0  501  502 -0.00000000000E+00 -0.00000000000E+00 -0.16311276279E+03  0.16311276279E+03  0.00000000000E+00 0. -1.
      99926    2    1    2    0    0  0.00000000000E+00 -0.17763568394E-14  0.12863653906E+03  0.45486206464E+03  0.43629363812E+03 0.  0.
      99925    2    3    3    0    0 -0.67191416969E+02 -0.97428711132E+01  0.15074265705E+03  0.31082804573E+03  0.26321306066E+03 0.  0.
         25    1    4    4    0    0 -0.31554628681E+02  0.31017492368E+02  0.96779647243E+02  0.16423028845E+03  0.12509000000E+03 0.  0.
         25    1    4    4    0    0 -0.35636788287E+02 -0.40760363481E+02  0.53963009809E+02  0.14659775728E+03  0.12509000000E+03 0.  0.
         25    1    3    3    0    0  0.67191416969E+02  0.97428711132E+01 -0.22106117996E+02  0.14403401891E+03  0.12509000000E+03 0.  0.
<mgrwt>
<rscale>  2 0.43629364E+03</rscale>
<asrwt>0</asrwt>
<pdfrwt beam="1">  1       21 0.42904309E-01 0.43629364E+03</pdfrwt>
<pdfrwt beam="2">  1       21 0.23987171E-01 0.43629364E+03</pdfrwt>
<totfact> 0.79775608E+04</totfact>
</mgrwt>
</event>
<event>
 7    0  0.4732500E-002  0.4328619E+03  0.7546771E-02  0.1032960E+00
         21   -1    0    0  502  501  0.00000000000E+00  0.00000000000E+00  0.14186420933E+03  0.14186420933E+03  0.00000000000E+00 0. -1.
         21   -1    0    0  501  502 -0.00000000000E+00 -0.00000000000E+00 -0.33019146885E+03  0.33019146885E+03  0.00000000000E+00 0. -1.
      99926    2    1    2    0    0  0.00000000000E+00  0.00000000000E+00 -0.18832725953E+03  0.47205567818E+03  0.43286187938E+03 0.  0.
      99925    2    3    3    0    0 -0.68384456949E+02  0.38882813478E+02 -0.71244551819E+02  0.28352404773E+03  0.26291023628E+03 0.  0.
         25    1    3    3    0    0  0.68384456949E+02 -0.38882813478E+02 -0.11708270771E+03  0.18853163045E+03  0.12509000000E+03 0.  0.
         25    1    4    4    0    0 -0.48806837616E+02 -0.17047855968E+02 -0.25412099010E+02  0.13771717274E+03  0.12509000000E+03 0.  0.
         25    1    4    4    0    0 -0.19577619332E+02  0.55930669446E+02 -0.45832452809E+02  0.14580687499E+03  0.12509000000E+03 0.  0.
<mgrwt>
<rscale>  2 0.43286188E+03</rscale>
<asrwt>0</asrwt>
<pdfrwt beam="1">  1       21 0.20862384E-01 0.43286188E+03</pdfrwt>
<pdfrwt beam="2">  1       21 0.48557569E-01 0.43286188E+03</pdfrwt>
<totfact> 0.80531522E+04</totfact>
</mgrwt>
</event>
<event>
 7    0  0.4732500E-002  0.4523361E+03  0.7546771E-02  0.1027028E+00
         21   -1    0    0  502  501  0.00000000000E+00  0.00000000000E+00  0.17443370007E+03  0.17443370007E+03  0.00000000000E+00 0. -1.
         21   -1    0    0  501  502 -0.00000000000E+00 -0.00000000000E+00 -0.29324595357E+03  0.29324595357E+03  0.00000000000E+00 0. -1.
      99926    2    1    2    0    0  0.00000000000E+00 -0.35527136788E-14 -0.11881225350E+03  0.46767965364E+03  0.45233605521E+03 0.  0.
      99925    2    3    3    0    0 -0.10543986194E+03  0.31390570227E+02 -0.59723417168E+02  0.29092578221E+03  0.26261757712E+03 0.  0.
         25    1    4    4    0    0 -0.72823135671E+02  0.64594184546E+01  0.33848961304E+01  0.14492721897E+03  0.12509000000E+03 0.  0.
         25    1    4    4    0    0 -0.32616726268E+02  0.24931151772E+02 -0.63108313298E+02  0.14599856324E+03  0.12509000000E+03 0.  0.
         25    1    3    3    0    0  0.10543986194E+03 -0.31390570227E+02 -0.59088836337E+02  0.17675387143E+03  0.12509000000E+03 0.  0.
<mgrwt>
<rscale>  2 0.45233606E+03</rscale>
<asrwt>0</asrwt>
<pdfrwt beam="1">  1       21 0.25652015E-01 0.45233606E+03</pdfrwt>
<pdfrwt beam="2">  1       21 0.43124404E-01 0.45233606E+03</pdfrwt>
<totfact> 0.69056549E+04</totfact>
</mgrwt>
</event>
<event>
 7    0  0.4732500E-002  0.4511809E+03  0.7546771E-02  0.1027370E+00
         21   -1    0    0  502  501  0.00000000000E+00  0.00000000000E+00  0.12694744594E+04  0.12694744594E+04  0.00000000000E+00 0.  1.
         21   -1    0    0  501  502 -0.00000000000E+00 -0.00000000000E+00 -0.40088281542E+02  0.40088281542E+02  0.00000000000E+00 0.  1.
      99926    2    1    2    0    0  0.00000000000E+00 -0.14210854715E-13  0.12293861779E+04  0.13095627409E+04  0.45118089294E+03 0.  0.
      99925    2    3    3    0    0  0.81158982751E+02 -0.72960298528E+02  0.75473119551E+03  0.80671599887E+03  0.26317587222E+03 0.  0.
         25    1    3    3    0    0 -0.81158982751E+02  0.72960298528E+02  0.47465498235E+03  0.50284674207E+03  0.12509000000E+03 0.  0.
         25    1    4    4    0    0  0.41494469810E+00 -0.23693883133E+02  0.36777477657E+03  0.38918808648E+03  0.12509000000E+03 0.  0.
         25    1    4    4    0    0  0.80744038053E+02 -0.49266415395E+02  0.38695641894E+03  0.41752791239E+03  0.12509000000E+03 0.  0.
<mgrwt>
<rscale>  2 0.45118089E+03</rscale>
<asrwt>0</asrwt>
<pdfrwt beam="1">  1       21 0.18668739E+00 0.45118089E+03</pdfrwt>
<pdfrwt beam="2">  1       21 0.58953364E-02 0.45118089E+03</pdfrwt>
<totfact> 0.29710873E+04</totfact>
</mgrwt>
</event>
<event>
 7    0  0.4732500E-002  0.4177891E+03  0.7546771E-02  0.1037788E+00
         21   -1    0    0  502  501  0.00000000000E+00  0.00000000000E+00  0.11392581256E+03  0.11392581256E+03  0.00000000000E+00 0. -1.
         21   -1    0    0  501  502 -0.00000000000E+00 -0.00000000000E+00 -0.38302931349E+03  0.38302931349E+03  0.00000000000E+00 0. -1.
      99926    2    1    2    0    0  0.71054273576E-14 -0.71054273576E-14 -0.26910350093E+03  0.49695512605E+03  0.41778906532E+03 0.  0.
      99925    2    3    3    0    0 -0.38096096085E+02  0.48816286200E+02 -0.22176023147E+03  0.34956708176E+03  0.26303080059E+03 0.  0.
         25    1    4    4    0    0  0.20866443171E+02  0.32904398505E+02 -0.10808036251E+03  0.16984398945E+03  0.12509000000E+03 0.  0.
         25    1    4    4    0    0 -0.58962539257E+02  0.15911887695E+02 -0.11367986896E+03  0.17972309232E+03  0.12509000000E+03 0.  0.
         25    1    3    3    0    0  0.38096096085E+02 -0.48816286200E+02 -0.47343269459E+02  0.14738804429E+03  0.12509000000E+03 0.  0.
<mgrwt>
<rscale>  2 0.41778907E+03</rscale>
<asrwt>0</asrwt>
<pdfrwt beam="1">  1       21 0.16753796E-01 0.41778907E+03</pdfrwt>
<pdfrwt beam="2">  1       21 0.56327840E-01 0.41778907E+03</pdfrwt>
<totfact> 0.88984446E+04</totfact>
</mgrwt>
</event>
<event>
 7    0  0.4732500E-002  0.4540100E+03  0.7546771E-02  0.1026533E+00
         21   -1    0    0  502  501  0.00000000000E+00  0.00000000000E+00  0.34780756967E+02  0.34780756967E+02  0.00000000000E+00 0. -1.
         21   -1    0    0  501  502 -0.00000000000E+00 -0.00000000000E+00 -0.14816027933E+04  0.14816027933E+04  0.00000000000E+00 0. -1.
      99926    2    1    2    0    0  0.00000000000E+00  0.00000000000E+00 -0.14468220363E+04  0.15163835503E+04  0.45400998525E+03 0.  0.
      99925    2    3    3    0    0 -0.27009844350E+02 -0.95545937390E+02 -0.10862158306E+04  0.11219942736E+04  0.26295961948E+03 0.  0.
         25    1    4    4    0    0  0.20074644366E+02 -0.44858462966E+02 -0.61793448800E+03  0.63238106598E+03  0.12509000000E+03 0.  0.
         25    1    4    4    0    0 -0.47084488716E+02 -0.50687474424E+02 -0.46828134264E+03  0.48961320765E+03  0.12509000000E+03 0.  0.
         25    1    3    3    0    0  0.27009844350E+02  0.95545937390E+02 -0.36060620568E+03  0.39438927662E+03  0.12509000000E+03 0.  0.
<mgrwt>
<rscale>  2 0.45400999E+03</rscale>
<asrwt>0</asrwt>
<pdfrwt beam="1">  1       21 0.51148168E-02 0.45400999E+03</pdfrwt>
<pdfrwt beam="2">  1       21 0.21788278E+00 0.45400999E+03</pdfrwt>
<totfact> 0.23561071E+04</totfact>
</mgrwt>
</event>
<event>
 7    0  0.4732500E-002  0.4551978E+03  0.7546771E-02  0.1026183E+00
         21   -1    0    0  502  501  0.00000000000E+00  0.00000000000E+00  0.93192262558E+03  0.93192262558E+03  0.00000000000E+00 0. -1.
         21   -1    0    0  501  502 -0.00000000000E+00 -0.00000000000E+00 -0.55585359156E+02  0.55585359156E+02  0.00000000000E+00 0. -1.
      99926    2    1    2    0    0  0.00000000000E+00  0.71054273576E-14  0.87633726642E+03  0.98750798473E+03  0.45519777613E+03 0.  0.
      99925    2    3    3    0    0  0.10661356759E+03  0.35589875856E+02  0.58361418846E+03  0.64991740351E+03  0.26297151625E+03 0.  0.
         25    1    4    4    0    0  0.27390840467E+02  0.44470608975E+02  0.31809513350E+03  0.34577437045E+03  0.12509000000E+03 0.  0.
         25    1    3    3    0    0 -0.10661356759E+03 -0.35589875856E+02  0.29272307796E+03  0.33759058122E+03  0.12509000000E+03 0.  0.
         25    1    4    4    0    0  0.79222727123E+02 -0.88807331197E+01  0.26551905496E+03  0.30414303306E+03  0.12509000000E+03 0.  0.
<mgrwt>
<rscale>  2 0.45519778E+03</rscale>
<asrwt>0</asrwt>
<pdfrwt beam="1">  1       21 0.13704744E+00 0.45519778E+03</pdfrwt>
<pdfrwt beam="2">  1       21 0.81743181E-02 0.45519778E+03</pdfrwt>
<totfact> 0.39594918E+04</totfact>
</mgrwt>
</event>
<event>
 7    0  0.4732500E-002  0.4504030E+03  0.7546771E-02  0.1027602E+00
         21   -1    0    0  502  501  0.00000000000E+00  0.00000000000E+00  0.22218361331E+03  0.22218361331E+03  0.00000000000E+00 0. -1.
         21   -1    0    0  501  502 -0.00000000000E+00 -0.00000000000E+00 -0.22826041976E+03  0.22826041976E+03  0.00000000000E+00 0. -1.
      99926    2    1    2    0    0  0.00000000000E+00  0.00000000000E+00 -0.60768064406E+01  0.45044403307E+03  0.45040304101E+03 0.  0.
      99925    2    3    3    0    0 -0.70901788833E+02  0.51474914603E+02  0.60841787291E+02  0.28370370567E+03  0.26288655165E+03 0.  0.
         25    1    3    3    0    0  0.70901788833E+02 -0.51474914603E+02 -0.66918593732E+02  0.16674032740E+03  0.12509000000E+03 0.  0.
         25    1    4    4    0    0 -0.49684211916E+01 -0.30629486156E+01  0.20735473449E+02  0.12693122083E+03  0.12509000000E+03 0.  0.
         25    1    4    4    0    0 -0.65933367641E+02  0.54537863218E+02  0.40106313842E+02  0.15677248484E+03  0.12509000000E+03 0.  0.
<mgrwt>
<rscale>  2 0.45040304E+03</rscale>
<asrwt>0</asrwt>
<pdfrwt beam="1">  1       21 0.32674061E-01 0.45040304E+03</pdfrwt>
<pdfrwt beam="2">  1       21 0.33567709E-01 0.45040304E+03</pdfrwt>
<totfact> 0.71466415E+04</totfact>
</mgrwt>
</event>
<event>
 7    0  0.4732500E-002  0.4559266E+03  0.7546771E-02  0.1025969E+00
         21   -1    0    0  502  501  0.00000000000E+00  0.00000000000E+00  0.18983403996E+03  0.18983403996E+03  0.00000000000E+00 0.  1.
         21   -1    0    0  501  502 -0.00000000000E+00 -0.00000000000E+00 -0.27375101477E+03  0.27375101477E+03  0.00000000000E+00 0.  1.
      99926    2    1    2    0    0  0.00000000000E+00 -0.71054273576E-14 -0.83916974806E+02  0.46358505473E+03  0.45592657776E+03 0.  0.
      99925    2    3    3    0    0  0.93811338097E+02  0.63572392576E+02 -0.38748477194E+02  0.28885750243E+03  0.26285965071E+03 0.  0.
         25    1    4    4    0    0  0.21010974667E+02  0.61197420605E+02 -0.92969962604E+01  0.14114009914E+03  0.12509000000E+03 0.  0.
         25    1    3    3    0    0 -0.93811338097E+02 -0.63572392576E+02 -0.45168497612E+02  0.17472755229E+03  0.12509000000E+03 0.  0.
         25    1    4    4    0    0  0.72800363430E+02  0.23749719717E+01 -0.29451480934E+02  0.14771740330E+03  0.12509000000E+03 0.  0.
<mgrwt>
<rscale>  2 0.45592658E+03</rscale>
<asrwt>0</asrwt>
<pdfrwt beam="1">  1       21 0.27916771E-01 0.45592658E+03</pdfrwt>
<pdfrwt beam="2">  1       21 0.40257502E-01 0.45592658E+03</pdfrwt>
<totfact> 0.67417362E+04</totfact>
</mgrwt>
</event>
<event>
 7    0  0.4732500E-002  0.4549418E+03  0.7546771E-02  0.1026259E+00
         21   -1    0    0  502  501  0.00000000000E+00  0.00000000000E+00  0.29635480518E+03  0.29635480518E+03  0.00000000000E+00 0. -1.
         21   -1    0    0  501  502 -0.00000000000E+00 -0.00000000000E+00 -0.17459820494E+03  0.17459820494E+03  0.00000000000E+00 0. -1.
      99926    2    1    2    0    0  0.00000000000E+00  0.00000000000E+00  0.12175660024E+03  0.47095301012E+03  0.45494182929E+03 0.  0.
      99925    2    3    3    0    0  0.22870867553E+02  0.10468134164E+03  0.39112147163E+02  0.28667367434E+03  0.26300337571E+03 0.  0.
         25    1    4    4    0    0 -0.22236249860E+02  0.75562212140E+02  0.22907453470E+02  0.14958729303E+03  0.12509000000E+03 0.  0.
         25    1    4    4    0    0  0.45107117413E+02  0.29119129496E+02  0.16204693693E+02  0.13708638131E+03  0.12509000000E+03 0.  0.
         25    1    3    3    0    0 -0.22870867553E+02 -0.10468134164E+03  0.82644453079E+02  0.18427933578E+03  0.12509000000E+03 0.  0.
<mgrwt>
<rscale>  2 0.45494183E+03</rscale>
<asrwt>0</asrwt>
<pdfrwt beam="1">  1       21 0.43581589E-01 0.45494183E+03</pdfrwt>
<pdfrwt beam="2">  1       21 0.25676207E-01 0.45494183E+03</pdfrwt>
<totfact> 0.67395996E+04</totfact>
</mgrwt>
</event>
<event>
 7    0  0.4732500E-002  0.4503698E+03  0.7546771E-02  0.1027612E+00
         21   -1    0    0  502  501  0.00000000000E+00  0.00000000000E+00  0.29954253422E+03  0.29954253422E+03  0.00000000000E+00 0.  1.
         21   -1    0    0  501  502 -0.00000000000E+00 -0.00000000000E+00 -0.16928561406E+03  0.16928561406E+03  0.00000000000E+00 0.  1.
      99926    2    1    2    0    0  0.00000000000E+00  0.00000000000E+00  0.13025692017E+03  0.46882814828E+03  0.45036981178E+03 0.  0.
      99925    2    3    3    0    0  0.69567130653E+02  0.35250035622E+02  0.16182339516E+03  0.31807636181E+03  0.26249497147E+03 0.  0.
         25    1    3    3    0    0 -0.69567130653E+02 -0.35250035622E+02 -0.31566474993E+02  0.15075178646E+03  0.12509000000E+03 0.  0.
         25    1    4    4    0    0  0.41491749044E+02 -0.14795140760E+02  0.53781660639E+02  0.14310987579E+03  0.12509000000E+03 0.  0.
         25    1    4    4    0    0  0.28075381609E+02  0.50045176382E+02  0.10804173452E+03  0.17496648602E+03  0.12509000000E+03 0.  0.
<mgrwt>
<rscale>  2 0.45036981E+03</rscale>
<asrwt>0</asrwt>
<pdfrwt beam="1">  1       21 0.44050372E-01 0.45036981E+03</pdfrwt>
<pdfrwt beam="2">  1       21 0.24894943E-01 0.45036981E+03</pdfrwt>
<totfact> 0.70061546E+04</totfact>
</mgrwt>
</event>
<event>
 7    0  0.4732500E-002  0.4592608E+03  0.7546771E-02  0.1024996E+00
         21   -1    0    0  502  501  0.00000000000E+00  0.00000000000E+00  0.31825066912E+02  0.31825066912E+02  0.00000000000E+00 0.  1.
         21   -1    0    0  501  502 -0.00000000000E+00 -0.00000000000E+00 -0.16568735335E+04  0.16568735335E+04  0.00000000000E+00 0.  1.
      99926    2    1    2    0    0  0.00000000000E+00 -0.14210854715E-13 -0.16250484666E+04  0.16886986004E+04  0.45926075847E+03 0.  0.
      99925    2    3    3    0    0  0.52273291750E+02 -0.76388131532E+02 -0.12826591090E+04  0.13126060268E+04  0.26296872038E+03 0.  0.
         25    1    4    4    0    0  0.44558609757E+02 -0.65242332221E+02 -0.56784850530E+03  0.58680615597E+03  0.12509000000E+03 0.  0.
         25    1    4    4    0    0  0.77146819924E+01 -0.11145799311E+02 -0.71481060372E+03  0.72579987080E+03  0.12509000000E+03 0.  0.
         25    1    3    3    0    0 -0.52273291750E+02  0.76388131532E+02 -0.34238935755E+03  0.37609257362E+03  0.12509000000E+03 0.  0.
<mgrwt>
<rscale>  2 0.45926076E+03</rscale>
<asrwt>0</asrwt>
<pdfrwt beam="1">  1       21 0.46801574E-02 0.45926076E+03</pdfrwt>
<pdfrwt beam="2">  1       21 0.24365784E+00 0.45926076E+03</pdfrwt>
<totfact> 0.18865879E+04</totfact>
</mgrwt>
</event>
<event>
 7    0  0.4732500E-002  0.4550520E+03  0.7546771E-02  0.1026226E+00
         21   -1    0    0  502  501  0.00000000000E+00  0.00000000000E+00  0.10256075708E+04  0.10256075708E+04  0.00000000000E+00 0. -1.
         21   -1    0    0  501  502 -0.00000000000E+00 -0.00000000000E+00 -0.50475530099E+02  0.50475530099E+02  0.00000000000E+00 0. -1.
      99926    2    1    2    0    0  0.00000000000E+00  0.00000000000E+00  0.97513204066E+03  0.10760831009E+04  0.45505202255E+03 0.  0.
      99925    2    3    3    0    0  0.23635264934E+02 -0.10387815987E+03  0.70444991834E+03  0.75943563554E+03  0.26295151500E+03 0.  0.
         25    1    3    3    0    0 -0.23635264934E+02  0.10387815987E+03  0.27068212232E+03  0.31664746531E+03  0.12509000000E+03 0.  0.
         25    1    4    4    0    0 -0.21906918813E+01 -0.87609255321E+02  0.33453322980E+03  0.36775014710E+03  0.12509000000E+03 0.  0.
         25    1    4    4    0    0  0.25825956815E+02 -0.16268904545E+02  0.36991668854E+03  0.39168548845E+03  0.12509000000E+03 0.  0.
<mgrwt>
<rscale>  2 0.45505202E+03</rscale>
<asrwt>0</asrwt>
<pdfrwt beam="1">  1       21 0.15082463E+00 0.45505202E+03</pdfrwt>
<pdfrwt beam="2">  1       21 0.74228727E-02 0.45505202E+03</pdfrwt>
<totfact> 0.36319898E+04</totfact>
</mgrwt>
</event>
<event>
 7    0  0.4732500E-002  0.4462206E+03  0.7546771E-02  0.1028855E+00
         21   -1    0    0  502  501  0.00000000000E+00  0.00000000000E+00  0.31920946463E+03  0.31920946463E+03  0.00000000000E+00 0.  1.
         21   -1    0    0  501  502 -0.00000000000E+00 -0.00000000000E+00 -0.15594215311E+03  0.15594215311E+03  0.00000000000E+00 0.  1.
      99926    2    1    2    0    0  0.00000000000E+00  0.71054273576E-14  0.16326731152E+03  0.47515161774E+03  0.44622062350E+03 0.  0.
      99925    2    3    3    0    0  0.52147435190E+02  0.45534901303E+02  0.19881703090E+02  0.27266773434E+03  0.26298218380E+03 0.  0.
         25    1    4    4    0    0 -0.96467021972E+01  0.42006703772E+02  0.65906874330E+01  0.13247100545E+03  0.12509000000E+03 0.  0.
         25    1    3    3    0    0 -0.52147435190E+02 -0.45534901303E+02  0.14338560843E+03  0.20248388340E+03  0.12509000000E+03 0.  0.
         25    1    4    4    0    0  0.61794137387E+02  0.35281975306E+01  0.13291015657E+02  0.14019672889E+03  0.12509000000E+03 0.  0.
<mgrwt>
<rscale>  2 0.44622062E+03</rscale>
<asrwt>0</asrwt>
<pdfrwt beam="1">  1       21 0.46942568E-01 0.44622062E+03</pdfrwt>
<pdfrwt beam="2">  1       21 0.22932670E-01 0.44622062E+03</pdfrwt>
<totfact> 0.71938661E+04</totfact>
</mgrwt>
</event>
<event>
 7    0  0.4732500E-002  0.4616186E+03  0.7546771E-02  0.1024313E+00
         21   -1    0    0  502  501  0.00000000000E+00  0.00000000000E+00  0.11641646720E+04  0.11641646720E+04  0.00000000000E+00 0. -1.
         21   -1    0    0  501  502 -0.00000000000E+00 -0.00000000000E+00 -0.45760657921E+02  0.45760657921E+02  0.00000000000E+00 0. -1.
      99926    2    1    2    0    0  0.00000000000E+00  0.71054273576E-14  0.11184040141E+04  0.12099253300E+04  0.46161863620E+03 0.  0.
      99925    2    3    3    0    0  0.56182841088E+02 -0.59783395629E+02  0.92624303690E+03  0.96640137777E+03  0.26320124149E+03 0.  0.
         25    1    4    4    0    0  0.32313595271E+02 -0.28958874064E+02  0.60784923949E+03  0.62210207432E+03  0.12509000000E+03 0.  0.
         25    1    3    3    0    0 -0.56182841088E+02  0.59783395629E+02  0.19216097722E+03  0.24352395219E+03  0.12509000000E+03 0.  0.
         25    1    4    4    0    0  0.23869245817E+02 -0.30824521565E+02  0.31839379741E+03  0.34429930345E+03  0.12509000000E+03 0.  0.
<mgrwt>
<rscale>  2 0.46161864E+03</rscale>
<asrwt>0</asrwt>
<pdfrwt beam="1">  1       21 0.17120067E+00 0.46161864E+03</pdfrwt>
<pdfrwt beam="2">  1       21 0.67295093E-02 0.46161864E+03</pdfrwt>
<totfact> 0.30252933E+04</totfact>
</mgrwt>
</event>
<event>
 7    0  0.4732500E-002  0.4530445E+03  0.7546771E-02  0.1026818E+00
         21   -1    0    0  502  501  0.00000000000E+00  0.00000000000E+00  0.18211609877E+03  0.18211609877E+03  0.00000000000E+00 0. -1.
         21   -1    0    0  501  502 -0.00000000000E+00 -0.00000000000E+00 -0.28175616288E+03  0.28175616288E+03  0.00000000000E+00 0. -1.
      99926    2    1    2    0    0 -0.35527136788E-14 -0.14210854715E-13 -0.99640064114E+02  0.46387226165E+03  0.45304451520E+03 0.  0.
      99925    2    3    3    0    0  0.21445640796E+02  0.81992050857E+02  0.11175377243E+02  0.27649514978E+03  0.26294879136E+03 0.  0.
         25    1    4    4    0    0 -0.30532177052E+01  0.80392389736E+02  0.30149779898E+01  0.14875771126E+03  0.12509000000E+03 0.  0.
         25    1    4    4    0    0  0.24498858501E+02  0.15996611206E+01  0.81603992527E+01  0.12773743852E+03  0.12509000000E+03 0.  0.
         25    1    3    3    0    0 -0.21445640796E+02 -0.81992050857E+02 -0.11081544136E+03  0.18737711188E+03  0.12509000000E+03 0.  0.
<mgrwt>
<rscale>  2 0.45304452E+03</rscale>
<asrwt>0</asrwt>
<pdfrwt beam="1">  1       21 0.26781779E-01 0.45304452E+03</pdfrwt>
<pdfrwt beam="2">  1       21 0.41434730E-01 0.45304452E+03</pdfrwt>
<totfact> 0.68958096E+04</totfact>
</mgrwt>
</event>
<event>
 7    0  0.4732500E-002  0.4525090E+03  0.7546771E-02  0.1026976E+00
         21   -1    0    0  502  501  0.00000000000E+00  0.00000000000E+00  0.21801274061E+02  0.21801274061E+02  0.00000000000E+00 0. -1.
         21   -1    0    0  501  502 -0.00000000000E+00 -0.00000000000E+00 -0.23480782468E+04  0.23480782468E+04  0.00000000000E+00 0. -1.
      99926    2    1    2    0    0  0.17763568394E-14 -0.71054273576E-14 -0.23262769727E+04  0.23698795208E+04  0.45250899383E+03 0.  0.
      99925    2    3    3    0    0  0.96541456287E+01 -0.55846104606E+02 -0.96810714800E+03  0.10047843700E+04  0.26296043484E+03 0.  0.
         25    1    4    4    0    0  0.25066684656E+02 -0.48358157794E+02 -0.39387140987E+03  0.41683215533E+03  0.12509000000E+03 0.  0.
         25    1    4    4    0    0 -0.15412539027E+02 -0.74879468123E+01 -0.57423573814E+03  0.58795221469E+03  0.12509000000E+03 0.  0.
         25    1    3    3    0    0 -0.96541456287E+01  0.55846104606E+02 -0.13581698247E+04  0.13650951508E+04  0.12509000000E+03 0.  0.
<mgrwt>
<rscale>  2 0.45250899E+03</rscale>
<asrwt>0</asrwt>
<pdfrwt beam="1">  1       21 0.32060704E-02 0.45250899E+03</pdfrwt>
<pdfrwt beam="2">  1       21 0.34530555E+00 0.45250899E+03</pdfrwt>
<totfact> 0.87240663E+03</totfact>
</mgrwt>
</event>
<event>
 7    0  0.4732500E-002  0.4531104E+03  0.7546771E-02  0.1026799E+00
         21   -1    0    0  502  501  0.00000000000E+00  0.00000000000E+00  0.81111248351E+03  0.81111248351E+03  0.00000000000E+00 0.  1.
         21   -1    0    0  501  502 -0.00000000000E+00 -0.00000000000E+00 -0.63280063652E+02  0.63280063652E+02  0.00000000000E+00 0.  1.
      99926    2    1    2    0    0  0.00000000000E+00  0.00000000000E+00  0.74783241986E+03  0.87439254716E+03  0.45311036000E+03 0.  0.
      99925    2    3    3    0    0 -0.28129046619E+02  0.10780048026E+03  0.47204224407E+03  0.55171636897E+03  0.26297316365E+03 0.  0.
         25    1    4    4    0    0 -0.29630679763E+02  0.34496720866E+02  0.28922391441E+03  0.31838024704E+03  0.12509000000E+03 0.  0.
         25    1    4    4    0    0  0.15016331439E+01  0.73303759395E+02  0.18281832965E+03  0.23333612194E+03  0.12509000000E+03 0.  0.
         25    1    3    3    0    0  0.28129046619E+02 -0.10780048026E+03  0.27579017579E+03  0.32267617819E+03  0.12509000000E+03 0.  0.
<mgrwt>
<rscale>  2 0.45311036E+03</rscale>
<asrwt>0</asrwt>
<pdfrwt beam="1">  1       21 0.11928124E+00 0.45311036E+03</pdfrwt>
<pdfrwt beam="2">  1       21 0.93058922E-02 0.45311036E+03</pdfrwt>
<totfact> 0.45022094E+04</totfact>
</mgrwt>
</event>
<event>
 7    0  0.4732500E-002  0.4582950E+03  0.7546771E-02  0.1025277E+00
         21   -1    0    0  502  501  0.00000000000E+00  0.00000000000E+00  0.69533687858E+02  0.69533687858E+02  0.00000000000E+00 0.  1.
         21   -1    0    0  501  502 -0.00000000000E+00 -0.00000000000E+00 -0.75515289028E+03  0.75515289028E+03  0.00000000000E+00 0.  1.
      99926    2    1    2    0    0  0.00000000000E+00  0.35527136788E-14 -0.68561920242E+03  0.82468657813E+03  0.45829495026E+03 0.  0.
      99925    2    3    3    0    0 -0.11430244311E+03  0.20464892762E+02 -0.43948206368E+03  0.52516218931E+03  0.26299616051E+03 0.  0.
         25    1    3    3    0    0  0.11430244311E+03 -0.20464892762E+02 -0.24613713873E+03  0.29952438882E+03  0.12509000000E+03 0.  0.
         25    1    4    4    0    0 -0.89141040292E+02  0.35633773901E+02 -0.21698874903E+03  0.26823034171E+03  0.12509000000E+03 0.  0.
         25    1    4    4    0    0 -0.25161402817E+02 -0.15168881139E+02 -0.22249331465E+03  0.25693184760E+03  0.12509000000E+03 0.  0.
<mgrwt>
<rscale>  2 0.45829495E+03</rscale>
<asrwt>0</asrwt>
<pdfrwt beam="1">  1       21 0.10225542E-01 0.45829495E+03</pdfrwt>
<pdfrwt beam="2">  1       21 0.11105190E+00 0.45829495E+03</pdfrwt>
<totfact> 0.45408422E+04</totfact>
</mgrwt>
</event>
<event>
 7    0  0.4732500E-002  0.4549224E+03  0.7546771E-02  0.1026264E+00
         21   -1    0    0  502  501  0.00000000000E+00  0.00000000000E+00  0.13224254562E+04  0.13224254562E+04  0.00000000000E+00 0.  1.
         21   -1    0    0  501  502 -0.00000000000E+00 -0.00000000000E+00 -0.39124023462E+02  0.39124023462E+02  0.00000000000E+00 0.  1.
      99926    2    1    2    0    0  0.00000000000E+00  0.00000000000E+00  0.12833014328E+04  0.13615494797E+04  0.45492243109E+03 0.  0.
      99925    2    3    3    0    0  0.56739789001E+02 -0.75347489417E+02  0.99440907839E+03  0.10329114595E+04  0.26298292741E+03 0.  0.
         25    1    3    3    0    0 -0.56739789001E+02  0.75347489417E+02  0.28889235439E+03  0.32863802024E+03  0.12509000000E+03 0.  0.
         25    1    4    4    0    0 -0.97621328233E+01 -0.18915991173E+02  0.45426615376E+03  0.47165491677E+03  0.12509000000E+03 0.  0.
         25    1    4    4    0    0  0.66501921824E+02 -0.56431498245E+02  0.54014292463E+03  0.56125654270E+03  0.12509000000E+03 0.  0.
<mgrwt>
<rscale>  2 0.45492243E+03</rscale>
<asrwt>0</asrwt>
<pdfrwt beam="1">  1       21 0.19447430E+00 0.45492243E+03</pdfrwt>
<pdfrwt beam="2">  1       21 0.57535337E-02 0.45492243E+03</pdfrwt>
<totfact> 0.27391426E+04</totfact>
</mgrwt>
</event>
<event>
 7    0  0.4732500E-002  0.4499738E+03  0.7546771E-02  0.1027730E+00
         21   -1    0    0  502  501  0.00000000000E+00  0.00000000000E+00  0.10674348242E+03  0.10674348242E+03  0.00000000000E+00 0. -1.
         21   -1    0    0  501  502 -0.00000000000E+00 -0.00000000000E+00 -0.47421255025E+03  0.47421255025E+03  0.00000000000E+00 0. -1.
      99926    2    1    2    0    0  0.00000000000E+00  0.00000000000E+00 -0.36746906783E+03  0.58095603266E+03  0.44997377265E+03 0.  0.
      99925    2    3    3    0    0  0.25520992505E+02 -0.10525444258E+03 -0.23824583943E+03  0.37101325570E+03  0.26298276969E+03 0.  0.
         25    1    4    4    0    0 -0.50787925837E+01 -0.91025574932E+02 -0.12581486207E+03  0.19947014073E+03  0.12509000000E+03 0.  0.
         25    1    3    3    0    0 -0.25520992505E+02  0.10525444258E+03 -0.12922322840E+03  0.20994277697E+03  0.12509000000E+03 0.  0.
         25    1    4    4    0    0  0.30599785088E+02 -0.14228867653E+02 -0.11243097736E+03  0.17154311496E+03  0.12509000000E+03 0.  0.
<mgrwt>
<rscale>  2 0.44997377E+03</rscale>
<asrwt>0</asrwt>
<pdfrwt beam="1">  1       21 0.15697571E-01 0.44997377E+03</pdfrwt>
<pdfrwt beam="2">  1       21 0.69737140E-01 0.44997377E+03</pdfrwt>
<totfact> 0.62305035E+04</totfact>
</mgrwt>
</event>
<event>
 7    0  0.4732500E-002  0.4579275E+03  0.7546771E-02  0.1025384E+00
         21   -1    0    0  502  501  0.00000000000E+00  0.00000000000E+00  0.43908596127E+03  0.43908596127E+03  0.00000000000E+00 0. -1.
         21   -1    0    0  501  502 -0.00000000000E+00 -0.00000000000E+00 -0.11939439390E+03  0.11939439390E+03  0.00000000000E+00 0. -1.
      99926    2    1    2    0    0  0.71054273576E-14  0.14210854715E-13  0.31969156737E+03  0.55848035516E+03  0.45792751485E+03 0.  0.
      99925    2    3    3    0    0  0.32108590450E+02  0.10502612003E+03  0.15557299818E+03  0.32472009267E+03  0.26301850381E+03 0.  0.
         25    1    4    4    0    0  0.25913703297E+02  0.26692641608E+02  0.38013351838E+02  0.13592843762E+03  0.12509000000E+03 0.  0.
         25    1    4    4    0    0  0.61948871525E+01  0.78333478422E+02  0.11755964634E+03  0.18879165505E+03  0.12509000000E+03 0.  0.
         25    1    3    3    0    0 -0.32108590450E+02 -0.10502612003E+03  0.16411856919E+03  0.23376026250E+03  0.12509000000E+03 0.  0.
<mgrwt>
<rscale>  2 0.45792751E+03</rscale>
<asrwt>0</asrwt>
<pdfrwt beam="1">  1       21 0.64571464E-01 0.45792751E+03</pdfrwt>
<pdfrwt beam="2">  1       21 0.17557999E-01 0.45792751E+03</pdfrwt>
<totfact> 0.59910117E+04</totfact>
</mgrwt>
</event>
<event>
 7    0  0.4732500E-002  0.4599866E+03  0.7546771E-02  0.1024785E+00
         21   -1    0    0  502  501  0.00000000000E+00  0.00000000000E+00  0.10541712525E+03  0.10541712525E+03  0.00000000000E+00 0. -1.
         21   -1    0    0  501  502 -0.00000000000E+00 -0.00000000000E+00 -0.50178667196E+03  0.50178667196E+03  0.00000000000E+00 0. -1.
      99926    2    1    2    0    0  0.00000000000E+00  0.00000000000E+00 -0.39636954671E+03  0.60720379721E+03  0.45998655826E+03 0.  0.
      99925    2    3    3    0    0 -0.64009970337E+02 -0.67842328040E+02 -0.15335405045E+03  0.31840646809E+03  0.26299307284E+03 0.  0.
         25    1    4    4    0    0 -0.22376694614E+02 -0.58959578468E+02 -0.11377911991E+03  0.18047200498E+03  0.12509000000E+03 0.  0.
         25    1    4    4    0    0 -0.41633275723E+02 -0.88827495719E+01 -0.39574930540E+02  0.13793446311E+03  0.12509000000E+03 0.  0.
         25    1    3    3    0    0  0.64009970337E+02  0.67842328040E+02 -0.24301549626E+03  0.28879732911E+03  0.12509000000E+03 0.  0.
<mgrwt>
<rscale>  2 0.45998656E+03</rscale>
<asrwt>0</asrwt>
<pdfrwt beam="1">  1       21 0.15502518E-01 0.45998656E+03</pdfrwt>
<pdfrwt beam="2">  1       21 0.73792159E-01 0.45998656E+03</pdfrwt>
<totfact> 0.55998285E+04</totfact>
</mgrwt>
</event>
<event>
 7    0  0.4732500E-002  0.4540460E+03  0.7546771E-02  0.1026522E+00
         21   -1    0    0  502  501  0.00000000000E+00  0.00000000000E+00  0.34164142320E+02  0.34164142320E+02  0.00000000000E+00 0. -1.
         21   -1    0    0  501  502 -0.00000000000E+00 -0.00000000000E+00 -0.15085830259E+04  0.15085830259E+04  0.00000000000E+00 0. -1.
      99926    2    1    2    0    0  0.00000000000E+00  0.00000000000E+00 -0.14744188836E+04  0.15427471683E+04  0.45404601177E+03 0.  0.
      99925    2    3    3    0    0 -0.99178475836E+02 -0.50847687992E+02 -0.88448882937E+03  0.92948797799E+03  0.26306948608E+03 0.  0.
         25    1    4    4    0    0 -0.47153840801E+02 -0.22351932890E+02 -0.56970185906E+03  0.58560294562E+03  0.12509000000E+03 0.  0.
         25    1    3    3    0    0  0.99178475836E+02  0.50847687992E+02 -0.58993005425E+03  0.61325919027E+03  0.12509000000E+03 0.  0.
         25    1    4    4    0    0 -0.52024635035E+02 -0.28495755102E+02 -0.31478697032E+03  0.34388503237E+03  0.12509000000E+03 0.  0.
<mgrwt>
<rscale>  2 0.45404601E+03</rscale>
<asrwt>0</asrwt>
<pdfrwt beam="1">  1       21 0.50241369E-02 0.45404601E+03</pdfrwt>
<pdfrwt beam="2">  1       21 0.22185052E+00 0.45404601E+03</pdfrwt>
<totfact> 0.22919989E+04</totfact>
</mgrwt>
</event>
<event>
 7    0  0.4732500E-002  0.4552800E+03  0.7546771E-02  0.1026159E+00
         21   -1    0    0  502  501  0.00000000000E+00  0.00000000000E+00  0.11290501926E+04  0.11290501926E+04  0.00000000000E+00 0. -1.
         21   -1    0    0  501  502 -0.00000000000E+00 -0.00000000000E+00 -0.45896948984E+02  0.45896948984E+02  0.00000000000E+00 0. -1.
      99926    2    1    2    0    0  0.71054273576E-14  0.14210854715E-13  0.10831532436E+04  0.11749471415E+04  0.45527995382E+03 0.  0.
      99925    2    3    3    0    0 -0.47832310252E+02  0.10007135682E+03  0.62001770974E+03  0.68256087329E+03  0.26299273564E+03 0.  0.
         25    1    3    3    0    0  0.47832310252E+02 -0.10007135682E+03  0.46313553383E+03  0.49238626824E+03  0.12509000000E+03 0.  0.
         25    1    4    4    0    0 -0.28922351262E+01  0.14040510235E+02  0.30582041686E+03  0.33072516751E+03  0.12509000000E+03 0.  0.
         25    1    4    4    0    0 -0.44940075126E+02  0.86030846584E+02  0.31419729287E+03  0.35183570578E+03  0.12509000000E+03 0.  0.
<mgrwt>
<rscale>  2 0.45527995E+03</rscale>
<asrwt>0</asrwt>
<pdfrwt beam="1">  1       21 0.16603678E+00 0.45527995E+03</pdfrwt>
<pdfrwt beam="2">  1       21 0.67495520E-02 0.45527995E+03</pdfrwt>
<totfact> 0.32888469E+04</totfact>
</mgrwt>
</event>
<event>
 7    0  0.4732500E-002  0.4591509E+03  0.7546771E-02  0.1025028E+00
         21   -1    0    0  502  501  0.00000000000E+00  0.00000000000E+00  0.21415036255E+03  0.21415036255E+03  0.00000000000E+00 0. -1.
         21   -1    0    0  501  502 -0.00000000000E+00 -0.00000000000E+00 -0.24611157932E+03  0.24611157932E+03  0.00000000000E+00 0. -1.
      99926    2    1    2    0    0  0.00000000000E+00  0.00000000000E+00 -0.31961216768E+02  0.46026194187E+03  0.45915088562E+03 0.  0.
      99925    2    3    3    0    0  0.51492824918E+02 -0.95139325351E+02  0.24928846827E+02  0.28537057650E+03  0.26289145342E+03 0.  0.
         25    1    4    4    0    0  0.33470197874E+02 -0.73155880091E+02 -0.18649622754E+02  0.14989113872E+03  0.12509000000E+03 0.  0.
         25    1    4    4    0    0  0.18022627043E+02 -0.21983445260E+02  0.43578469581E+02  0.13547943778E+03  0.12509000000E+03 0.  0.
         25    1    3    3    0    0 -0.51492824918E+02  0.95139325351E+02 -0.56890063595E+02  0.17489136537E+03  0.12509000000E+03 0.  0.
<mgrwt>
<rscale>  2 0.45915089E+03</rscale>
<asrwt>0</asrwt>
<pdfrwt beam="1">  1       21 0.31492700E-01 0.45915089E+03</pdfrwt>
<pdfrwt beam="2">  1       21 0.36192879E-01 0.45915089E+03</pdfrwt>
<totfact> 0.65950621E+04</totfact>
</mgrwt>
</event>
<event>
 7    0  0.4732500E-002  0.4341626E+03  0.7546771E-02  0.1032553E+00
         21   -1    0    0  502  501  0.00000000000E+00  0.00000000000E+00  0.40339620815E+02  0.40339620815E+02  0.00000000000E+00 0.  1.
         21   -1    0    0  501  502 -0.00000000000E+00 -0.00000000000E+00 -0.11681885847E+04  0.11681885847E+04  0.00000000000E+00 0.  1.
      99926    2    1    2    0    0  0.00000000000E+00  0.00000000000E+00 -0.11278489638E+04  0.12085282055E+04  0.43416257114E+03 0.  0.
      99925    2    3    3    0    0  0.64185111841E+02  0.65782197758E+02 -0.74541801657E+03  0.79579589070E+03  0.26305142864E+03 0.  0.
         25    1    3    3    0    0 -0.64185111841E+02 -0.65782197758E+02 -0.38243094727E+03  0.41273231477E+03  0.12509000000E+03 0.  0.
         25    1    4    4    0    0 -0.24884489514E+00  0.45074675999E+01 -0.33376277731E+03  0.35646245077E+03  0.12509000000E+03 0.  0.
         25    1    4    4    0    0  0.64433956736E+02  0.61274730158E+02 -0.41165523926E+03  0.43933343994E+03  0.12509000000E+03 0.  0.
<mgrwt>
<rscale>  2 0.43416257E+03</rscale>
<asrwt>0</asrwt>
<pdfrwt beam="1">  1       21 0.59322974E-02 0.43416257E+03</pdfrwt>
<pdfrwt beam="2">  1       21 0.17179243E+00 0.43416257E+03</pdfrwt>
<totfact> 0.37632877E+04</totfact>
</mgrwt>
</event>
<event>
 7    0  0.4732500E-002  0.4557550E+03  0.7546771E-02  0.1026020E+00
         21   -1    0    0  502  501  0.00000000000E+00  0.00000000000E+00  0.17951437093E+03  0.17951437093E+03  0.00000000000E+00 0. -1.
         21   -1    0    0  501  502 -0.00000000000E+00 -0.00000000000E+00 -0.28927015005E+03  0.28927015005E+03  0.00000000000E+00 0. -1.
      99926    2    1    2    0    0  0.00000000000E+00  0.35527136788E-14 -0.10975577912E+03  0.46878452099E+03  0.45575497372E+03 0.  0.
      99925    2    3    3    0    0  0.69454587106E+02 -0.25207724216E+02 -0.15788138215E+03  0.31573893693E+03  0.26325876326E+03 0.  0.
         25    1    3    3    0    0 -0.69454587106E+02  0.25207724216E+02  0.48125603035E+02  0.15304558405E+03  0.12509000000E+03 0.  0.
         25    1    4    4    0    0  0.26274718833E+02  0.23757009291E+02 -0.55255788513E+02  0.14126381916E+03  0.12509000000E+03 0.  0.
         25    1    4    4    0    0  0.43179868273E+02 -0.48964733507E+02 -0.10262559364E+03  0.17447511777E+03  0.12509000000E+03 0.  0.
<mgrwt>
<rscale>  2 0.45575497E+03</rscale>
<asrwt>0</asrwt>
<pdfrwt beam="1">  1       21 0.26399172E-01 0.45575497E+03</pdfrwt>
<pdfrwt beam="2">  1       21 0.42539728E-01 0.45575497E+03</pdfrwt>
<totfact> 0.67123438E+04</totfact>
</mgrwt>
</event>
<event>
 7    0  0.4732500E-002  0.4668167E+03  0.7546771E-02  0.1022823E+00
         21   -1    0    0  502  501  0.00000000000E+00  0.00000000000E+00  0.35271127735E+03  0.35271127735E+03  0.00000000000E+00 0.  1.
         21   -1    0    0  501  502 -0.00000000000E+00 -0.00000000000E+00 -0.15445910438E+03  0.15445910438E+03  0.00000000000E+00 0.  1.
      99926    2    1    2    0    0  0.00000000000E+00 -0.14210854715E-13  0.19825217297E+03  0.50717038174E+03  0.46681674351E+03 0.  0.
      99925    2    3    3    0    0  0.10441496776E+03 -0.65711933629E+02  0.10758962668E+03  0.30946416253E+03  0.26262520139E+03 0.  0.
         25    1    4    4    0    0  0.15445926422E+02 -0.84527552901E+01  0.47448251258E+02  0.13494024738E+03  0.12509000000E+03 0.  0.
         25    1    3    3    0    0 -0.10441496776E+03  0.65711933629E+02  0.90662546295E+02  0.19770621921E+03  0.12509000000E+03 0.  0.
         25    1    4    4    0    0  0.88969041339E+02 -0.57259178339E+02  0.60141375419E+02  0.17452391515E+03  0.12509000000E+03 0.  0.
<mgrwt>
<rscale>  2 0.46681674E+03</rscale>
<asrwt>0</asrwt>
<pdfrwt beam="1">  1       21 0.51869305E-01 0.46681674E+03</pdfrwt>
<pdfrwt beam="2">  1       21 0.22714574E-01 0.46681674E+03</pdfrwt>
<totfact> 0.59034901E+04</totfact>
</mgrwt>
</event>
<event>
 7    0  0.4732500E-002  0.4597592E+03  0.7546771E-02  0.1024851E+00
         21   -1    0    0  502  501  0.00000000000E+00  0.00000000000E+00  0.63782261828E+03  0.63782261828E+03  0.00000000000E+00 0. -1.
         21   -1    0    0  501  502 -0.00000000000E+00 -0.00000000000E+00 -0.82851619844E+02  0.82851619844E+02  0.00000000000E+00 0. -1.
      99926    2    1    2    0    0  0.14210854715E-13  0.88817841970E-15  0.55497099844E+03  0.72067423812E+03  0.45975922872E+03 0.  0.
      99925    2    3    3    0    0  0.85343488706E+02  0.54162315273E+01  0.47305710454E+03  0.54842372073E+03  0.26395588017E+03 0.  0.
         25    1    4    4    0    0  0.51750043818E+02 -0.37349106395E+02  0.22144451934E+03  0.26221785986E+03  0.12509000000E+03 0.  0.
         25    1    3    3    0    0 -0.85343488706E+02 -0.54162315273E+01  0.81913893895E+02  0.17225051739E+03  0.12509000000E+03 0.  0.
         25    1    4    4    0    0  0.33593444887E+02  0.42765337922E+02  0.25161258520E+03  0.28620586087E+03  0.12509000000E+03 0.  0.
<mgrwt>
<rscale>  2 0.45975923E+03</rscale>
<asrwt>0</asrwt>
<pdfrwt beam="1">  1       21 0.93797441E-01 0.45975923E+03</pdfrwt>
<pdfrwt beam="2">  1       21 0.12184062E-01 0.45975923E+03</pdfrwt>
<totfact> 0.49900487E+04</totfact>
</mgrwt>
</event>
<event>
 7    0  0.4732500E-002  0.4571164E+03  0.7546771E-02  0.1025621E+00
         21   -1    0    0  502  501  0.00000000000E+00  0.00000000000E+00  0.89970307892E+02  0.89970307892E+02  0.00000000000E+00 0. -1.
         21   -1    0    0  501  502 -0.00000000000E+00 -0.00000000000E+00 -0.58062319826E+03  0.58062319826E+03  0.00000000000E+00 0. -1.
      99926    2    1    2    0    0  0.00000000000E+00  0.17763568394E-14 -0.49065289037E+03  0.67059350615E+03  0.45711638744E+03 0.  0.
      99925    2    3    3    0    0 -0.77509457572E+02 -0.81564405936E+01 -0.18360185632E+03  0.33000271187E+03  0.26290284263E+03 0.  0.
         25    1    4    4    0    0 -0.35107315475E+02  0.35930202647E+02 -0.84551818293E+02  0.15912266067E+03  0.12509000000E+03 0.  0.
         25    1    4    4    0    0 -0.42402142097E+02 -0.44086643240E+02 -0.99050038027E+02  0.17088005120E+03  0.12509000000E+03 0.  0.
         25    1    3    3    0    0  0.77509457572E+02  0.81564405936E+01 -0.30705103405E+03  0.34059079428E+03  0.12509000000E+03 0.  0.
<mgrwt>
<rscale>  2 0.45711639E+03</rscale>
<asrwt>0</asrwt>
<pdfrwt beam="1">  1       21 0.13230928E-01 0.45711639E+03</pdfrwt>
<pdfrwt beam="2">  1       21 0.85385763E-01 0.45711639E+03</pdfrwt>
<totfact> 0.53628585E+04</totfact>
</mgrwt>
</event>
<event>
 7    0  0.4732500E-002  0.4477584E+03  0.7546771E-02  0.1028393E+00
         21   -1    0    0  502  501  0.00000000000E+00  0.00000000000E+00  0.82400261620E+03  0.82400261620E+03  0.00000000000E+00 0. -1.
         21   -1    0    0  501  502 -0.00000000000E+00 -0.00000000000E+00 -0.60827358454E+02  0.60827358454E+02  0.00000000000E+00 0. -1.
      99926    2    1    2    0    0  0.00000000000E+00  0.00000000000E+00  0.76317525775E+03  0.88482997466E+03  0.44775842819E+03 0.  0.
      99925    2    3    3    0    0 -0.83660047136E+02  0.61491060885E+02  0.43855772783E+03  0.52178148907E+03  0.26295035205E+03 0.  0.
         25    1    4    4    0    0 -0.67768841174E+02  0.81537307913E+01  0.18386544745E+03  0.23262224749E+03  0.12509000000E+03 0.  0.
         25    1    4    4    0    0 -0.15891205962E+02  0.53337330094E+02  0.25469228038E+03  0.28915924159E+03  0.12509000000E+03 0.  0.
         25    1    3    3    0    0  0.83660047136E+02 -0.61491060885E+02  0.32461752992E+03  0.36304848558E+03  0.12509000000E+03 0.  0.
<mgrwt>
<rscale>  2 0.44775843E+03</rscale>
<asrwt>0</asrwt>
<pdfrwt beam="1">  1       21 0.12117685E+00 0.44775843E+03</pdfrwt>
<pdfrwt beam="2">  1       21 0.89452003E-02 0.44775843E+03</pdfrwt>
<totfact> 0.46476265E+04</totfact>
</mgrwt>
</event>
<event>
 7    0  0.4732500E-002  0.4520197E+03  0.7546771E-02  0.1027121E+00
         21   -1    0    0  502  501  0.00000000000E+00  0.00000000000E+00  0.73215713263E+03  0.73215713263E+03  0.00000000000E+00 0.  1.
         21   -1    0    0  501  502 -0.00000000000E+00 -0.00000000000E+00 -0.69767077633E+02  0.69767077633E+02  0.00000000000E+00 0.  1.
      99926    2    1    2    0    0  0.14210854715E-13  0.00000000000E+00  0.66239005499E+03  0.80192421026E+03  0.45201974962E+03 0.  0.
      99925    2    3    3    0    0  0.10372283865E+03  0.33686621919E+02  0.38579577846E+03  0.47936395594E+03  0.26278927647E+03 0.  0.
         25    1    4    4    0    0  0.16597797034E+02 -0.24403057723E+01  0.14677237334E+03  0.19357448084E+03  0.12509000000E+03 0.  0.
         25    1    4    4    0    0  0.87125041615E+02  0.36126927691E+02  0.23902340512E+03  0.28578947510E+03  0.12509000000E+03 0.  0.
         25    1    3    3    0    0 -0.10372283865E+03 -0.33686621919E+02  0.27659427654E+03  0.32256025432E+03  0.12509000000E+03 0.  0.
<mgrwt>
<rscale>  2 0.45201975E+03</rscale>
<asrwt>0</asrwt>
<pdfrwt beam="1">  1       21 0.10767016E+00 0.45201975E+03</pdfrwt>
<pdfrwt beam="2">  1       21 0.10259865E-01 0.45201975E+03</pdfrwt>
<totfact> 0.48803323E+04</totfact>
</mgrwt>
</event>
<event>
 7    0  0.4732500E-002  0.4562783E+03  0.7546771E-02  0.1025866E+00
         21   -1    0    0  502  501  0.00000000000E+00  0.00000000000E+00  0.90338621335E+02  0.90338621335E+02  0.00000000000E+00 0.  1.
         21   -1    0    0  501  502 -0.00000000000E+00 -0.00000000000E+00 -0.57613742552E+03  0.57613742552E+03  0.00000000000E+00 0.  1.
      99926    2    1    2    0    0  0.00000000000E+00 -0.35527136788E-14 -0.48579880419E+03  0.66647604686E+03  0.45627825160E+03 0.  0.
      99925    2    3    3    0    0 -0.10069734213E+03 -0.16333439538E+02 -0.37947471176E+03  0.47319113619E+03  0.26363243076E+03 0.  0.
         25    1    4    4    0    0 -0.54875886382E+02 -0.46736669985E+02 -0.16925342228E+03  0.22246327400E+03  0.12509000000E+03 0.  0.
         25    1    3    3    0    0  0.10069734213E+03  0.16333439538E+02 -0.10632409243E+03  0.19328491066E+03  0.12509000000E+03 0.  0.
         25    1    4    4    0    0 -0.45821455747E+02  0.30403230447E+02 -0.21022128948E+03  0.25072786219E+03  0.12509000000E+03 0.  0.
<mgrwt>
<rscale>  2 0.45627825E+03</rscale>
<asrwt>0</asrwt>
<pdfrwt beam="1">  1       21 0.13285091E-01 0.45627825E+03</pdfrwt>
<pdfrwt beam="2">  1       21 0.84726092E-01 0.45627825E+03</pdfrwt>
<totfact> 0.54212633E+04</totfact>
</mgrwt>
</event>
<event>
 6    0  0.4732500E-002  0.4463661E+03  0.7546771E-02  0.1028811E+00
         21   -1    0    0  502  501  0.00000000000E+00  0.00000000000E+00  0.13306457411E+03  0.13306457411E+03  0.00000000000E+00 0.  1.
         21   -1    0    0  501  502 -0.00000000000E+00 -0.00000000000E+00 -0.37433468059E+03  0.37433468059E+03  0.00000000000E+00 0.  1.
      99926    2    1    2    0    0  0.00000000000E+00  0.00000000000E+00 -0.24127010648E+03  0.50739925470E+03  0.44636614946E+03 0.  0.
         25    1    3    3    0    0  0.24374388889E+02  0.11427413383E+02 -0.73362980337E+02  0.14749349679E+03  0.12509000000E+03 0.  0.
         25    1    3    3    0    0 -0.76584080367E+02 -0.45211957178E+02 -0.15735577092E+03  0.21981262289E+03  0.12509000000E+03 0.  0.
         25    1    3    3    0    0  0.52209691478E+02  0.33784543795E+02 -0.10551355221E+02  0.14009313502E+03  0.12509000000E+03 0.  0.
<mgrwt>
<rscale>  2 0.44636615E+03</rscale>
<asrwt>0</asrwt>
<pdfrwt beam="1">  1       21 0.19568320E-01 0.44636615E+03</pdfrwt>
<pdfrwt beam="2">  1       21 0.55049217E-01 0.44636615E+03</pdfrwt>
<totfact> 0.69387556E+04</totfact>
</mgrwt>
</event>
<event>
 7    0  0.4732500E-002  0.4526355E+03  0.7546771E-02  0.1026939E+00
         21   -1    0    0  502  501  0.00000000000E+00  0.00000000000E+00  0.84943678816E+02  0.84943678816E+02  0.00000000000E+00 0. -1.
         21   -1    0    0  501  502 -0.00000000000E+00 -0.00000000000E+00 -0.60298454774E+03  0.60298454774E+03  0.00000000000E+00 0. -1.
      99926    2    1    2    0    0 -0.71054273576E-14  0.00000000000E+00 -0.51804086893E+03  0.68792822656E+03  0.45263550791E+03 0.  0.
      99925    2    3    3    0    0 -0.58062109250E+02 -0.87013111825E+02 -0.38271052356E+03  0.47602187781E+03  0.26303420530E+03 0.  0.
         25    1    4    4    0    0 -0.69794806820E+02 -0.39044010496E+02 -0.20763491430E+03  0.25525578456E+03  0.12509000000E+03 0.  0.
         25    1    4    4    0    0  0.11732697569E+02 -0.47969101329E+02 -0.17507560925E+03  0.22076609325E+03  0.12509000000E+03 0.  0.
         25    1    3    3    0    0  0.58062109250E+02  0.87013111825E+02 -0.13533034537E+03  0.21190634875E+03  0.12509000000E+03 0.  0.
<mgrwt>
<rscale>  2 0.45263551E+03</rscale>
<asrwt>0</asrwt>
<pdfrwt beam="1">  1       21 0.12491717E-01 0.45263551E+03</pdfrwt>
<pdfrwt beam="2">  1       21 0.88674199E-01 0.45263551E+03</pdfrwt>
<totfact> 0.54572180E+04</totfact>
</mgrwt>
</event>
<event>
 7    0  0.4732500E-002  0.4579444E+03  0.7546771E-02  0.1025379E+00
         21   -1    0    0  502  501  0.00000000000E+00  0.00000000000E+00  0.47042610554E+02  0.47042610554E+02  0.00000000000E+00 0.  1.
         21   -1    0    0  501  502 -0.00000000000E+00 -0.00000000000E+00 -0.11144847051E+04  0.11144847051E+04  0.00000000000E+00 0.  1.
      99926    2    1    2    0    0  0.35527136788E-14  0.00000000000E+00 -0.10674420946E+04  0.11615273157E+04  0.45794440690E+03 0.  0.
      99925    2    3    3    0    0 -0.19017556098E+02 -0.34118865551E+02 -0.94650759698E+03  0.98320618616E+03  0.26323375342E+03 0.  0.
         25    1    4    4    0    0 -0.24142966396E+02  0.93075685095E+01 -0.36232313190E+03  0.38418104283E+03  0.12509000000E+03 0.  0.
         25    1    3    3    0    0  0.19017556098E+02  0.34118865551E+02 -0.12093449761E+03  0.17832112953E+03  0.12509000000E+03 0.  0.
         25    1    4    4    0    0  0.51254102977E+01 -0.43426434061E+02 -0.58418446508E+03  0.59902514333E+03  0.12509000000E+03 0.  0.
<mgrwt>
<rscale>  2 0.45794441E+03</rscale>
<asrwt>0</asrwt>
<pdfrwt beam="1">  1       21 0.69180306E-02 0.45794441E+03</pdfrwt>
<pdfrwt beam="2">  1       21 0.16389482E+00 0.45794441E+03</pdfrwt>
<totfact> 0.32644328E+04</totfact>
</mgrwt>
</event>
<event>
 7    0  0.4732500E-002  0.4537620E+03  0.7546771E-02  0.1026606E+00
         21   -1    0    0  502  501  0.00000000000E+00  0.00000000000E+00  0.18783804105E+03  0.18783804105E+03  0.00000000000E+00 0.  1.
         21   -1    0    0  501  502 -0.00000000000E+00 -0.00000000000E+00 -0.27403918861E+03  0.27403918861E+03  0.00000000000E+00 0.  1.
      99926    2    1    2    0    0  0.00000000000E+00  0.00000000000E+00 -0.86201147559E+02  0.46187722966E+03  0.45376198325E+03 0.  0.
      99925    2    3    3    0    0 -0.11177656223E+01  0.78182039248E+02 -0.13586387219E+03  0.30622513370E+03  0.26306113373E+03 0.  0.
         25    1    4    4    0    0 -0.28976566504E+00  0.20843083512E+02 -0.24408576765E+02  0.12914257553E+03  0.12509000000E+03 0.  0.
         25    1    3    3    0    0  0.11177656223E+01 -0.78182039248E+02  0.49662724632E+02  0.15565209597E+03  0.12509000000E+03 0.  0.
         25    1    4    4    0    0 -0.82799995725E+00  0.57338955736E+02 -0.11145529543E+03  0.17708255817E+03  0.12509000000E+03 0.  0.
<mgrwt>
<rscale>  2 0.45376198E+03</rscale>
<asrwt>0</asrwt>
<pdfrwt beam="1">  1       21 0.27623242E-01 0.45376198E+03</pdfrwt>
<pdfrwt beam="2">  1       21 0.40299880E-01 0.45376198E+03</pdfrwt>
<totfact> 0.68716386E+04</totfact>
</mgrwt>
</event>
<event>
 7    0  0.4732500E-002  0.4552332E+03  0.7546771E-02  0.1026173E+00
         21   -1    0    0  502  501  0.00000000000E+00  0.00000000000E+00  0.66472402832E+02  0.66472402832E+02  0.00000000000E+00 0.  1.
         21   -1    0    0  501  502 -0.00000000000E+00 -0.00000000000E+00 -0.77941078884E+03  0.77941078884E+03  0.00000000000E+00 0.  1.
      99926    2    1    2    0    0 -0.71054273576E-14  0.14210854715E-13 -0.71293838601E+03  0.84588319167E+03  0.45523316192E+03 0.  0.
      99925    2    3    3    0    0  0.56002647327E+02 -0.69564604913E+02 -0.57833456017E+03  0.64157648891E+03  0.26300949958E+03 0.  0.
         25    1    3    3    0    0 -0.56002647327E+02  0.69564604913E+02 -0.13460382584E+03  0.20430670277E+03  0.12509000000E+03 0.  0.
         25    1    4    4    0    0  0.58450214966E+02 -0.62224282246E+02 -0.28941176147E+03  0.32664195185E+03  0.12509000000E+03 0.  0.
         25    1    4    4    0    0 -0.24475676392E+01 -0.73403226663E+01 -0.28892279870E+03  0.31493453706E+03  0.12509000000E+03 0.  0.
<mgrwt>
<rscale>  2 0.45523316E+03</rscale>
<asrwt>0</asrwt>
<pdfrwt beam="1">  1       21 0.97753545E-02 0.45523316E+03</pdfrwt>
<pdfrwt beam="2">  1       21 0.11461922E+00 0.45523316E+03</pdfrwt>
<totfact> 0.45540748E+04</totfact>
</mgrwt>
</event>
<event>
 7    0  0.4732500E-002  0.4141383E+03  0.7546771E-02  0.1038991E+00
         21   -1    0    0  502  501  0.00000000000E+00  0.00000000000E+00  0.51411304275E+03  0.51411304275E+03  0.00000000000E+00 0. -1.
         21   -1    0    0  501  502 -0.00000000000E+00 -0.00000000000E+00 -0.83401164041E+02  0.83401164041E+02  0.00000000000E+00 0. -1.
      99926    2    1    2    0    0  0.00000000000E+00  0.00000000000E+00  0.43071187871E+03  0.59751420679E+03  0.41413826780E+03 0.  0.
      99925    2    3    3    0    0 -0.62495327745E+02  0.24582694552E+02  0.27355257950E+03  0.38572060847E+03  0.26351356547E+03 0.  0.
         25    1    4    4    0    0 -0.32983853815E+02  0.49135858370E+02  0.16765379502E+03  0.21738806378E+03  0.12509000000E+03 0.  0.
         25    1    3    3    0    0  0.62495327745E+02 -0.24582694552E+02  0.15715929921E+03  0.21179359832E+03  0.12509000000E+03 0.  0.
         25    1    4    4    0    0 -0.29511473930E+02 -0.24553163818E+02  0.10589878448E+03  0.16833254469E+03  0.12509000000E+03 0.  0.
<mgrwt>
<rscale>  2 0.41413827E+03</rscale>
<asrwt>0</asrwt>
<pdfrwt beam="1">  1       21 0.75604858E-01 0.41413827E+03</pdfrwt>
<pdfrwt beam="2">  1       21 0.12264877E-01 0.41413827E+03</pdfrwt>
<totfact> 0.82368238E+04</totfact>
</mgrwt>
</event>
<event>
 7    0  0.4732500E-002  0.4543127E+03  0.7546771E-02  0.1026444E+00
         21   -1    0    0  502  501  0.00000000000E+00  0.00000000000E+00  0.28930109277E+03  0.28930109277E+03  0.00000000000E+00 0.  1.
         21   -1    0    0  501  502 -0.00000000000E+00 -0.00000000000E+00 -0.17836088675E+03  0.17836088675E+03  0.00000000000E+00 0.  1.
      99926    2    1    2    0    0  0.00000000000E+00  0.00000000000E+00  0.11094020602E+03  0.46766197952E+03  0.45431266522E+03 0.  0.
      99925    2    3    3    0    0  0.90882931590E+02  0.55884773859E+02  0.10604205227E+03  0.30318001937E+03  0.26323068228E+03 0.  0.
         25    1    4    4    0    0  0.67896873932E+02 -0.61334224374E+01  0.56561503130E+02  0.15327855720E+03  0.12509000000E+03 0.  0.
         25    1    3    3    0    0 -0.90882931590E+02 -0.55884773859E+02  0.48981537489E+01  0.16448196015E+03  0.12509000000E+03 0.  0.
         25    1    4    4    0    0  0.22986057659E+02  0.62018196296E+02  0.49480549145E+02  0.14990146217E+03  0.12509000000E+03 0.  0.
<mgrwt>
<rscale>  2 0.45431267E+03</rscale>
<asrwt>0</asrwt>
<pdfrwt beam="1">  1       21 0.42544279E-01 0.45431267E+03</pdfrwt>
<pdfrwt beam="2">  1       21 0.26229542E-01 0.45431267E+03</pdfrwt>
<totfact> 0.67979987E+04</totfact>
</mgrwt>
</event>
<event>
 7    0  0.4732500E-002  0.4580218E+03  0.7546771E-02  0.1025357E+00
         21   -1    0    0  502  501  0.00000000000E+00  0.00000000000E+00  0.25740532700E+02  0.25740532700E+02  0.00000000000E+00 0. -1.
         21   -1    0    0  501  502 -0.00000000000E+00 -0.00000000000E+00 -0.20374866993E+04  0.20374866993E+04  0.00000000000E+00 0. -1.
      99926    2    1    2    0    0  0.35527136788E-14  0.00000000000E+00 -0.20117461666E+04  0.20632272320E+04  0.45802180302E+03 0.  0.
      99925    2    3    3    0    0 -0.31594450343E+02  0.89194426502E+02 -0.96264891685E+03  0.10024697656E+04  0.26324672610E+03 0.  0.
         25    1    4    4    0    0 -0.36577334634E+02  0.16179460778E+02 -0.37946977749E+03  0.40155260737E+03  0.12509000000E+03 0.  0.
         25    1    4    4    0    0  0.49828842910E+01  0.73014965724E+02 -0.58317913937E+03  0.60091715822E+03  0.12509000000E+03 0.  0.
         25    1    3    3    0    0  0.31594450343E+02 -0.89194426502E+02 -0.10490972497E+04  0.10607574664E+04  0.12509000000E+03 0.  0.
<mgrwt>
<rscale>  2 0.45802180E+03</rscale>
<asrwt>0</asrwt>
<pdfrwt beam="1">  1       21 0.37853724E-02 0.45802180E+03</pdfrwt>
<pdfrwt beam="2">  1       21 0.29963040E+00 0.45802180E+03</pdfrwt>
<totfact> 0.12411143E+04</totfact>
</mgrwt>
</event>
<event>
 7    0  0.4732500E-002  0.4536389E+03  0.7546771E-02  0.1026642E+00
         21   -1    0    0  502  501  0.00000000000E+00  0.00000000000E+00  0.22981249024E+03  0.22981249024E+03  0.00000000000E+00 0. -1.
         21   -1    0    0  501  502 -0.00000000000E+00 -0.00000000000E+00 -0.22386539023E+03  0.22386539023E+03  0.00000000000E+00 0. -1.
      99926    2    1    2    0    0  0.00000000000E+00 -0.71054273576E-14  0.59471000034E+01  0.45367788047E+03  0.45363889960E+03 0.  0.
      99925    2    3    3    0    0 -0.68912796741E+02 -0.56627184201E+02  0.71346494996E+02  0.28670422833E+03  0.26297030374E+03 0.  0.
         25    1    4    4    0    0 -0.33479189180E+02 -0.34249103299E+02  0.77293189111E+02  0.15464670177E+03  0.12509000000E+03 0.  0.
         25    1    3    3    0    0  0.68912796741E+02  0.56627184201E+02 -0.65399394992E+02  0.16697365214E+03  0.12509000000E+03 0.  0.
         25    1    4    4    0    0 -0.35433607561E+02 -0.22378080902E+02 -0.59466941151E+01  0.13205752656E+03  0.12509000000E+03 0.  0.
<mgrwt>
<rscale>  2 0.45363890E+03</rscale>
<asrwt>0</asrwt>
<pdfrwt beam="1">  1       21 0.33795955E-01 0.45363890E+03</pdfrwt>
<pdfrwt beam="2">  1       21 0.32921381E-01 0.45363890E+03</pdfrwt>
<totfact> 0.69393324E+04</totfact>
</mgrwt>
</event>
<event>
 7    0  0.4732500E-002  0.4509552E+03  0.7546771E-02  0.1027438E+00
         21   -1    0    0  502  501  0.00000000000E+00  0.00000000000E+00  0.69753386017E+02  0.69753386017E+02  0.00000000000E+00 0.  1.
         21   -1    0    0  501  502 -0.00000000000E+00 -0.00000000000E+00 -0.72885569120E+03  0.72885569120E+03  0.00000000000E+00 0.  1.
      99926    2    1    2    0    0  0.00000000000E+00  0.00000000000E+00 -0.65910230518E+03  0.79860907722E+03  0.45095521897E+03 0.  0.
      99925    2    3    3    0    0 -0.19357902140E+02  0.67974968980E+01 -0.60734323190E+03  0.66168777096E+03  0.26180903454E+03 0.  0.
         25    1    4    4    0    0  0.10691639710E+01  0.86216222864E+01 -0.20970764270E+03  0.24433640537E+03  0.12509000000E+03 0.  0.
         25    1    3    3    0    0  0.19357902140E+02 -0.67974968980E+01 -0.51759073283E+02  0.13692130625E+03  0.12509000000E+03 0.  0.
         25    1    4    4    0    0 -0.20427066111E+02 -0.18241253884E+01 -0.39763558920E+03  0.41735136559E+03  0.12509000000E+03 0.  0.
<mgrwt>
<rscale>  2 0.45095522E+03</rscale>
<asrwt>0</asrwt>
<pdfrwt beam="1">  1       21 0.10257851E-01 0.45095522E+03</pdfrwt>
<pdfrwt beam="2">  1       21 0.10718466E+00 0.45095522E+03</pdfrwt>
<totfact> 0.49381108E+04</totfact>
</mgrwt>
</event>
<event>
 7    0  0.4732500E-002  0.4493031E+03  0.7546771E-02  0.1027930E+00
         21   -1    0    0  502  501  0.00000000000E+00  0.00000000000E+00  0.96154794860E+02  0.96154794860E+02  0.00000000000E+00 0. -1.
         21   -1    0    0  501  502 -0.00000000000E+00 -0.00000000000E+00 -0.52486539551E+03  0.52486539551E+03  0.00000000000E+00 0. -1.
      99926    2    1    2    0    0  0.71054273576E-14  0.00000000000E+00 -0.42871060065E+03  0.62102019037E+03  0.44930312456E+03 0.  0.
      99925    2    3    3    0    0  0.39616958573E+02 -0.99493654094E+02 -0.25822548892E+03  0.38399451237E+03  0.26325442406E+03 0.  0.
         25    1    3    3    0    0 -0.39616958573E+02  0.99493654094E+02 -0.17048511173E+03  0.23702567800E+03  0.12509000000E+03 0.  0.
         25    1    4    4    0    0 -0.15324242828E+02 -0.24890858886E+02 -0.11227177456E+03  0.17060728805E+03  0.12509000000E+03 0.  0.
         25    1    4    4    0    0  0.54941201401E+02 -0.74602795208E+02 -0.14595371436E+03  0.21338722431E+03  0.12509000000E+03 0.  0.
<mgrwt>
<rscale>  2 0.44930312E+03</rscale>
<asrwt>0</asrwt>
<pdfrwt beam="1">  1       21 0.14140411E-01 0.44930312E+03</pdfrwt>
<pdfrwt beam="2">  1       21 0.77186088E-01 0.44930312E+03</pdfrwt>
<totfact> 0.60059075E+04</totfact>
</mgrwt>
</event>
<event>
 7    0  0.4732500E-002  0.4745371E+03  0.7546771E-02  0.1020647E+00
         21   -1    0    0  502  501  0.00000000000E+00  0.00000000000E+00  0.42170830914E+03  0.42170830914E+03  0.00000000000E+00 0.  1.
         21   -1    0    0  501  502 -0.00000000000E+00 -0.00000000000E+00 -0.13349597749E+03  0.13349597749E+03  0.00000000000E+00 0.  1.
      99926    2    1    2    0    0  0.00000000000E+00  0.00000000000E+00  0.28821233165E+03  0.55520428663E+03  0.47453709209E+03 0.  0.
      99925    2    3    3    0    0  0.35239229166E+02 -0.32682969521E+02  0.32052283979E+03  0.41735851482E+03  0.26295105875E+03 0.  0.
         25    1    3    3    0    0 -0.35239229166E+02  0.32682969521E+02 -0.32310508134E+02  0.13784577181E+03  0.12509000000E+03 0.  0.
         25    1    4    4    0    0  0.42753849394E+02  0.13897838382E+02  0.17480207335E+03  0.21960035177E+03  0.12509000000E+03 0.  0.
         25    1    4    4    0    0 -0.75146202275E+01 -0.46580807903E+02  0.14572076643E+03  0.19775816305E+03  0.12509000000E+03 0.  0.
<mgrwt>
<rscale>  2 0.47453709E+03</rscale>
<asrwt>0</asrwt>
<pdfrwt beam="1">  1       21 0.62015928E-01 0.47453709E+03</pdfrwt>
<pdfrwt beam="2">  1       21 0.19631761E-01 0.47453709E+03</pdfrwt>
<totfact> 0.52862451E+04</totfact>
</mgrwt>
</event>
<event>
 7    0  0.4732500E-002  0.4427844E+03  0.7546771E-02  0.1029896E+00
         21   -1    0    0  502  501  0.00000000000E+00  0.00000000000E+00  0.10248316015E+03  0.10248316015E+03  0.00000000000E+00 0.  1.
         21   -1    0    0  501  502 -0.00000000000E+00 -0.00000000000E+00 -0.47826894807E+03  0.47826894807E+03  0.00000000000E+00 0.  1.
      99926    2    1    2    0    0  0.00000000000E+00  0.00000000000E+00 -0.37578578792E+03  0.58075210822E+03  0.44278443152E+03 0.  0.
      99925    2    3    3    0    0 -0.18090001228E+02  0.25871310348E+02 -0.11296432709E+03  0.28797369163E+03  0.26300443919E+03 0.  0.
         25    1    3    3    0    0  0.18090001228E+02 -0.25871310348E+02 -0.26282146083E+03  0.29277841659E+03  0.12509000000E+03 0.  0.
         25    1    4    4    0    0  0.17494182431E+01  0.13102704203E+02 -0.13660983659E+02  0.12652617080E+03  0.12509000000E+03 0.  0.
         25    1    4    4    0    0 -0.19839419471E+02  0.12768606145E+02 -0.99303343432E+02  0.16144752084E+03  0.12509000000E+03 0.  0.
<mgrwt>
<rscale>  2 0.44278443E+03</rscale>
<asrwt>0</asrwt>
<pdfrwt beam="1">  1       21 0.15071053E-01 0.44278443E+03</pdfrwt>
<pdfrwt beam="2">  1       21 0.70333669E-01 0.44278443E+03</pdfrwt>
<totfact> 0.66027755E+04</totfact>
</mgrwt>
</event>
<event>
 7    0  0.4732500E-002  0.4638998E+03  0.7546771E-02  0.1023656E+00
         21   -1    0    0  502  501  0.00000000000E+00  0.00000000000E+00  0.76157378024E+03  0.76157378024E+03  0.00000000000E+00 0. -1.
         21   -1    0    0  501  502 -0.00000000000E+00 -0.00000000000E+00 -0.70644191854E+02  0.70644191854E+02  0.00000000000E+00 0. -1.
      99926    2    1    2    0    0  0.00000000000E+00  0.00000000000E+00  0.69092958839E+03  0.83221797209E+03  0.46389983506E+03 0.  0.
      99925    2    3    3    0    0 -0.45080123928E+02 -0.10914366255E+03  0.38235928603E+03  0.47893664475E+03  0.26312949175E+03 0.  0.
         25    1    4    4    0    0 -0.28862611353E+01 -0.58721616148E+02  0.24814683207E+03  0.28404386470E+03  0.12509000000E+03 0.  0.
         25    1    4    4    0    0 -0.42193862793E+02 -0.50422046404E+02  0.13421245396E+03  0.19489278006E+03  0.12509000000E+03 0.  0.
         25    1    3    3    0    0  0.45080123928E+02  0.10914366255E+03  0.30857030236E+03  0.35328132734E+03  0.12509000000E+03 0.  0.
<mgrwt>
<rscale>  2 0.46389984E+03</rscale>
<asrwt>0</asrwt>
<pdfrwt beam="1">  1       21 0.11199614E+00 0.46389984E+03</pdfrwt>
<pdfrwt beam="2">  1       21 0.10388852E-01 0.46389984E+03</pdfrwt>
<totfact> 0.43152506E+04</totfact>
</mgrwt>
</event>
<event>
 7    0  0.4732500E-002  0.4368973E+03  0.7546771E-02  0.1031703E+00
         21   -1    0    0  502  501  0.00000000000E+00  0.00000000000E+00  0.48825537134E+03  0.48825537134E+03  0.00000000000E+00 0. -1.
         21   -1    0    0  501  502 -0.00000000000E+00 -0.00000000000E+00 -0.97735337732E+02  0.97735337732E+02  0.00000000000E+00 0. -1.
      99926    2    1    2    0    0  0.71054273576E-14  0.71054273576E-14  0.39052003361E+03  0.58599070908E+03  0.43689725848E+03 0.  0.
      99925    2    3    3    0    0 -0.42501082602E+02  0.58340035744E+02  0.33300076615E+03  0.43053693453E+03  0.26317796249E+03 0.  0.
         25    1    3    3    0    0  0.42501082602E+02 -0.58340035744E+02  0.57519267457E+02  0.15545377455E+03  0.12509000000E+03 0.  0.
         25    1    4    4    0    0  0.16333492367E+02  0.40736314820E+02  0.14416410804E+03  0.19584950463E+03  0.12509000000E+03 0.  0.
         25    1    4    4    0    0 -0.58834574968E+02  0.17603720924E+02  0.18883665811E+03  0.23468742989E+03  0.12509000000E+03 0.  0.
<mgrwt>
<rscale>  2 0.43689726E+03</rscale>
<asrwt>0</asrwt>
<pdfrwt beam="1">  1       21 0.71802260E-01 0.43689726E+03</pdfrwt>
<pdfrwt beam="2">  1       21 0.14372844E-01 0.43689726E+03</pdfrwt>
<totfact> 0.68889220E+04</totfact>
</mgrwt>
</event>
<event>
 7    0  0.4732500E-002  0.4571635E+03  0.7546771E-02  0.1025607E+00
         21   -1    0    0  502  501  0.00000000000E+00  0.00000000000E+00  0.19310374008E+02  0.19310374008E+02  0.00000000000E+00 0.  1.
         21   -1    0    0  501  502 -0.00000000000E+00 -0.00000000000E+00 -0.27057799674E+04  0.27057799674E+04  0.00000000000E+00 0.  1.
      99926    2    1    2    0    0 -0.13322676296E-14  0.35527136788E-14 -0.26864695934E+04  0.27250903414E+04  0.45716352940E+03 0.  0.
      99925    2    3    3    0    0 -0.29353977769E+01 -0.30530337454E+02 -0.10227690884E+04  0.10564119433E+04  0.26269538936E+03 0.  0.
         25    1    4    4    0    0 -0.14768346506E+02  0.15842394916E+01 -0.36914966388E+03  0.39005076120E+03  0.12509000000E+03 0.  0.
         25    1    3    3    0    0  0.29353977769E+01  0.30530337454E+02 -0.16637005050E+04  0.16686783981E+04  0.12509000000E+03 0.  0.
         25    1    4    4    0    0  0.11832948729E+02 -0.32114576946E+02 -0.65361942454E+03  0.66636118207E+03  0.12509000000E+03 0.  0.
<mgrwt>
<rscale>  2 0.45716353E+03</rscale>
<asrwt>0</asrwt>
<pdfrwt beam="1">  1       21 0.28397600E-02 0.45716353E+03</pdfrwt>
<pdfrwt beam="2">  1       21 0.39790894E+00 0.45716353E+03</pdfrwt>
<totfact> 0.50074400E+03</totfact>
</mgrwt>
</event>
<event>
 7    0  0.4732500E-002  0.4538958E+03  0.7546771E-02  0.1026567E+00
         21   -1    0    0  502  501  0.00000000000E+00  0.00000000000E+00  0.14274435432E+03  0.14274435432E+03  0.00000000000E+00 0. -1.
         21   -1    0    0  501  502 -0.00000000000E+00 -0.00000000000E+00 -0.36082230258E+03  0.36082230258E+03  0.00000000000E+00 0. -1.
      99926    2    1    2    0    0  0.71054273576E-14  0.00000000000E+00 -0.21807794825E+03  0.50356665690E+03  0.45389578807E+03 0.  0.
      99925    2    3    3    0    0 -0.54838550113E+02  0.29831465365E+02 -0.33940847324E+02  0.27237158138E+03  0.26293937386E+03 0.  0.
         25    1    3    3    0    0  0.54838550113E+02 -0.29831465365E+02 -0.18413710093E+03  0.23119507552E+03  0.12509000000E+03 0.  0.
         25    1    4    4    0    0 -0.25204816733E+02  0.93191589166E+01 -0.57171836900E+02  0.14013656391E+03  0.12509000000E+03 0.  0.
         25    1    4    4    0    0 -0.29633733380E+02  0.20512306448E+02  0.23230989575E+02  0.13223501747E+03  0.12509000000E+03 0.  0.
<mgrwt>
<rscale>  2 0.45389579E+03</rscale>
<asrwt>0</asrwt>
<pdfrwt beam="1">  1       21 0.20991817E-01 0.45389579E+03</pdfrwt>
<pdfrwt beam="2">  1       21 0.53062103E-01 0.45389579E+03</pdfrwt>
<totfact> 0.65593835E+04</totfact>
</mgrwt>
</event>
<event>
 7    0  0.4732500E-002  0.4590295E+03  0.7546771E-02  0.1025063E+00
         21   -1    0    0  502  501  0.00000000000E+00  0.00000000000E+00  0.13506228831E+03  0.13506228831E+03  0.00000000000E+00 0.  1.
         21   -1    0    0  501  502 -0.00000000000E+00 -0.00000000000E+00 -0.39002014039E+03  0.39002014039E+03  0.00000000000E+00 0.  1.
      99926    2    1    2    0    0  0.00000000000E+00  0.00000000000E+00 -0.25495785208E+03  0.52508242869E+03  0.45902946592E+03 0.  0.
      99925    2    3    3    0    0 -0.43868088589E+02 -0.24397179312E+02 -0.39075562282E+02  0.27057839591E+03  0.26299455738E+03 0.  0.
         25    1    4    4    0    0 -0.37784711703E+02 -0.12329401953E+02 -0.57725726728E+02  0.14338572529E+03  0.12509000000E+03 0.  0.
         25    1    4    4    0    0 -0.60833768862E+01 -0.12067777359E+02  0.18650164446E+02  0.12719267062E+03  0.12509000000E+03 0.  0.
         25    1    3    3    0    0  0.43868088589E+02  0.24397179312E+02 -0.21588228980E+03  0.25450403279E+03  0.12509000000E+03 0.  0.
<mgrwt>
<rscale>  2 0.45902947E+03</rscale>
<asrwt>0</asrwt>
<pdfrwt beam="1">  1       21 0.19862102E-01 0.45902947E+03</pdfrwt>
<pdfrwt beam="2">  1       21 0.57355901E-01 0.45902947E+03</pdfrwt>
<totfact> 0.61550746E+04</totfact>
</mgrwt>
</event>
<event>
 7    0  0.4732500E-002  0.4634092E+03  0.7546771E-02  0.1023797E+00
         21   -1    0    0  502  501  0.00000000000E+00  0.00000000000E+00  0.17546687834E+03  0.17546687834E+03  0.00000000000E+00 0.  1.
         21   -1    0    0  501  502 -0.00000000000E+00 -0.00000000000E+00 -0.30596674309E+03  0.30596674309E+03  0.00000000000E+00 0.  1.
      99926    2    1    2    0    0  0.00000000000E+00 -0.35527136788E-14 -0.13049986476E+03  0.48143362143E+03  0.46340923291E+03 0.  0.
      99925    2    3    3    0    0  0.58711698957E+02 -0.11849519065E+02  0.27569616847E+02  0.27114585714E+03  0.26300668694E+03 0.  0.
         25    1    3    3    0    0 -0.58711698957E+02  0.11849519065E+02 -0.15806948160E+03  0.21028776429E+03  0.12509000000E+03 0.  0.
         25    1    4    4    0    0  0.32945951723E+02 -0.35561987267E+02  0.41685889239E+02  0.14048242643E+03  0.12509000000E+03 0.  0.
         25    1    4    4    0    0  0.25765747234E+02  0.23712468202E+02 -0.14116272392E+02  0.13066343071E+03  0.12509000000E+03 0.  0.
<mgrwt>
<rscale>  2 0.46340923E+03</rscale>
<asrwt>0</asrwt>
<pdfrwt beam="1">  1       21 0.25803953E-01 0.46340923E+03</pdfrwt>
<pdfrwt beam="2">  1       21 0.44995108E-01 0.46340923E+03</pdfrwt>
<totfact> 0.62330987E+04</totfact>
</mgrwt>
</event>
<event>
 7    0  0.4732500E-002  0.4580086E+03  0.7546771E-02  0.1025360E+00
         21   -1    0    0  502  501  0.00000000000E+00  0.00000000000E+00  0.58762151199E+03  0.58762151199E+03  0.00000000000E+00 0.  1.
         21   -1    0    0  501  502 -0.00000000000E+00 -0.00000000000E+00 -0.89246173176E+02  0.89246173176E+02  0.00000000000E+00 0.  1.
      99926    2    1    2    0    0 -0.37747582837E-14  0.14210854715E-13  0.49837533882E+03  0.67686768517E+03  0.45800860787E+03 0.  0.
      99925    2    3    3    0    0  0.76438032221E+00  0.10069956941E+03  0.39769143865E+03  0.48732680987E+03  0.26303602736E+03 0.  0.
         25    1    4    4    0    0 -0.38034687177E+02  0.36630383431E+02  0.18616733801E+03  0.23042180509E+03  0.12509000000E+03 0.  0.
         25    1    4    4    0    0  0.38799067499E+02  0.64069185976E+02  0.21152410064E+03  0.25690500478E+03  0.12509000000E+03 0.  0.
         25    1    3    3    0    0 -0.76438032221E+00 -0.10069956941E+03  0.10068390017E+03  0.18954087530E+03  0.12509000000E+03 0.  0.
<mgrwt>
<rscale>  2 0.45800861E+03</rscale>
<asrwt>0</asrwt>
<pdfrwt beam="1">  1       21 0.86414926E-01 0.45800861E+03</pdfrwt>
<pdfrwt beam="2">  1       21 0.13124438E-01 0.45800861E+03</pdfrwt>
<totfact> 0.52911659E+04</totfact>
</mgrwt>
</event>
<event>
 7    0  0.4732500E-002  0.4535941E+03  0.7546771E-02  0.1026656E+00
         21   -1    0    0  502  501  0.00000000000E+00  0.00000000000E+00  0.47277015087E+03  0.47277015087E+03  0.00000000000E+00 0.  1.
         21   -1    0    0  501  502 -0.00000000000E+00 -0.00000000000E+00 -0.10879895827E+03  0.10879895827E+03  0.00000000000E+00 0.  1.
      99926    2    1    2    0    0  0.00000000000E+00  0.71054273576E-14  0.36397119260E+03  0.58156910913E+03  0.45359409130E+03 0.  0.
      99925    2    3    3    0    0 -0.27754126329E+02  0.60240129569E+02  0.11259158909E+03  0.29305848906E+03  0.26231135571E+03 0.  0.
         25    1    3    3    0    0  0.27754126329E+02 -0.60240129569E+02  0.25137960350E+03  0.28851062008E+03  0.12509000000E+03 0.  0.
         25    1    4    4    0    0  0.19077829314E+02  0.45659134063E+02  0.40016188947E+02  0.14034786629E+03  0.12509000000E+03 0.  0.
         25    1    4    4    0    0 -0.46831955643E+02  0.14580995506E+02  0.72575400147E+02  0.15271062277E+03  0.12509000000E+03 0.  0.
<mgrwt>
<rscale>  2 0.45359409E+03</rscale>
<asrwt>0</asrwt>
<pdfrwt beam="1">  1       21 0.69525022E-01 0.45359409E+03</pdfrwt>
<pdfrwt beam="2">  1       21 0.15999847E-01 0.45359409E+03</pdfrwt>
<totfact> 0.60496898E+04</totfact>
</mgrwt>
</event>
<event>
 7    0  0.4732500E-002  0.4573455E+03  0.7546771E-02  0.1025554E+00
         21   -1    0    0  502  501  0.00000000000E+00  0.00000000000E+00  0.36534061555E+03  0.36534061555E+03  0.00000000000E+00 0. -1.
         21   -1    0    0  501  502 -0.00000000000E+00 -0.00000000000E+00 -0.14313007285E+03  0.14313007285E+03  0.00000000000E+00 0. -1.
      99926    2    1    2    0    0  0.00000000000E+00  0.00000000000E+00  0.22221054270E+03  0.50847068840E+03  0.45734551017E+03 0.  0.
      99925    2    3    3    0    0 -0.29680766496E+02  0.11150269837E+03  0.13979383929E+03  0.31938388096E+03  0.26296377369E+03 0.  0.
         25    1    4    4    0    0 -0.45798082021E+02  0.41001026000E+02  0.44543923652E+02  0.14632230754E+03  0.12509000000E+03 0.  0.
         25    1    4    4    0    0  0.16117315524E+02  0.70501672373E+02  0.95249915634E+02  0.17306157342E+03  0.12509000000E+03 0.  0.
         25    1    3    3    0    0  0.29680766496E+02 -0.11150269837E+03  0.82416703413E+02  0.18908680743E+03  0.12509000000E+03 0.  0.
<mgrwt>
<rscale>  2 0.45734551E+03</rscale>
<asrwt>0</asrwt>
<pdfrwt beam="1">  1       21 0.53726561E-01 0.45734551E+03</pdfrwt>
<pdfrwt beam="2">  1       21 0.21048540E-01 0.45734551E+03</pdfrwt>
<totfact> 0.63489393E+04</totfact>
</mgrwt>
</event>
<event>
 7    0  0.4732500E-002  0.4366071E+03  0.7546771E-02  0.1031793E+00
         21   -1    0    0  502  501  0.00000000000E+00  0.00000000000E+00  0.40954699380E+02  0.40954699380E+02  0.00000000000E+00 0.  1.
         21   -1    0    0  501  502 -0.00000000000E+00 -0.00000000000E+00 -0.11636380536E+04  0.11636380536E+04  0.00000000000E+00 0.  1.
      99926    2    1    2    0    0 -0.35527136788E-14 -0.71054273576E-14 -0.11226833542E+04  0.12045927529E+04  0.43660713082E+03 0.  0.
      99925    2    3    3    0    0 -0.24958519052E+02  0.22884768543E+01 -0.97139102550E+03  0.10066911571E+04  0.26305588125E+03 0.  0.
         25    1    3    3    0    0  0.24958519052E+02 -0.22884768543E+01 -0.15129232869E+03  0.19790159580E+03  0.12509000000E+03 0.  0.
         25    1    4    4    0    0 -0.25458653766E+02 -0.36299909864E+02 -0.45443328209E+03  0.47341624653E+03  0.12509000000E+03 0.  0.
         25    1    4    4    0    0  0.50013471439E+00  0.38588386718E+02 -0.51695774341E+03  0.53327491062E+03  0.12509000000E+03 0.  0.
<mgrwt>
<rscale>  2 0.43660713E+03</rscale>
<asrwt>0</asrwt>
<pdfrwt beam="1">  1       21 0.60227507E-02 0.43660713E+03</pdfrwt>
<pdfrwt beam="2">  1       21 0.17112322E+00 0.43660713E+03</pdfrwt>
<totfact> 0.37039036E+04</totfact>
</mgrwt>
</event>
<event>
 7    0  0.4732500E-002  0.4489864E+03  0.7546771E-02  0.1028025E+00
         21   -1    0    0  502  501  0.00000000000E+00  0.00000000000E+00  0.13814478277E+04  0.13814478277E+04  0.00000000000E+00 0.  1.
         21   -1    0    0  501  502 -0.00000000000E+00 -0.00000000000E+00 -0.36481432411E+02  0.36481432411E+02  0.00000000000E+00 0.  1.
      99926    2    1    2    0    0  0.00000000000E+00  0.00000000000E+00  0.13449663953E+04  0.14179292601E+04  0.44898639425E+03 0.  0.
      99925    2    3    3    0    0 -0.13053558871E+02  0.38078947136E+02  0.53652434947E+03  0.59887709378E+03  0.26301139571E+03 0.  0.
         25    1    4    4    0    0 -0.41961398687E+02  0.14975803487E+02  0.31420760854E+03  0.34111429615E+03  0.12509000000E+03 0.  0.
         25    1    4    4    0    0  0.28907839816E+02  0.23103143649E+02  0.22231674093E+03  0.25776279764E+03  0.12509000000E+03 0.  0.
         25    1    3    3    0    0  0.13053558871E+02 -0.38078947136E+02  0.80844204581E+03  0.81905216631E+03  0.12509000000E+03 0.  0.
<mgrwt>
<rscale>  2 0.44898639E+03</rscale>
<asrwt>0</asrwt>
<pdfrwt beam="1">  1       21 0.20315406E+00 0.44898639E+03</pdfrwt>
<pdfrwt beam="2">  1       21 0.53649174E-02 0.44898639E+03</pdfrwt>
<totfact> 0.27102675E+04</totfact>
</mgrwt>
</event>
<event>
 7    0  0.4732500E-002  0.4343943E+03  0.7546771E-02  0.1032481E+00
         21   -1    0    0  502  501  0.00000000000E+00  0.00000000000E+00  0.12838204916E+03  0.12838204916E+03  0.00000000000E+00 0. -1.
         21   -1    0    0  501  502 -0.00000000000E+00 -0.00000000000E+00 -0.36745487975E+03  0.36745487975E+03  0.00000000000E+00 0. -1.
      99926    2    1    2    0    0  0.00000000000E+00 -0.14210854715E-13 -0.23907283059E+03  0.49583692891E+03  0.43439433899E+03 0.  0.
      99925    2    3    3    0    0  0.48398963261E+02 -0.77931424255E+02 -0.16667420047E+03  0.32465037490E+03  0.26306236958E+03 0.  0.
         25    1    3    3    0    0 -0.48398963261E+02  0.77931424255E+02 -0.72398630120E+02  0.17118655401E+03  0.12509000000E+03 0.  0.
         25    1    4    4    0    0 -0.19978662403E+00 -0.17277975959E+02 -0.46485374208E+02  0.13456212871E+03  0.12509000000E+03 0.  0.
         25    1    4    4    0    0  0.48598749885E+02 -0.60653448296E+02 -0.12018882626E+03  0.19008824619E+03  0.12509000000E+03 0.  0.
<mgrwt>
<rscale>  2 0.43439434E+03</rscale>
<asrwt>0</asrwt>
<pdfrwt beam="1">  1       21 0.18879713E-01 0.43439434E+03</pdfrwt>
<pdfrwt beam="2">  1       21 0.54037481E-01 0.43439434E+03</pdfrwt>
<totfact> 0.77480869E+04</totfact>
</mgrwt>
</event>
<event>
 7    0  0.4732500E-002  0.5428200E+03  0.7546771E-02  0.1003170E+00
         21   -1    0    0  502  501  0.00000000000E+00  0.00000000000E+00  0.12715316481E+03  0.12715316481E+03  0.00000000000E+00 0. -1.
         21   -1    0    0  501  502 -0.00000000000E+00 -0.00000000000E+00 -0.57932807322E+03  0.57932807322E+03  0.00000000000E+00 0. -1.
      99926    2    1    2    0    0 -0.35527136788E-14  0.00000000000E+00 -0.45217490841E+03  0.70648123803E+03  0.54282003637E+03 0.  0.
      99925    2    3    3    0    0 -0.15947452661E+02 -0.17310535894E+03 -0.34391322552E+03  0.46650647555E+03  0.26293002587E+03 0.  0.
         25    1    4    4    0    0  0.22454029358E+02 -0.98638640089E+02 -0.14158109522E+03  0.21430464152E+03  0.12509000000E+03 0.  0.
         25    1    3    3    0    0  0.15947452661E+02  0.17310535894E+03 -0.10826168289E+03  0.23997476247E+03  0.12509000000E+03 0.  0.
         25    1    4    4    0    0 -0.38401482018E+02 -0.74466718856E+02 -0.20233213030E+03  0.25220183403E+03  0.12509000000E+03 0.  0.
<mgrwt>
<rscale>  2 0.54282004E+03</rscale>
<asrwt>0</asrwt>
<pdfrwt beam="1">  1       21 0.18698995E-01 0.54282004E+03</pdfrwt>
<pdfrwt beam="2">  1       21 0.85195306E-01 0.54282004E+03</pdfrwt>
<totfact> 0.27758898E+04</totfact>
</mgrwt>
</event>
<event>
 7    0  0.4732500E-002  0.4520166E+03  0.7546771E-02  0.1027122E+00
         21   -1    0    0  502  501  0.00000000000E+00  0.00000000000E+00  0.11001328108E+04  0.11001328108E+04  0.00000000000E+00 0.  1.
         21   -1    0    0  501  502 -0.00000000000E+00 -0.00000000000E+00 -0.46430539045E+02  0.46430539045E+02  0.00000000000E+00 0.  1.
      99926    2    1    2    0    0  0.71054273576E-14  0.00000000000E+00  0.10537022717E+04  0.11465633498E+04  0.45201663432E+03 0.  0.
      99925    2    3    3    0    0  0.11173274150E+02 -0.97574215435E+02  0.53779474661E+03  0.60669887410E+03  0.26308699089E+03 0.  0.
         25    1    4    4    0    0 -0.33583136324E+02 -0.47609752971E+02  0.28922554576E+03  0.32045817206E+03  0.12509000000E+03 0.  0.
         25    1    3    3    0    0 -0.11173274150E+02  0.97574215435E+02  0.51590752512E+03  0.53986447573E+03  0.12509000000E+03 0.  0.
         25    1    4    4    0    0  0.44756410474E+02 -0.49964462464E+02  0.24856920085E+03  0.28624070203E+03  0.12509000000E+03 0.  0.
<mgrwt>
<rscale>  2 0.45201663E+03</rscale>
<asrwt>0</asrwt>
<pdfrwt beam="1">  1       21 0.16178422E+00 0.45201663E+03</pdfrwt>
<pdfrwt beam="2">  1       21 0.68280212E-02 0.45201663E+03</pdfrwt>
<totfact> 0.34697108E+04</totfact>
</mgrwt>
</event>
<event>
 7    0  0.4732500E-002  0.4648874E+03  0.7546771E-02  0.1023373E+00
         21   -1    0    0  502  501  0.00000000000E+00  0.00000000000E+00  0.17106061642E+02  0.17106061642E+02  0.00000000000E+00 0.  1.
         21   -1    0    0  501  502 -0.00000000000E+00 -0.00000000000E+00 -0.31585331248E+04  0.31585331248E+04  0.00000000000E+00 0.  1.
      99926    2    1    2    0    0  0.00000000000E+00  0.00000000000E+00 -0.31414270632E+04  0.31756391864E+04  0.46488735122E+03 0.  0.
      99925    2    3    3    0    0  0.70608313584E+02  0.85220168579E+02 -0.16059942387E+04  0.16311491484E+04  0.26302478689E+03 0.  0.
         25    1    4    4    0    0  0.45705127010E+02  0.18310564738E+02 -0.95478551945E+03  0.96420284778E+03  0.12509000000E+03 0.  0.
         25    1    4    4    0    0  0.24903186573E+02  0.66909603841E+02 -0.65120871926E+03  0.66694630064E+03  0.12509000000E+03 0.  0.
         25    1    3    3    0    0 -0.70608313584E+02 -0.85220168579E+02 -0.15354328244E+04  0.15444900380E+04  0.12509000000E+03 0.  0.
<mgrwt>
<rscale>  2 0.46488735E+03</rscale>
<asrwt>0</asrwt>
<pdfrwt beam="1">  1       21 0.25155979E-02 0.46488735E+03</pdfrwt>
<pdfrwt beam="2">  1       21 0.46449005E+00 0.46488735E+03</pdfrwt>
<totfact> 0.22081150E+03</totfact>
</mgrwt>
</event>
<event>
 7    0  0.4732500E-002  0.4398934E+03  0.7546771E-02  0.1030780E+00
         21   -1    0    0  502  501  0.00000000000E+00  0.00000000000E+00  0.22571621096E+04  0.22571621096E+04  0.00000000000E+00 0. -1.
         21   -1    0    0  501  502 -0.00000000000E+00 -0.00000000000E+00 -0.21432464848E+02  0.21432464848E+02  0.00000000000E+00 0. -1.
      99926    2    1    2    0    0  0.00000000000E+00  0.00000000000E+00  0.22357296448E+04  0.22785945745E+04  0.43989338513E+03 0.  0.
      99925    2    3    3    0    0 -0.70943058281E+02  0.76120452390E+01  0.10760847367E+04  0.11100421873E+04  0.26295329656E+03 0.  0.
         25    1    4    4    0    0 -0.73115974994E+02 -0.86737940756E+01  0.62611828667E+03  0.64272295548E+03  0.12509000000E+03 0.  0.
         25    1    3    3    0    0  0.70943058281E+02 -0.76120452390E+01  0.11596449080E+04  0.11685523872E+04  0.12509000000E+03 0.  0.
         25    1    4    4    0    0  0.21729167132E+01  0.16285839315E+02  0.44996645008E+03  0.46731923182E+03  0.12509000000E+03 0.  0.
<mgrwt>
<rscale>  2 0.43989339E+03</rscale>
<asrwt>0</asrwt>
<pdfrwt beam="1">  1       21 0.33193544E+00 0.43989339E+03</pdfrwt>
<pdfrwt beam="2">  1       21 0.31518346E-02 0.43989339E+03</pdfrwt>
<totfact> 0.10894803E+04</totfact>
</mgrwt>
</event>
<event>
 7    0  0.4732500E-002  0.4527773E+03  0.7546771E-02  0.1026897E+00
         21   -1    0    0  502  501  0.00000000000E+00  0.00000000000E+00  0.28931290078E+03  0.28931290078E+03  0.00000000000E+00 0.  1.
         21   -1    0    0  501  502 -0.00000000000E+00 -0.00000000000E+00 -0.17715011789E+03  0.17715011789E+03  0.00000000000E+00 0.  1.
      99926    2    1    2    0    0  0.00000000000E+00 -0.14210854715E-13  0.11216278288E+03  0.46646301867E+03  0.45277727187E+03 0.  0.
      99925    2    3    3    0    0 -0.51181459022E+02 -0.94587300611E+02  0.10107013690E+03  0.30112441435E+03  0.26247750600E+03 0.  0.
         25    1    3    3    0    0  0.51181459022E+02  0.94587300611E+02  0.11092645986E+02  0.16533860432E+03  0.12509000000E+03 0.  0.
         25    1    4    4    0    0 -0.11298380530E+02 -0.85085941949E+02  0.61151440832E+02  0.16356734924E+03  0.12509000000E+03 0.  0.
         25    1    4    4    0    0 -0.39883078491E+02 -0.95013586617E+01  0.39918696065E+02  0.13755706511E+03  0.12509000000E+03 0.  0.
<mgrwt>
<rscale>  2 0.45277727E+03</rscale>
<asrwt>0</asrwt>
<pdfrwt beam="1">  1       21 0.42546015E-01 0.45277727E+03</pdfrwt>
<pdfrwt beam="2">  1       21 0.26051488E-01 0.45277727E+03</pdfrwt>
<totfact> 0.68906725E+04</totfact>
</mgrwt>
</event>
<event>
 7    0  0.4732500E-002  0.4542942E+03  0.7546771E-02  0.1026449E+00
         21   -1    0    0  502  501  0.00000000000E+00  0.00000000000E+00  0.39407184931E+02  0.39407184931E+02  0.00000000000E+00 0. -1.
         21   -1    0    0  501  502 -0.00000000000E+00 -0.00000000000E+00 -0.13092992711E+04  0.13092992711E+04  0.00000000000E+00 0. -1.
      99926    2    1    2    0    0  0.00000000000E+00  0.00000000000E+00 -0.12698920861E+04  0.13487064560E+04  0.45429417124E+03 0.  0.
      99925    2    3    3    0    0 -0.49763942792E+02  0.68910846898E+02 -0.10186387197E+04  0.10554473264E+04  0.26290504523E+03 0.  0.
         25    1    4    4    0    0 -0.20324701457E+02  0.31051589534E+02 -0.65608690857E+03  0.66893559809E+03  0.12509000000E+03 0.  0.
         25    1    4    4    0    0 -0.29439241334E+02  0.37859257364E+02 -0.36255181109E+03  0.38651172832E+03  0.12509000000E+03 0.  0.
         25    1    3    3    0    0  0.49763942792E+02 -0.68910846898E+02 -0.25125336647E+03  0.29325912958E+03  0.12509000000E+03 0.  0.
<mgrwt>
<rscale>  2 0.45429417E+03</rscale>
<asrwt>0</asrwt>
<pdfrwt beam="1">  1       21 0.57951745E-02 0.45429417E+03</pdfrwt>
<pdfrwt beam="2">  1       21 0.19254400E+00 0.45429417E+03</pdfrwt>
<totfact> 0.27884175E+04</totfact>
</mgrwt>
</event>
<event>
 7    0  0.4732500E-002  0.4486168E+03  0.7546771E-02  0.1028135E+00
         21   -1    0    0  502  501  0.00000000000E+00  0.00000000000E+00  0.36348525609E+03  0.36348525609E+03  0.00000000000E+00 0.  1.
         21   -1    0    0  501  502 -0.00000000000E+00 -0.00000000000E+00 -0.13842174511E+03  0.13842174511E+03  0.00000000000E+00 0.  1.
      99926    2    1    2    0    0  0.00000000000E+00  0.71054273576E-14  0.22506351097E+03  0.50190700120E+03  0.44861682300E+03 0.  0.
      99925    2    3    3    0    0 -0.25228766950E+02  0.59810971980E+02  0.47226099710E+02  0.27499843813E+03  0.26302089922E+03 0.  0.
         25    1    4    4    0    0  0.17152613838E+02  0.40817067196E+02  0.49279304835E+02  0.14154929573E+03  0.12509000000E+03 0.  0.
         25    1    3    3    0    0  0.25228766950E+02 -0.59810971980E+02  0.17783741126E+03  0.22690856307E+03  0.12509000000E+03 0.  0.
         25    1    4    4    0    0 -0.42381380788E+02  0.18993904784E+02 -0.20532051244E+01  0.13344914240E+03  0.12509000000E+03 0.  0.
<mgrwt>
<rscale>  2 0.44861682E+03</rscale>
<asrwt>0</asrwt>
<pdfrwt beam="1">  1       21 0.53453714E-01 0.44861682E+03</pdfrwt>
<pdfrwt beam="2">  1       21 0.20356139E-01 0.44861682E+03</pdfrwt>
<totfact> 0.68544378E+04</totfact>
</mgrwt>
</event>
<event>
 7    0  0.4732500E-002  0.4350276E+03  0.7546771E-02  0.1032283E+00
         21   -1    0    0  502  501  0.00000000000E+00  0.00000000000E+00  0.30455749878E+03  0.30455749878E+03  0.00000000000E+00 0. -1.
         21   -1    0    0  501  502 -0.00000000000E+00 -0.00000000000E+00 -0.15534755025E+03  0.15534755025E+03  0.00000000000E+00 0. -1.
      99926    2    1    2    0    0  0.17763568394E-14 -0.17763568394E-14  0.14920994854E+03  0.45990504903E+03  0.43502763749E+03 0.  0.
      99925    2    3    3    0    0  0.11464233801E+02 -0.11705905152E+02 -0.13947526511E+01  0.26344197109E+03  0.26292826004E+03 0.  0.
         25    1    4    4    0    0 -0.28455687817E+02  0.11820609863E+02  0.11936862613E+02  0.12938102556E+03  0.12509000000E+03 0.  0.
         25    1    3    3    0    0 -0.11464233801E+02  0.11705905152E+02  0.15060470119E+03  0.19646307794E+03  0.12509000000E+03 0.  0.
         25    1    4    4    0    0  0.39919921617E+02 -0.23526515015E+02 -0.13331615265E+02  0.13406094553E+03  0.12509000000E+03 0.  0.
<mgrwt>
<rscale>  2 0.43502764E+03</rscale>
<asrwt>0</asrwt>
<pdfrwt beam="1">  1       21 0.44787868E-01 0.43502764E+03</pdfrwt>
<pdfrwt beam="2">  1       21 0.22845228E-01 0.43502764E+03</pdfrwt>
<totfact> 0.80164304E+04</totfact>
</mgrwt>
</event>
<event>
 7    0  0.4732500E-002  0.4480320E+03  0.7546771E-02  0.1028311E+00
         21   -1    0    0  502  501  0.00000000000E+00  0.00000000000E+00  0.26549094120E+03  0.26549094120E+03  0.00000000000E+00 0.  1.
         21   -1    0    0  501  502 -0.00000000000E+00 -0.00000000000E+00 -0.18902030221E+03  0.18902030221E+03  0.00000000000E+00 0.  1.
      99926    2    1    2    0    0  0.00000000000E+00  0.00000000000E+00  0.76470638997E+02  0.45451124341E+03  0.44803204322E+03 0.  0.
      99925    2    3    3    0    0  0.95847174807E+02 -0.44164991247E+02  0.49949805932E+02  0.28871591761E+03  0.26405429479E+03 0.  0.
         25    1    4    4    0    0  0.11137093226E+02 -0.42773871098E+02  0.13909942141E+02  0.13339652726E+03  0.12509000000E+03 0.  0.
         25    1    4    4    0    0  0.84710081581E+02 -0.13911201486E+01  0.36039863791E+02  0.15531939035E+03  0.12509000000E+03 0.  0.
         25    1    3    3    0    0 -0.95847174807E+02  0.44164991247E+02  0.26520833064E+02  0.16579532580E+03  0.12509000000E+03 0.  0.
<mgrwt>
<rscale>  2 0.44803204E+03</rscale>
<asrwt>0</asrwt>
<pdfrwt beam="1">  1       21 0.39042786E-01 0.44803204E+03</pdfrwt>
<pdfrwt beam="2">  1       21 0.27797103E-01 0.44803204E+03</pdfrwt>
<totfact> 0.72529428E+04</totfact>
</mgrwt>
</event>
<event>
 7    0  0.4732500E-002  0.4576789E+03  0.7546771E-02  0.1025457E+00
         21   -1    0    0  502  501  0.00000000000E+00  0.00000000000E+00  0.20545124125E+03  0.20545124125E+03  0.00000000000E+00 0. -1.
         21   -1    0    0  501  502 -0.00000000000E+00 -0.00000000000E+00 -0.25489009855E+03  0.25489009855E+03  0.00000000000E+00 0. -1.
      99926    2    1    2    0    0  0.00000000000E+00  0.00000000000E+00 -0.49438857301E+02  0.46034133979E+03  0.45767887051E+03 0.  0.
      99925    2    3    3    0    0 -0.35593660744E+02  0.90048686641E+02  0.32390109214E+02  0.28224259608E+03  0.26312751513E+03 0.  0.
         25    1    4    4    0    0 -0.54581212241E+01  0.17089980172E+02 -0.14197701435E+02  0.12716501616E+03  0.12509000000E+03 0.  0.
         25    1    4    4    0    0 -0.30135539520E+02  0.72958706469E+02  0.46587810650E+02  0.15507757992E+03  0.12509000000E+03 0.  0.
         25    1    3    3    0    0  0.35593660744E+02 -0.90048686641E+02 -0.81828966515E+02  0.17809874371E+03  0.12509000000E+03 0.  0.
<mgrwt>
<rscale>  2 0.45767887E+03</rscale>
<asrwt>0</asrwt>
<pdfrwt beam="1">  1       21 0.30213418E-01 0.45767887E+03</pdfrwt>
<pdfrwt beam="2">  1       21 0.37483838E-01 0.45767887E+03</pdfrwt>
<totfact> 0.66718757E+04</totfact>
</mgrwt>
</event>
<event>
 7    0  0.4732500E-002  0.4539592E+03  0.7546771E-02  0.1026548E+00
         21   -1    0    0  502  501  0.00000000000E+00  0.00000000000E+00  0.52515629662E+03  0.52515629662E+03  0.00000000000E+00 0. -1.
         21   -1    0    0  501  502 -0.00000000000E+00 -0.00000000000E+00 -0.98103624206E+02  0.98103624206E+02  0.00000000000E+00 0. -1.
      99926    2    1    2    0    0 -0.35527136788E-14  0.00000000000E+00  0.42705267241E+03  0.62325992082E+03  0.45395918747E+03 0.  0.
      99925    2    3    3    0    0 -0.27756892928E+02  0.24860747939E+02  0.41424234148E+03  0.49211071354E+03  0.26303561548E+03 0.  0.
         25    1    3    3    0    0  0.27756892928E+02 -0.24860747939E+02  0.12810330934E+02  0.13114920729E+03  0.12509000000E+03 0.  0.
         25    1    4    4    0    0  0.20397003594E+02  0.31299942088E+02  0.18384240083E+03  0.22548006691E+03  0.12509000000E+03 0.  0.
         25    1    4    4    0    0 -0.48153896522E+02 -0.64391941488E+01  0.23039994065E+03  0.26663064663E+03  0.12509000000E+03 0.  0.
<mgrwt>
<rscale>  2 0.45395919E+03</rscale>
<asrwt>0</asrwt>
<pdfrwt beam="1">  1       21 0.77228866E-01 0.45395919E+03</pdfrwt>
<pdfrwt beam="2">  1       21 0.14427004E-01 0.45395919E+03</pdfrwt>
<totfact> 0.57741981E+04</totfact>
</mgrwt>
</event>
<event>
 7    0  0.4732500E-002  0.3966410E+03  0.7546771E-02  0.1044949E+00
         21   -1    0    0  502  501  0.00000000000E+00  0.00000000000E+00  0.10597953108E+03  0.10597953108E+03  0.00000000000E+00 0. -1.
         21   -1    0    0  501  502 -0.00000000000E+00 -0.00000000000E+00 -0.37111898654E+03  0.37111898654E+03  0.00000000000E+00 0. -1.
      99926    2    1    2    0    0  0.44408920985E-15  0.00000000000E+00 -0.26513945546E+03  0.47709851761E+03  0.39664097704E+03 0.  0.
      99925    2    3    3    0    0  0.28699530797E+01  0.33935107754E+02 -0.19924716114E+03  0.33167111057E+03  0.26295715658E+03 0.  0.
         25    1    4    4    0    0  0.15521512336E+02  0.18017741684E+02 -0.52377797767E+02  0.13768259933E+03  0.12509000000E+03 0.  0.
         25    1    3    3    0    0 -0.28699530797E+01 -0.33935107754E+02 -0.65892294320E+02  0.14542740704E+03  0.12509000000E+03 0.  0.
         25    1    4    4    0    0 -0.12651559256E+02  0.15917366070E+02 -0.14686936337E+03  0.19398851124E+03  0.12509000000E+03 0.  0.
<mgrwt>
<rscale>  2 0.39664098E+03</rscale>
<asrwt>0</asrwt>
<pdfrwt beam="1">  1       21 0.15585226E-01 0.39664098E+03</pdfrwt>
<pdfrwt beam="2">  1       21 0.54576320E-01 0.39664098E+03</pdfrwt>
<totfact> 0.10946656E+05</totfact>
</mgrwt>
</event>
<event>
 7    0  0.4732500E-002  0.4571418E+03  0.7546771E-02  0.1025613E+00
         21   -1    0    0  502  501  0.00000000000E+00  0.00000000000E+00  0.23628277402E+03  0.23628277402E+03  0.00000000000E+00 0.  1.
         21   -1    0    0  501  502 -0.00000000000E+00 -0.00000000000E+00 -0.22111069223E+03  0.22111069223E+03  0.00000000000E+00 0.  1.
      99926    2    1    2    0    0  0.00000000000E+00  0.00000000000E+00  0.15172081785E+02  0.45739346625E+03  0.45714176237E+03 0.  0.
      99925    2    3    3    0    0 -0.61237008687E+02 -0.89599027870E+02 -0.29097469594E+02  0.28597217730E+03  0.26297426951E+03 0.  0.
         25    1    4    4    0    0 -0.61616531267E+02 -0.19643959448E+02 -0.21474736701E+02  0.14244702343E+03  0.12509000000E+03 0.  0.
         25    1    3    3    0    0  0.61237008687E+02  0.89599027870E+02  0.44269551379E+02  0.17142128896E+03  0.12509000000E+03 0.  0.
         25    1    4    4    0    0  0.37952258032E+00 -0.69955068422E+02 -0.76227328929E+01  0.14352515387E+03  0.12509000000E+03 0.  0.
<mgrwt>
<rscale>  2 0.45714176E+03</rscale>
<asrwt>0</asrwt>
<pdfrwt beam="1">  1       21 0.34747467E-01 0.45714176E+03</pdfrwt>
<pdfrwt beam="2">  1       21 0.32516278E-01 0.45714176E+03</pdfrwt>
<totfact> 0.67214822E+04</totfact>
</mgrwt>
</event>
<event>
 7    0  0.4732500E-002  0.4571121E+03  0.7546771E-02  0.1025622E+00
         21   -1    0    0  502  501  0.00000000000E+00  0.00000000000E+00  0.30298965771E+03  0.30298965771E+03  0.00000000000E+00 0.  1.
         21   -1    0    0  501  502 -0.00000000000E+00 -0.00000000000E+00 -0.17240805221E+03  0.17240805221E+03  0.00000000000E+00 0.  1.
      99926    2    1    2    0    0  0.00000000000E+00  0.00000000000E+00  0.13058160551E+03  0.47539770992E+03  0.45711205071E+03 0.  0.
      99925    2    3    3    0    0 -0.34038478109E+02  0.10993158138E+03  0.78989318655E+02  0.29776651126E+03  0.26302473684E+03 0.  0.
         25    1    3    3    0    0  0.34038478109E+02 -0.10993158138E+03  0.51592286854E+02  0.17763119866E+03  0.12509000000E+03 0.  0.
         25    1    4    4    0    0 -0.18776208575E+00  0.88057663330E+02  0.62745037468E+02  0.16534399037E+03  0.12509000000E+03 0.  0.
         25    1    4    4    0    0 -0.33850716023E+02  0.21873918045E+02  0.16244281187E+02  0.13242252088E+03  0.12509000000E+03 0.  0.
<mgrwt>
<rscale>  2 0.45711205E+03</rscale>
<asrwt>0</asrwt>
<pdfrwt beam="1">  1       21 0.44557303E-01 0.45711205E+03</pdfrwt>
<pdfrwt beam="2">  1       21 0.25354125E-01 0.45711205E+03</pdfrwt>
<totfact> 0.65924831E+04</totfact>
</mgrwt>
</event>
<event>
 7    0  0.4732500E-002  0.4508998E+03  0.7546771E-02  0.1027454E+00
         21   -1    0    0  502  501  0.00000000000E+00  0.00000000000E+00  0.21782641546E+03  0.21782641546E+03  0.00000000000E+00 0.  1.
         21   -1    0    0  501  502 -0.00000000000E+00 -0.00000000000E+00 -0.23334022259E+03  0.23334022259E+03  0.00000000000E+00 0.  1.
      99926    2    1    2    0    0  0.00000000000E+00  0.71054273576E-14 -0.15513807126E+02  0.45116663806E+03  0.45089983043E+03 0.  0.
      99925    2    3    3    0    0 -0.90324082571E+02  0.60477812924E+02 -0.18674389195E+02  0.28541530887E+03  0.26324353739E+03 0.  0.
         25    1    3    3    0    0  0.90324082571E+02 -0.60477812924E+02  0.31605820698E+01  0.16575132919E+03  0.12509000000E+03 0.  0.
         25    1    4    4    0    0 -0.64798537517E+01  0.34199190889E+02 -0.25810899142E+02  0.13238309475E+03  0.12509000000E+03 0.  0.
         25    1    4    4    0    0 -0.83844228820E+02  0.26278622034E+02  0.71365099463E+01  0.15303221411E+03  0.12509000000E+03 0.  0.
<mgrwt>
<rscale>  2 0.45089983E+03</rscale>
<asrwt>0</asrwt>
<pdfrwt beam="1">  1       21 0.32033297E-01 0.45089983E+03</pdfrwt>
<pdfrwt beam="2">  1       21 0.34314738E-01 0.45089983E+03</pdfrwt>
<totfact> 0.71126110E+04</totfact>
</mgrwt>
</event>
<event>
 7    0  0.4732500E-002  0.4601473E+03  0.7546771E-02  0.1024739E+00
         21   -1    0    0  502  501  0.00000000000E+00  0.00000000000E+00  0.13395328051E+03  0.13395328051E+03  0.00000000000E+00 0. -1.
         21   -1    0    0  501  502 -0.00000000000E+00 -0.00000000000E+00 -0.39516677582E+03  0.39516677582E+03  0.00000000000E+00 0. -1.
      99926    2    1    2    0    0  0.71054273576E-14  0.00000000000E+00 -0.26121349531E+03  0.52912005632E+03  0.46014730671E+03 0.  0.
      99925    2    3    3    0    0 -0.60549416093E+02  0.36880191084E+02 -0.27199424998E+03  0.38493228620E+03  0.26299356010E+03 0.  0.
         25    1    4    4    0    0 -0.26321992611E+02  0.49661488923E+02 -0.17577626638E+03  0.22294374784E+03  0.12509000000E+03 0.  0.
         25    1    3    3    0    0  0.60549416093E+02 -0.36880191084E+02  0.10780754660E+02  0.14418777013E+03  0.12509000000E+03 0.  0.
         25    1    4    4    0    0 -0.34227423481E+02 -0.12781297839E+02 -0.96217983594E+02  0.16198853836E+03  0.12509000000E+03 0.  0.
<mgrwt>
<rscale>  2 0.46014731E+03</rscale>
<asrwt>0</asrwt>
<pdfrwt beam="1">  1       21 0.19699012E-01 0.46014731E+03</pdfrwt>
<pdfrwt beam="2">  1       21 0.58112762E-01 0.46014731E+03</pdfrwt>
<totfact> 0.60749312E+04</totfact>
</mgrwt>
</event>
<event>
 7    0  0.4732500E-002  0.4557995E+03  0.7546771E-02  0.1026007E+00
         21   -1    0    0  502  501  0.00000000000E+00  0.00000000000E+00  0.14613174763E+03  0.14613174763E+03  0.00000000000E+00 0. -1.
         21   -1    0    0  501  502 -0.00000000000E+00 -0.00000000000E+00 -0.35542103303E+03  0.35542103303E+03  0.00000000000E+00 0. -1.
      99926    2    1    2    0    0  0.00000000000E+00 -0.14210854715E-13 -0.20928928540E+03  0.50155278065E+03  0.45579950285E+03 0.  0.
      99925    2    3    3    0    0 -0.63999941444E+02  0.93009120954E+02 -0.14432035609E+03  0.32095610582E+03  0.26351046961E+03 0.  0.
         25    1    3    3    0    0  0.63999941444E+02 -0.93009120954E+02 -0.64968929304E+02  0.18059667483E+03  0.12509000000E+03 0.  0.
         25    1    4    4    0    0 -0.43541980946E+02  0.79520485257E+02 -0.10772608919E+03  0.18833966675E+03  0.12509000000E+03 0.  0.
         25    1    4    4    0    0 -0.20457960497E+02  0.13488635698E+02 -0.36594266902E+02  0.13261643907E+03  0.12509000000E+03 0.  0.
<mgrwt>
<rscale>  2 0.45579950E+03</rscale>
<asrwt>0</asrwt>
<pdfrwt beam="1">  1       21 0.21489963E-01 0.45579950E+03</pdfrwt>
<pdfrwt beam="2">  1       21 0.52267799E-01 0.45579950E+03</pdfrwt>
<totfact> 0.64749808E+04</totfact>
</mgrwt>
</event>
<event>
 7    0  0.4732500E-002  0.4604328E+03  0.7546771E-02  0.1024656E+00
         21   -1    0    0  502  501  0.00000000000E+00  0.00000000000E+00  0.30692534011E+03  0.30692534011E+03  0.00000000000E+00 0. -1.
         21   -1    0    0  501  502 -0.00000000000E+00 -0.00000000000E+00 -0.17267907315E+03  0.17267907315E+03  0.00000000000E+00 0. -1.
      99926    2    1    2    0    0 -0.71054273576E-14  0.00000000000E+00  0.13424626696E+03  0.47960441326E+03  0.46043276711E+03 0.  0.
      99925    2    3    3    0    0  0.47029590743E+02  0.83412494012E+02  0.15598278429E+03  0.32057796625E+03  0.26319228121E+03 0.  0.
         25    1    3    3    0    0 -0.47029590743E+02 -0.83412494012E+02 -0.21736517332E+02  0.15902644701E+03  0.12509000000E+03 0.  0.
         25    1    4    4    0    0  0.49371566384E+02  0.24017534474E+02  0.10753013329E+03  0.17385232583E+03  0.12509000000E+03 0.  0.
         25    1    4    4    0    0 -0.23419756405E+01  0.59394959538E+02  0.48452650997E+02  0.14672564042E+03  0.12509000000E+03 0.  0.
<mgrwt>
<rscale>  2 0.46043277E+03</rscale>
<asrwt>0</asrwt>
<pdfrwt beam="1">  1       21 0.45136080E-01 0.46043277E+03</pdfrwt>
<pdfrwt beam="2">  1       21 0.25393981E-01 0.46043277E+03</pdfrwt>
<totfact> 0.63927794E+04</totfact>
</mgrwt>
</event>
<event>
 7    0  0.4732500E-002  0.4521743E+03  0.7546771E-02  0.1027076E+00
         21   -1    0    0  502  501  0.00000000000E+00  0.00000000000E+00  0.61010979293E+03  0.61010979293E+03  0.00000000000E+00 0. -1.
         21   -1    0    0  501  502 -0.00000000000E+00 -0.00000000000E+00 -0.83780674906E+02  0.83780674906E+02  0.00000000000E+00 0. -1.
      99926    2    1    2    0    0  0.00000000000E+00  0.00000000000E+00  0.52632911802E+03  0.69389046783E+03  0.45217434787E+03 0.  0.
      99925    2    3    3    0    0  0.88487789159E+02  0.57382138212E+02  0.28277981153E+03  0.40048533596E+03  0.26325137017E+03 0.  0.
         25    1    4    4    0    0  0.81954764563E+02  0.39219792156E+02  0.12928523254E+03  0.20153648549E+03  0.12509000000E+03 0.  0.
         25    1    4    4    0    0  0.65330245959E+01  0.18162346056E+02  0.15349457899E+03  0.19894885047E+03  0.12509000000E+03 0.  0.
         25    1    3    3    0    0 -0.88487789159E+02 -0.57382138212E+02  0.24354930649E+03  0.29340513187E+03  0.12509000000E+03 0.  0.
<mgrwt>
<rscale>  2 0.45217435E+03</rscale>
<asrwt>0</asrwt>
<pdfrwt beam="1">  1       21 0.89722026E-01 0.45217435E+03</pdfrwt>
<pdfrwt beam="2">  1       21 0.12320688E-01 0.45217435E+03</pdfrwt>
<totfact> 0.54436617E+04</totfact>
</mgrwt>
</event>
<event>
 7    0  0.4732500E-002  0.4590666E+03  0.7546771E-02  0.1025052E+00
         21   -1    0    0  502  501  0.00000000000E+00  0.00000000000E+00  0.10141715706E+03  0.10141715706E+03  0.00000000000E+00 0.  1.
         21   -1    0    0  501  502 -0.00000000000E+00 -0.00000000000E+00 -0.51949325609E+03  0.51949325609E+03  0.00000000000E+00 0.  1.
      99926    2    1    2    0    0  0.00000000000E+00  0.17763568394E-14 -0.41807609903E+03  0.62091041316E+03  0.45906657098E+03 0.  0.
      99925    2    3    3    0    0 -0.76669048984E+02 -0.15397159161E+02 -0.14423818718E+03  0.30986391237E+03  0.26286075015E+03 0.  0.
         25    1    3    3    0    0  0.76669048984E+02  0.15397159161E+02 -0.27383791185E+03  0.31104650078E+03  0.12509000000E+03 0.  0.
         25    1    4    4    0    0 -0.41757819870E+02 -0.47795872690E+02 -0.78494576577E+02  0.16073912908E+03  0.12509000000E+03 0.  0.
         25    1    4    4    0    0 -0.34911229114E+02  0.32398713528E+02 -0.65743610601E+02  0.14912478329E+03  0.12509000000E+03 0.  0.
<mgrwt>
<rscale>  2 0.45906657E+03</rscale>
<asrwt>0</asrwt>
<pdfrwt beam="1">  1       21 0.14914288E-01 0.45906657E+03</pdfrwt>
<pdfrwt beam="2">  1       21 0.76396066E-01 0.45906657E+03</pdfrwt>
<totfact> 0.55602182E+04</totfact>
</mgrwt>
</event>
<event>
 7    0  0.4732500E-002  0.4527345E+03  0.7546771E-02  0.1026910E+00
         21   -1    0    0  502  501  0.00000000000E+00  0.00000000000E+00  0.39982375917E+03  0.39982375917E+03  0.00000000000E+00 0. -1.
         21   -1    0    0  501  502 -0.00000000000E+00 -0.00000000000E+00 -0.12816180767E+03  0.12816180767E+03  0.00000000000E+00 0. -1.
      99926    2    1    2    0    0 -0.14210854715E-13  0.00000000000E+00  0.27166195150E+03  0.52798556684E+03  0.45273451701E+03 0.  0.
      99925    2    3    3    0    0 -0.74340491468E+02  0.78617280849E+02  0.20046055502E+03  0.34791798930E+03  0.26297396760E+03 0.  0.
         25    1    4    4    0    0  0.17196095419E+01  0.22316994457E+02  0.99318090937E+02  0.16128421059E+03  0.12509000000E+03 0.  0.
         25    1    3    3    0    0  0.74340491468E+02 -0.78617280849E+02  0.71201396474E+02  0.18006757754E+03  0.12509000000E+03 0.  0.
         25    1    4    4    0    0 -0.76060101010E+02  0.56300286392E+02  0.10114246409E+03  0.18663377871E+03  0.12509000000E+03 0.  0.
<mgrwt>
<rscale>  2 0.45273452E+03</rscale>
<asrwt>0</asrwt>
<pdfrwt beam="1">  1       21 0.58797611E-01 0.45273452E+03</pdfrwt>
<pdfrwt beam="2">  1       21 0.18847325E-01 0.45273452E+03</pdfrwt>
<totfact> 0.64493429E+04</totfact>
</mgrwt>
</event>
<event>
 7    0  0.4732500E-002  0.4605774E+03  0.7546771E-02  0.1024614E+00
         21   -1    0    0  502  501  0.00000000000E+00  0.00000000000E+00  0.25988332706E+03  0.25988332706E+03  0.00000000000E+00 0. -1.
         21   -1    0    0  501  502 -0.00000000000E+00 -0.00000000000E+00 -0.20406423770E+03  0.20406423770E+03  0.00000000000E+00 0. -1.
      99926    2    1    2    0    0 -0.14210854715E-13  0.00000000000E+00  0.55819089359E+02  0.46394756477E+03  0.46057743336E+03 0.  0.
      99925    2    3    3    0    0  0.67882738984E+02 -0.68073589905E+02 -0.34338292873E+02  0.28223916770E+03  0.26313067007E+03 0.  0.
         25    1    3    3    0    0 -0.67882738984E+02  0.68073589905E+02  0.90157382232E+02  0.18170839707E+03  0.12509000000E+03 0.  0.
         25    1    4    4    0    0  0.34026921028E+02 -0.71657401459E+02 -0.36609644421E+02  0.15257912276E+03  0.12509000000E+03 0.  0.
         25    1    4    4    0    0  0.33855817956E+02  0.35838115539E+01  0.22713515478E+01  0.12966004494E+03  0.12509000000E+03 0.  0.
<mgrwt>
<rscale>  2 0.46057743E+03</rscale>
<asrwt>0</asrwt>
<pdfrwt beam="1">  1       21 0.38218136E-01 0.46057743E+03</pdfrwt>
<pdfrwt beam="2">  1       21 0.30009447E-01 0.46057743E+03</pdfrwt>
<totfact> 0.64956119E+04</totfact>
</mgrwt>
</event>
<event>
 7    0  0.4732500E-002  0.4557685E+03  0.7546771E-02  0.1026016E+00
         21   -1    0    0  502  501  0.00000000000E+00  0.00000000000E+00  0.14451378790E+03  0.14451378790E+03  0.00000000000E+00 0.  1.
         21   -1    0    0  501  502 -0.00000000000E+00 -0.00000000000E+00 -0.35935146853E+03  0.35935146853E+03  0.00000000000E+00 0.  1.
      99926    2    1    2    0    0 -0.71054273576E-14  0.00000000000E+00 -0.21483768062E+03  0.50386525643E+03  0.45576854611E+03 0.  0.
      99925    2    3    3    0    0  0.37165133951E+02  0.11991492344E+02 -0.25341248481E+03  0.36726157168E+03  0.26294130810E+03 0.  0.
         25    1    3    3    0    0 -0.37165133951E+02 -0.11991492344E+02  0.38574804186E+02  0.13660368475E+03  0.12509000000E+03 0.  0.
         25    1    4    4    0    0  0.24489335600E+01 -0.20129716888E+01 -0.74026551468E+02  0.14538737137E+03  0.12509000000E+03 0.  0.
         25    1    4    4    0    0  0.34716200391E+02  0.14004464033E+02 -0.17938593334E+03  0.22187420031E+03  0.12509000000E+03 0.  0.
<mgrwt>
<rscale>  2 0.45576855E+03</rscale>
<asrwt>0</asrwt>
<pdfrwt beam="1">  1       21 0.21252028E-01 0.45576855E+03</pdfrwt>
<pdfrwt beam="2">  1       21 0.52845804E-01 0.45576855E+03</pdfrwt>
<totfact> 0.64604946E+04</totfact>
</mgrwt>
</event>
<event>
 7    0  0.4732500E-002  0.4400070E+03  0.7546771E-02  0.1030745E+00
         21   -1    0    0  502  501  0.00000000000E+00  0.00000000000E+00  0.24717702663E+03  0.24717702663E+03  0.00000000000E+00 0. -1.
         21   -1    0    0  501  502 -0.00000000000E+00 -0.00000000000E+00 -0.19581730887E+03  0.19581730887E+03  0.00000000000E+00 0. -1.
      99926    2    1    2    0    0  0.00000000000E+00  0.00000000000E+00  0.51359717758E+02  0.44299433550E+03  0.44000700071E+03 0.  0.
      99925    2    3    3    0    0 -0.87663137598E+02  0.35570653802E+02  0.51302623323E+01  0.27948663613E+03  0.26293794530E+03 0.  0.
         25    1    4    4    0    0 -0.23847083115E+01  0.15528823439E+02 -0.71810269186E+01  0.12627710180E+03  0.12509000000E+03 0.  0.
         25    1    3    3    0    0  0.87663137598E+02 -0.35570653802E+02  0.46229455425E+02  0.16350769937E+03  0.12509000000E+03 0.  0.
         25    1    4    4    0    0 -0.85278429287E+02  0.20041830362E+02  0.12311289251E+02  0.15320953433E+03  0.12509000000E+03 0.  0.
<mgrwt>
<rscale>  2 0.44000700E+03</rscale>
<asrwt>0</asrwt>
<pdfrwt beam="1">  1       21 0.36349563E-01 0.44000700E+03</pdfrwt>
<pdfrwt beam="2">  1       21 0.28796663E-01 0.44000700E+03</pdfrwt>
<totfact> 0.78401276E+04</totfact>
</mgrwt>
</event>
<event>
 7    0  0.4732500E-002  0.4546869E+03  0.7546771E-02  0.1026334E+00
         21   -1    0    0  502  501  0.00000000000E+00  0.00000000000E+00  0.28891768219E+02  0.28891768219E+02  0.00000000000E+00 0.  1.
         21   -1    0    0  501  502 -0.00000000000E+00 -0.00000000000E+00 -0.17889196037E+04  0.17889196037E+04  0.00000000000E+00 0.  1.
      99926    2    1    2    0    0  0.00000000000E+00  0.35527136788E-14 -0.17600278355E+04  0.18178113719E+04  0.45468692769E+03 0.  0.
      99925    2    3    3    0    0 -0.64258471259E+02 -0.28240461660E+02 -0.14608883964E+04  0.14860605816E+04  0.26316244122E+03 0.  0.
         25    1    4    4    0    0 -0.42441002321E+02 -0.37490227377E+02 -0.58077078810E+03  0.59678218157E+03  0.12509000000E+03 0.  0.
         25    1    4    4    0    0 -0.21817468938E+02  0.92497657177E+01 -0.88011760834E+03  0.88927840001E+03  0.12509000000E+03 0.  0.
         25    1    3    3    0    0  0.64258471259E+02  0.28240461660E+02 -0.29913943906E+03  0.33175079036E+03  0.12509000000E+03 0.  0.
<mgrwt>
<rscale>  2 0.45468693E+03</rscale>
<asrwt>0</asrwt>
<pdfrwt beam="1">  1       21 0.42487885E-02 0.45468693E+03</pdfrwt>
<pdfrwt beam="2">  1       21 0.26307647E+00 0.45468693E+03</pdfrwt>
<totfact> 0.16960918E+04</totfact>
</mgrwt>
</event>
<event>
 7    0  0.4732500E-002  0.4579278E+03  0.7546771E-02  0.1025384E+00
         21   -1    0    0  502  501  0.00000000000E+00  0.00000000000E+00  0.97434337343E+03  0.97434337343E+03  0.00000000000E+00 0.  1.
         21   -1    0    0  501  502 -0.00000000000E+00 -0.00000000000E+00 -0.53804931628E+02  0.53804931628E+02  0.00000000000E+00 0.  1.
      99926    2    1    2    0    0  0.00000000000E+00 -0.14210854715E-13  0.92053844180E+03  0.10281483051E+04  0.45792784842E+03 0.  0.
      99925    2    3    3    0    0  0.88547826577E+02  0.65329031802E+02  0.49595589069E+03  0.57204913734E+03  0.26298169143E+03 0.  0.
         25    1    4    4    0    0  0.55079997664E+02 -0.28577288982E+01  0.20568279218E+03  0.24697143936E+03  0.12509000000E+03 0.  0.
         25    1    4    4    0    0  0.33467828913E+02  0.68186760700E+02  0.29027309851E+03  0.32507769798E+03  0.12509000000E+03 0.  0.
         25    1    3    3    0    0 -0.88547826577E+02 -0.65329031802E+02  0.42458255111E+03  0.45609916772E+03  0.12509000000E+03 0.  0.
<mgrwt>
<rscale>  2 0.45792785E+03</rscale>
<asrwt>0</asrwt>
<pdfrwt beam="1">  1       21 0.14328578E+00 0.45792785E+03</pdfrwt>
<pdfrwt beam="2">  1       21 0.79124905E-02 0.45792785E+03</pdfrwt>
<totfact> 0.37231217E+04</totfact>
</mgrwt>
</event>
<event>
 7    0  0.4732500E-002  0.4556081E+03  0.7546771E-02  0.1026063E+00
         21   -1    0    0  502  501  0.00000000000E+00  0.00000000000E+00  0.10794236856E+04  0.10794236856E+04  0.00000000000E+00 0. -1.
         21   -1    0    0  501  502 -0.00000000000E+00 -0.00000000000E+00 -0.48076283678E+02  0.48076283678E+02  0.00000000000E+00 0. -1.
      99926    2    1    2    0    0  0.14210854715E-13 -0.44408920985E-15  0.10313474020E+04  0.11274999693E+04  0.45560807420E+03 0.  0.
      99925    2    3    3    0    0 -0.98402314500E+02  0.34095635432E+01  0.78964859689E+03  0.83808597329E+03  0.26296112153E+03 0.  0.
         25    1    4    4    0    0 -0.24258895775E+02  0.11317845249E+02  0.46493213121E+03  0.48220947977E+03  0.12509000000E+03 0.  0.
         25    1    4    4    0    0 -0.74143418724E+02 -0.79082817063E+01  0.32471646567E+03  0.35587649352E+03  0.12509000000E+03 0.  0.
         25    1    3    3    0    0  0.98402314500E+02 -0.34095635432E+01  0.24169880507E+03  0.28941399603E+03  0.12509000000E+03 0.  0.
<mgrwt>
<rscale>  2 0.45560807E+03</rscale>
<asrwt>0</asrwt>
<pdfrwt beam="1">  1       21 0.15873876E+00 0.45560807E+03</pdfrwt>
<pdfrwt beam="2">  1       21 0.70700424E-02 0.45560807E+03</pdfrwt>
<totfact> 0.34379284E+04</totfact>
</mgrwt>
</event>
<event>
 7    0  0.4732500E-002  0.4598614E+03  0.7546771E-02  0.1024821E+00
         21   -1    0    0  502  501  0.00000000000E+00  0.00000000000E+00  0.49346406700E+02  0.49346406700E+02  0.00000000000E+00 0.  1.
         21   -1    0    0  501  502 -0.00000000000E+00 -0.00000000000E+00 -0.10713672500E+04  0.10713672500E+04  0.00000000000E+00 0.  1.
      99926    2    1    2    0    0  0.00000000000E+00  0.00000000000E+00 -0.10220208433E+04  0.11207136567E+04  0.45986138799E+03 0.  0.
      99925    2    3    3    0    0  0.31323204094E+02  0.57063802088E+02 -0.40138139710E+03  0.48425607688E+03  0.26298194128E+03 0.  0.
         25    1    4    4    0    0  0.54434919630E+02  0.16700432040E+02 -0.20672426588E+03  0.24824281481E+03  0.12509000000E+03 0.  0.
         25    1    3    3    0    0 -0.31323204094E+02 -0.57063802088E+02 -0.62063944615E+03  0.63645757977E+03  0.12509000000E+03 0.  0.
         25    1    4    4    0    0 -0.23111715536E+02  0.40363370048E+02 -0.19465713122E+03  0.23601326207E+03  0.12509000000E+03 0.  0.
<mgrwt>
<rscale>  2 0.45986139E+03</rscale>
<asrwt>0</asrwt>
<pdfrwt beam="1">  1       21 0.72568237E-02 0.45986139E+03</pdfrwt>
<pdfrwt beam="2">  1       21 0.15755403E+00 0.45986139E+03</pdfrwt>
<totfact> 0.33488022E+04</totfact>
</mgrwt>
</event>
<event>
 6    0  0.4732500E-002  0.4498946E+03  0.7546771E-02  0.1027753E+00
         21   -1    0    0  502  501  0.00000000000E+00  0.00000000000E+00  0.67160002179E+03  0.67160002179E+03  0.00000000000E+00 0. -1.
         21   -1    0    0  501  502 -0.00000000000E+00 -0.00000000000E+00 -0.75344364818E+02  0.75344364818E+02  0.00000000000E+00 0. -1.
      99926    2    1    2    0    0  0.00000000000E+00 -0.71054273576E-14  0.59625565698E+03  0.74694438661E+03  0.44989455233E+03 0.  0.
         25    1    3    3    0    0 -0.59050484160E+01 -0.11276208546E+02  0.72085779467E+02  0.14493408908E+03  0.12509000000E+03 0.  0.
         25    1    3    3    0    0  0.22774611338E+02  0.62852143211E+02  0.36967662429E+03  0.39595124634E+03  0.12509000000E+03 0.  0.
         25    1    3    3    0    0 -0.16869562922E+02 -0.51575934665E+02  0.15449325322E+03  0.20605905120E+03  0.12509000000E+03 0.  0.
<mgrwt>
<rscale>  2 0.44989455E+03</rscale>
<asrwt>0</asrwt>
<pdfrwt beam="1">  1       21 0.98764706E-01 0.44989455E+03</pdfrwt>
<pdfrwt beam="2">  1       21 0.11080054E-01 0.44989455E+03</pdfrwt>
<totfact> 0.52502544E+04</totfact>
</mgrwt>
</event>
<event>
 7    0  0.4732500E-002  0.4650031E+03  0.7546771E-02  0.1023340E+00
         21   -1    0    0  502  501  0.00000000000E+00  0.00000000000E+00  0.76361757027E+02  0.76361757027E+02  0.00000000000E+00 0.  1.
         21   -1    0    0  501  502 -0.00000000000E+00 -0.00000000000E+00 -0.70790619526E+03  0.70790619526E+03  0.00000000000E+00 0.  1.
      99926    2    1    2    0    0  0.00000000000E+00 -0.71054273576E-14 -0.63154443823E+03  0.78426795229E+03  0.46500305754E+03 0.  0.
      99925    2    3    3    0    0  0.11800192131E+02 -0.42400015312E+02 -0.58641911734E+03  0.64419365586E+03  0.26298494108E+03 0.  0.
         25    1    4    4    0    0  0.21772808003E+02 -0.16790259620E+02 -0.20374476889E+03  0.24065620070E+03  0.12509000000E+03 0.  0.
         25    1    3    3    0    0 -0.11800192131E+02  0.42400015312E+02 -0.45125320888E+02  0.14007429642E+03  0.12509000000E+03 0.  0.
         25    1    4    4    0    0 -0.99726158717E+01 -0.25609755692E+02 -0.38267434846E+03  0.40353745517E+03  0.12509000000E+03 0.  0.
<mgrwt>
<rscale>  2 0.46500306E+03</rscale>
<asrwt>0</asrwt>
<pdfrwt beam="1">  1       21 0.11229670E-01 0.46500306E+03</pdfrwt>
<pdfrwt beam="2">  1       21 0.10410386E+00 0.46500306E+03</pdfrwt>
<totfact> 0.44904501E+04</totfact>
</mgrwt>
</event>
<event>
 7    0  0.4732500E-002  0.4528902E+03  0.7546771E-02  0.1026864E+00
         21   -1    0    0  502  501  0.00000000000E+00  0.00000000000E+00  0.16424084783E+03  0.16424084783E+03  0.00000000000E+00 0.  1.
         21   -1    0    0  501  502 -0.00000000000E+00 -0.00000000000E+00 -0.31220852269E+03  0.31220852269E+03  0.00000000000E+00 0.  1.
      99926    2    1    2    0    0  0.00000000000E+00  0.00000000000E+00 -0.14796767486E+03  0.47644937052E+03  0.45289024042E+03 0.  0.
      99925    2    3    3    0    0  0.34482335862E+02 -0.10283600801E+03 -0.11935861296E+03  0.30843073300E+03  0.26290447418E+03 0.  0.
         25    1    4    4    0    0  0.30762173404E+02 -0.47820055090E+02 -0.18717056416E+02  0.13867553960E+03  0.12509000000E+03 0.  0.
         25    1    3    3    0    0 -0.34482335862E+02  0.10283600801E+03 -0.28609061901E+02  0.16801863752E+03  0.12509000000E+03 0.  0.
         25    1    4    4    0    0  0.37201624577E+01 -0.55015952922E+02 -0.10064155655E+03  0.16975519341E+03  0.12509000000E+03 0.  0.
<mgrwt>
<rscale>  2 0.45289024E+03</rscale>
<asrwt>0</asrwt>
<pdfrwt beam="1">  1       21 0.24153066E-01 0.45289024E+03</pdfrwt>
<pdfrwt beam="2">  1       21 0.45913017E-01 0.45289024E+03</pdfrwt>
<totfact> 0.68092542E+04</totfact>
</mgrwt>
</event>
<event>
 7    0  0.4732500E-002  0.4572912E+03  0.7546771E-02  0.1025570E+00
         21   -1    0    0  502  501  0.00000000000E+00  0.00000000000E+00  0.52383695719E+03  0.52383695719E+03  0.00000000000E+00 0.  1.
         21   -1    0    0  501  502 -0.00000000000E+00 -0.00000000000E+00 -0.99799791680E+02  0.99799791680E+02  0.00000000000E+00 0.  1.
      99926    2    1    2    0    0  0.35527136788E-14  0.00000000000E+00  0.42403716551E+03  0.62363674887E+03  0.45729123850E+03 0.  0.
      99925    2    3    3    0    0 -0.30994929901E+02  0.10685728211E+03  0.22486525217E+03  0.36345196149E+03  0.26297106734E+03 0.  0.
         25    1    4    4    0    0  0.24616861802E+02  0.50570623835E+02  0.98892179653E+02  0.16908740100E+03  0.12509000000E+03 0.  0.
         25    1    4    4    0    0 -0.55611791703E+02  0.56286658275E+02  0.12597307252E+03  0.19436456049E+03  0.12509000000E+03 0.  0.
         25    1    3    3    0    0  0.30994929901E+02 -0.10685728211E+03  0.19917191334E+03  0.26018478738E+03  0.12509000000E+03 0.  0.
<mgrwt>
<rscale>  2 0.45729124E+03</rscale>
<asrwt>0</asrwt>
<pdfrwt beam="1">  1       21 0.77034845E-01 0.45729124E+03</pdfrwt>
<pdfrwt beam="2">  1       21 0.14676440E-01 0.45729124E+03</pdfrwt>
<totfact> 0.56222404E+04</totfact>
</mgrwt>
</event>
<event>
 7    0  0.4732500E-002  0.4438626E+03  0.7546771E-02  0.1029568E+00
         21   -1    0    0  502  501  0.00000000000E+00  0.00000000000E+00  0.29602647923E+04  0.29602647923E+04  0.00000000000E+00 0. -1.
         21   -1    0    0  501  502 -0.00000000000E+00 -0.00000000000E+00 -0.16638210327E+02  0.16638210327E+02  0.00000000000E+00 0. -1.
      99926    2    1    2    0    0  0.00000000000E+00  0.14210854715E-13  0.29436265820E+04  0.29769030026E+04  0.44386262847E+03 0.  0.
      99925    2    3    3    0    0  0.52365769124E+02  0.81706559598E+02  0.16511527012E+04  0.16747684565E+04  0.26291824685E+03 0.  0.
         25    1    4    4    0    0 -0.92876644693E+01  0.17450302271E+02  0.76431030073E+03  0.77473125512E+03  0.12509000000E+03 0.  0.
         25    1    4    4    0    0  0.61653433593E+02  0.64256257327E+02  0.88684240050E+03  0.90003720140E+03  0.12509000000E+03 0.  0.
         25    1    3    3    0    0 -0.52365769124E+02 -0.81706559598E+02  0.12924738807E+04  0.13021345461E+04  0.12509000000E+03 0.  0.
<mgrwt>
<rscale>  2 0.44386263E+03</rscale>
<asrwt>0</asrwt>
<pdfrwt beam="1">  1       21 0.43533269E+00 0.44386263E+03</pdfrwt>
<pdfrwt beam="2">  1       21 0.24467977E-02 0.44386263E+03</pdfrwt>
<totfact> 0.36871643E+03</totfact>
</mgrwt>
</event>
<event>
 7    0  0.4732500E-002  0.4500695E+03  0.7546771E-02  0.1027701E+00
         21   -1    0    0  502  501  0.00000000000E+00  0.00000000000E+00  0.58708473981E+02  0.58708473981E+02  0.00000000000E+00 0.  1.
         21   -1    0    0  501  502 -0.00000000000E+00 -0.00000000000E+00 -0.86257804106E+03  0.86257804106E+03  0.00000000000E+00 0.  1.
      99926    2    1    2    0    0  0.00000000000E+00  0.17763568394E-14 -0.80386956708E+03  0.92128651504E+03  0.45006950788E+03 0.  0.
      99925    2    3    3    0    0  0.10233818055E+03 -0.59481646060E+01 -0.43559916512E+03  0.51906881166E+03  0.26301580697E+03 0.  0.
         25    1    3    3    0    0 -0.10233818055E+03  0.59481646060E+01 -0.36827040195E+03  0.40221770338E+03  0.12509000000E+03 0.  0.
         25    1    4    4    0    0  0.23395113648E+02  0.23357949499E+02 -0.16982789887E+03  0.21349929387E+03  0.12509000000E+03 0.  0.
         25    1    4    4    0    0  0.78943066898E+02 -0.29306114105E+02 -0.26577126626E+03  0.30556951779E+03  0.12509000000E+03 0.  0.
<mgrwt>
<rscale>  2 0.45006951E+03</rscale>
<asrwt>0</asrwt>
<pdfrwt beam="1">  1       21 0.86335989E-02 0.45006951E+03</pdfrwt>
<pdfrwt beam="2">  1       21 0.12684972E+00 0.45006951E+03</pdfrwt>
<totfact> 0.43998526E+04</totfact>
</mgrwt>
</event>
<event>
 7    0  0.4732500E-002  0.4551799E+03  0.7546771E-02  0.1026189E+00
         21   -1    0    0  502  501  0.00000000000E+00  0.00000000000E+00  0.19875428448E+03  0.19875428448E+03  0.00000000000E+00 0. -1.
         21   -1    0    0  501  502 -0.00000000000E+00 -0.00000000000E+00 -0.26060913230E+03  0.26060913230E+03  0.00000000000E+00 0. -1.
      99926    2    1    2    0    0  0.00000000000E+00  0.00000000000E+00 -0.61854847818E+02  0.45936341677E+03  0.45517988364E+03 0.  0.
      99925    2    3    3    0    0 -0.66386324907E+02 -0.83328212956E+02  0.22757520775E+00  0.28371470326E+03  0.26295103318E+03 0.  0.
         25    1    3    3    0    0  0.66386324907E+02  0.83328212956E+02 -0.62082423026E+02  0.17564871351E+03  0.12509000000E+03 0.  0.
         25    1    4    4    0    0 -0.32208590613E+01 -0.11847921661E+02  0.10084309148E+02  0.12609499820E+03  0.12509000000E+03 0.  0.
         25    1    4    4    0    0 -0.63165465846E+02 -0.71480291295E+02 -0.98567339403E+01  0.15761970506E+03  0.12509000000E+03 0.  0.
<mgrwt>
<rscale>  2 0.45517988E+03</rscale>
<asrwt>0</asrwt>
<pdfrwt beam="1">  1       21 0.29228571E-01 0.45517988E+03</pdfrwt>
<pdfrwt beam="2">  1       21 0.38324872E-01 0.45517988E+03</pdfrwt>
<totfact> 0.68129200E+04</totfact>
</mgrwt>
</event>
<event>
 7    0  0.4732500E-002  0.4583905E+03  0.7546771E-02  0.1025249E+00
         21   -1    0    0  502  501  0.00000000000E+00  0.00000000000E+00  0.11684221808E+04  0.11684221808E+04  0.00000000000E+00 0. -1.
         21   -1    0    0  501  502 -0.00000000000E+00 -0.00000000000E+00 -0.44958458340E+02  0.44958458340E+02  0.00000000000E+00 0. -1.
      99926    2    1    2    0    0  0.00000000000E+00  0.71054273576E-14  0.11234637225E+04  0.12133806391E+04  0.45839048829E+03 0.  0.
      99925    2    3    3    0    0  0.98326395283E+02 -0.63657434704E+02  0.70741882743E+03  0.76342373922E+03  0.26201919625E+03 0.  0.
         25    1    4    4    0    0  0.59370598616E+02 -0.42991242651E+02  0.27168546036E+03  0.30795066553E+03  0.12509000000E+03 0.  0.
         25    1    3    3    0    0 -0.98326395283E+02  0.63657434704E+02  0.41604489503E+03  0.44995689992E+03  0.12509000000E+03 0.  0.
         25    1    4    4    0    0  0.38955796667E+02 -0.20666192053E+02  0.43573336706E+03  0.45547307369E+03  0.12509000000E+03 0.  0.
<mgrwt>
<rscale>  2 0.45839049E+03</rscale>
<asrwt>0</asrwt>
<pdfrwt beam="1">  1       21 0.17182677E+00 0.45839049E+03</pdfrwt>
<pdfrwt beam="2">  1       21 0.66115388E-02 0.45839049E+03</pdfrwt>
<totfact> 0.30910321E+04</totfact>
</mgrwt>
</event>
<event>
 7    0  0.4732500E-002  0.4425776E+03  0.7546771E-02  0.1029959E+00
         21   -1    0    0  502  501  0.00000000000E+00  0.00000000000E+00  0.20676720664E+03  0.20676720664E+03  0.00000000000E+00 0.  1.
         21   -1    0    0  501  502 -0.00000000000E+00 -0.00000000000E+00 -0.23683023898E+03  0.23683023898E+03  0.00000000000E+00 0.  1.
      99926    2    1    2    0    0  0.00000000000E+00  0.00000000000E+00 -0.30063032335E+02  0.44359744562E+03  0.44257757268E+03 0.  0.
      99925    2    3    3    0    0  0.48324843343E+02  0.66166886558E+02  0.40175660238E+02  0.27838749012E+03  0.26300601441E+03 0.  0.
         25    1    4    4    0    0 -0.11438890054E+02  0.47723685291E+02  0.64674938978E+01  0.13452782211E+03  0.12509000000E+03 0.  0.
         25    1    4    4    0    0  0.59763733398E+02  0.18443201267E+02  0.33708166340E+02  0.14385966801E+03  0.12509000000E+03 0.  0.
         25    1    3    3    0    0 -0.48324843343E+02 -0.66166886558E+02 -0.70238692573E+02  0.16520995550E+03  0.12509000000E+03 0.  0.
<mgrwt>
<rscale>  2 0.44257757E+03</rscale>
<asrwt>0</asrwt>
<pdfrwt beam="1">  1       21 0.30406942E-01 0.44257757E+03</pdfrwt>
<pdfrwt beam="2">  1       21 0.34827976E-01 0.44257757E+03</pdfrwt>
<totfact> 0.76715776E+04</totfact>
</mgrwt>
</event>
<event>
 7    0  0.4732500E-002  0.4482958E+03  0.7546771E-02  0.1028231E+00
         21   -1    0    0  502  501  0.00000000000E+00  0.00000000000E+00  0.79920839835E+02  0.79920839835E+02  0.00000000000E+00 0. -1.
         21   -1    0    0  501  502 -0.00000000000E+00 -0.00000000000E+00 -0.62865063685E+03  0.62865063685E+03  0.00000000000E+00 0. -1.
      99926    2    1    2    0    0  0.71054273576E-14  0.00000000000E+00 -0.54872979702E+03  0.70857147669E+03  0.44829582581E+03 0.  0.
      99925    2    3    3    0    0  0.55850764016E+02 -0.77389436764E+02 -0.27191413480E+03  0.39016473726E+03  0.26302622062E+03 0.  0.
         25    1    4    4    0    0  0.14286555026E+02 -0.74183806688E+02 -0.12067028013E+03  0.18951561264E+03  0.12509000000E+03 0.  0.
         25    1    3    3    0    0 -0.55850764016E+02  0.77389436764E+02 -0.27681566222E+03  0.31840673943E+03  0.12509000000E+03 0.  0.
         25    1    4    4    0    0  0.41564208990E+02 -0.32056300762E+01 -0.15124385467E+03  0.20064912462E+03  0.12509000000E+03 0.  0.
<mgrwt>
<rscale>  2 0.44829583E+03</rscale>
<asrwt>0</asrwt>
<pdfrwt beam="1">  1       21 0.11753065E-01 0.44829583E+03</pdfrwt>
<pdfrwt beam="2">  1       21 0.92448621E-01 0.44829583E+03</pdfrwt>
<totfact> 0.55299766E+04</totfact>
</mgrwt>
</event>
<event>
 7    0  0.4732500E-002  0.4190071E+03  0.7546771E-02  0.1037390E+00
         21   -1    0    0  502  501  0.00000000000E+00  0.00000000000E+00  0.40281881827E+03  0.40281881827E+03  0.00000000000E+00 0.  1.
         21   -1    0    0  501  502 -0.00000000000E+00 -0.00000000000E+00 -0.10896146293E+03  0.10896146293E+03  0.00000000000E+00 0.  1.
      99926    2    1    2    0    0  0.00000000000E+00 -0.71054273576E-14  0.29385735534E+03  0.51178028121E+03  0.41900705357E+03 0.  0.
      99925    2    3    3    0    0 -0.22339748858E+02  0.60645932150E+02  0.23733662383E+03  0.36005983217E+03  0.26293994802E+03 0.  0.
         25    1    4    4    0    0  0.26972385790E+02  0.22093926314E+02  0.98605289640E+02  0.16305263696E+03  0.12509000000E+03 0.  0.
         25    1    4    4    0    0 -0.49312134647E+02  0.38552005836E+02  0.13873133419E+03  0.19700719521E+03  0.12509000000E+03 0.  0.
         25    1    3    3    0    0  0.22339748858E+02 -0.60645932150E+02  0.56520731506E+02  0.15172044904E+03  0.12509000000E+03 0.  0.
<mgrwt>
<rscale>  2 0.41900705E+03</rscale>
<asrwt>0</asrwt>
<pdfrwt beam="1">  1       21 0.59238061E-01 0.41900705E+03</pdfrwt>
<pdfrwt beam="2">  1       21 0.16023745E-01 0.41900705E+03</pdfrwt>
<totfact> 0.86646331E+04</totfact>
</mgrwt>
</event>
<event>
 7    0  0.4732500E-002  0.4552302E+03  0.7546771E-02  0.1026174E+00
         21   -1    0    0  502  501  0.00000000000E+00  0.00000000000E+00  0.46199001322E+02  0.46199001322E+02  0.00000000000E+00 0. -1.
         21   -1    0    0  501  502 -0.00000000000E+00 -0.00000000000E+00 -0.11214231258E+04  0.11214231258E+04  0.00000000000E+00 0. -1.
      99926    2    1    2    0    0  0.00000000000E+00  0.17763568394E-14 -0.10752241245E+04  0.11676221272E+04  0.45523017683E+03 0.  0.
      99925    2    3    3    0    0  0.98823101171E+02  0.15005807960E+02 -0.81369255609E+03  0.86096686635E+03  0.26301556897E+03 0.  0.
         25    1    4    4    0    0  0.62481821337E+02  0.30831185684E+02 -0.51881357765E+03  0.53820960272E+03  0.12509000000E+03 0.  0.
         25    1    4    4    0    0  0.36341279835E+02 -0.15825377723E+02 -0.29487897844E+03  0.32275726363E+03  0.12509000000E+03 0.  0.
         25    1    3    3    0    0 -0.98823101171E+02 -0.15005807960E+02 -0.26153156842E+03  0.30665526081E+03  0.12509000000E+03 0.  0.
<mgrwt>
<rscale>  2 0.45523018E+03</rscale>
<asrwt>0</asrwt>
<pdfrwt beam="1">  1       21 0.67939710E-02 0.45523018E+03</pdfrwt>
<pdfrwt beam="2">  1       21 0.16491516E+00 0.45523018E+03</pdfrwt>
<totfact> 0.33139941E+04</totfact>
</mgrwt>
</event>
<event>
 7    0  0.4732500E-002  0.4595100E+03  0.7546771E-02  0.1024923E+00
         21   -1    0    0  502  501  0.00000000000E+00  0.00000000000E+00  0.24037319912E+03  0.24037319912E+03  0.00000000000E+00 0.  1.
         21   -1    0    0  501  502 -0.00000000000E+00 -0.00000000000E+00 -0.21960581180E+03  0.21960581180E+03  0.00000000000E+00 0.  1.
      99926    2    1    2    0    0  0.00000000000E+00  0.35527136788E-14  0.20767387321E+02  0.45997901092E+03  0.45950996301E+03 0.  0.
      99925    2    3    3    0    0  0.10291928842E+03  0.29396536473E+02  0.61678782558E+02  0.29033884277E+03  0.26274671286E+03 0.  0.
         25    1    3    3    0    0 -0.10291928842E+03 -0.29396536473E+02 -0.40911395237E+02  0.16964016814E+03  0.12509000000E+03 0.  0.
         25    1    4    4    0    0  0.48449418143E+02  0.45220123889E+02  0.57878972665E+02  0.15293688012E+03  0.12509000000E+03 0.  0.
         25    1    4    4    0    0  0.54469870282E+02 -0.15823587416E+02  0.37998098930E+01  0.13740196266E+03  0.12509000000E+03 0.  0.
<mgrwt>
<rscale>  2 0.45950996E+03</rscale>
<asrwt>0</asrwt>
<pdfrwt beam="1">  1       21 0.35349000E-01 0.45950996E+03</pdfrwt>
<pdfrwt beam="2">  1       21 0.32294972E-01 0.45950996E+03</pdfrwt>
<totfact> 0.65783348E+04</totfact>
</mgrwt>
</event>
<event>
 7    0  0.4732500E-002  0.4462334E+03  0.7546771E-02  0.1028851E+00
         21   -1    0    0  502  501  0.00000000000E+00  0.00000000000E+00  0.21747768638E+03  0.21747768638E+03  0.00000000000E+00 0.  1.
         21   -1    0    0  501  502 -0.00000000000E+00 -0.00000000000E+00 -0.22890188379E+03  0.22890188379E+03  0.00000000000E+00 0.  1.
      99926    2    1    2    0    0  0.17763568394E-14  0.00000000000E+00 -0.11424197406E+02  0.44637957017E+03  0.44623335642E+03 0.  0.
      99925    2    3    3    0    0 -0.39005235299E+01  0.79280596484E+02  0.61022349929E+02  0.28146553989E+03  0.26305606987E+03 0.  0.
         25    1    4    4    0    0  0.24319821265E+02  0.35389230813E+02 -0.13586067919E+01  0.13226188142E+03  0.12509000000E+03 0.  0.
         25    1    4    4    0    0 -0.28220344794E+02  0.43891365672E+02  0.62380956721E+02  0.14920365847E+03  0.12509000000E+03 0.  0.
         25    1    3    3    0    0  0.39005235299E+01 -0.79280596484E+02 -0.72446547334E+02  0.16491403028E+03  0.12509000000E+03 0.  0.
<mgrwt>
<rscale>  2 0.44623336E+03</rscale>
<asrwt>0</asrwt>
<pdfrwt beam="1">  1       21 0.31982013E-01 0.44623336E+03</pdfrwt>
<pdfrwt beam="2">  1       21 0.33662042E-01 0.44623336E+03</pdfrwt>
<totfact> 0.74240697E+04</totfact>
</mgrwt>
</event>
<event>
 7    0  0.4732500E-002  0.4565472E+03  0.7546771E-02  0.1025787E+00
         21   -1    0    0  502  501  0.00000000000E+00  0.00000000000E+00  0.21166850093E+03  0.21166850093E+03  0.00000000000E+00 0.  1.
         21   -1    0    0  501  502 -0.00000000000E+00 -0.00000000000E+00 -0.24618129650E+03  0.24618129650E+03  0.00000000000E+00 0.  1.
      99926    2    1    2    0    0  0.00000000000E+00  0.00000000000E+00 -0.34512795574E+02  0.45784979742E+03  0.45654715413E+03 0.  0.
      99925    2    3    3    0    0 -0.48459656065E+02  0.56254570379E+02 -0.10925797546E+03  0.29430388653E+03  0.26299155399E+03 0.  0.
         25    1    3    3    0    0  0.48459656065E+02 -0.56254570379E+02  0.74745179887E+02  0.16354591090E+03  0.12509000000E+03 0.  0.
         25    1    4    4    0    0 -0.43315807999E+02  0.26931827164E+02 -0.94531301645E+02  0.16487952459E+03  0.12509000000E+03 0.  0.
         25    1    4    4    0    0 -0.51438480661E+01  0.29322743216E+02 -0.14726673816E+02  0.12942436194E+03  0.12509000000E+03 0.  0.
<mgrwt>
<rscale>  2 0.45654715E+03</rscale>
<asrwt>0</asrwt>
<pdfrwt beam="1">  1       21 0.31127721E-01 0.45654715E+03</pdfrwt>
<pdfrwt beam="2">  1       21 0.36203131E-01 0.45654715E+03</pdfrwt>
<totfact> 0.67500452E+04</totfact>
</mgrwt>
</event>
<event>
 7    0  0.4732500E-002  0.4557804E+03  0.7546771E-02  0.1026012E+00
         21   -1    0    0  502  501  0.00000000000E+00  0.00000000000E+00  0.33972983074E+03  0.33972983074E+03  0.00000000000E+00 0.  1.
         21   -1    0    0  501  502 -0.00000000000E+00 -0.00000000000E+00 -0.15286837204E+03  0.15286837204E+03  0.00000000000E+00 0.  1.
      99926    2    1    2    0    0  0.14210854715E-13  0.17763568394E-14  0.18686145870E+03  0.49259820277E+03  0.45578041273E+03 0.  0.
      99925    2    3    3    0    0  0.10385438326E+03  0.64040150370E+01  0.67481635632E+02  0.29079187337E+03  0.26301976759E+03 0.  0.
         25    1    4    4    0    0  0.43355905923E+02 -0.45924695054E+01  0.73084154398E+02  0.15129318253E+03  0.12509000000E+03 0.  0.
         25    1    4    4    0    0  0.60498477333E+02  0.10996484542E+02 -0.56025187665E+01  0.13949869085E+03  0.12509000000E+03 0.  0.
         25    1    3    3    0    0 -0.10385438326E+03 -0.64040150370E+01  0.11937982307E+03  0.20180632940E+03  0.12509000000E+03 0.  0.
<mgrwt>
<rscale>  2 0.45578041E+03</rscale>
<asrwt>0</asrwt>
<pdfrwt beam="1">  1       21 0.49960269E-01 0.45578041E+03</pdfrwt>
<pdfrwt beam="2">  1       21 0.22480643E-01 0.45578041E+03</pdfrwt>
<totfact> 0.65387801E+04</totfact>
</mgrwt>
</event>
<event>
 7    0  0.4732500E-002  0.4483660E+03  0.7546771E-02  0.1028210E+00
         21   -1    0    0  502  501  0.00000000000E+00  0.00000000000E+00  0.22387871720E+03  0.22387871720E+03  0.00000000000E+00 0.  1.
         21   -1    0    0  501  502 -0.00000000000E+00 -0.00000000000E+00 -0.22448773070E+03  0.22448773070E+03  0.00000000000E+00 0.  1.
      99926    2    1    2    0    0  0.00000000000E+00 -0.71054273576E-14 -0.60901349994E+00  0.44836644790E+03  0.44836603429E+03 0.  0.
      99925    2    3    3    0    0 -0.55648101204E+02  0.48899538254E+02 -0.76892202830E+02  0.28418816345E+03  0.26336785184E+03 0.  0.
         25    1    4    4    0    0 -0.54393419664E+02  0.57185954677E+02 -0.34858298967E+02  0.15195883200E+03  0.12509000000E+03 0.  0.
         25    1    3    3    0    0  0.55648101204E+02 -0.48899538254E+02  0.76283189330E+02  0.16417828445E+03  0.12509000000E+03 0.  0.
         25    1    4    4    0    0 -0.12546815396E+01 -0.82864164222E+01 -0.42033903863E+02  0.13222933145E+03  0.12509000000E+03 0.  0.
<mgrwt>
<rscale>  2 0.44836603E+03</rscale>
<asrwt>0</asrwt>
<pdfrwt beam="1">  1       21 0.32923341E-01 0.44836603E+03</pdfrwt>
<pdfrwt beam="2">  1       21 0.33012902E-01 0.44836603E+03</pdfrwt>
<totfact> 0.72813011E+04</totfact>
</mgrwt>
</event>
<event>
 7    0  0.4732500E-002  0.4519234E+03  0.7546771E-02  0.1027150E+00
         21   -1    0    0  502  501  0.00000000000E+00  0.00000000000E+00  0.87175620894E+03  0.87175620894E+03  0.00000000000E+00 0. -1.
         21   -1    0    0  501  502 -0.00000000000E+00 -0.00000000000E+00 -0.58569917301E+02  0.58569917301E+02  0.00000000000E+00 0. -1.
      99926    2    1    2    0    0  0.00000000000E+00  0.35527136788E-14  0.81318629164E+03  0.93032612624E+03  0.45192339645E+03 0.  0.
      99925    2    3    3    0    0 -0.97554701275E+02  0.25768199887E+02  0.42310399113E+03  0.50843439945E+03  0.26326342580E+03 0.  0.
         25    1    4    4    0    0 -0.85404867462E+02  0.35476938723E+02  0.22162480779E+03  0.27077235474E+03  0.12509000000E+03 0.  0.
         25    1    3    3    0    0  0.97554701275E+02 -0.25768199887E+02  0.39008230051E+03  0.42189172679E+03  0.12509000000E+03 0.  0.
         25    1    4    4    0    0 -0.12149833813E+02 -0.97087388363E+01  0.20147918334E+03  0.23766204470E+03  0.12509000000E+03 0.  0.
<mgrwt>
<rscale>  2 0.45192340E+03</rscale>
<asrwt>0</asrwt>
<pdfrwt beam="1">  1       21 0.12819943E+00 0.45192340E+03</pdfrwt>
<pdfrwt beam="2">  1       21 0.86132237E-02 0.45192340E+03</pdfrwt>
<totfact> 0.42972713E+04</totfact>
</mgrwt>
</event>
<event>
 7    0  0.4732500E-002  0.4601212E+03  0.7546771E-02  0.1024746E+00
         21   -1    0    0  502  501  0.00000000000E+00  0.00000000000E+00  0.46804500909E+02  0.46804500909E+02  0.00000000000E+00 0.  1.
         21   -1    0    0  501  502 -0.00000000000E+00 -0.00000000000E+00 -0.11308288278E+04  0.11308288278E+04  0.00000000000E+00 0.  1.
      99926    2    1    2    0    0  0.00000000000E+00  0.00000000000E+00 -0.10840243269E+04  0.11776333287E+04  0.46012119664E+03 0.  0.
      99925    2    3    3    0    0  0.10730463216E+03 -0.39181817121E+02 -0.75290942239E+03  0.80570042219E+03  0.26311798325E+03 0.  0.
         25    1    4    4    0    0  0.17798913013E+02 -0.20834937465E+02 -0.40748572359E+03  0.42713349079E+03  0.12509000000E+03 0.  0.
         25    1    3    3    0    0 -0.10730463216E+03  0.39181817121E+02 -0.33111490454E+03  0.37193290656E+03  0.12509000000E+03 0.  0.
         25    1    4    4    0    0  0.89505719150E+02 -0.18346879656E+02 -0.34542369881E+03  0.37856693140E+03  0.12509000000E+03 0.  0.
<mgrwt>
<rscale>  2 0.46012120E+03</rscale>
<asrwt>0</asrwt>
<pdfrwt beam="1">  1       21 0.68830148E-02 0.46012120E+03</pdfrwt>
<pdfrwt beam="2">  1       21 0.16629836E+00 0.46012120E+03</pdfrwt>
<totfact> 0.31593417E+04</totfact>
</mgrwt>
</event>
<event>
 7    0  0.4732500E-002  0.4649131E+03  0.7546771E-02  0.1023366E+00
         21   -1    0    0  502  501  0.00000000000E+00  0.00000000000E+00  0.13831637311E+03  0.13831637311E+03  0.00000000000E+00 0. -1.
         21   -1    0    0  501  502 -0.00000000000E+00 -0.00000000000E+00 -0.39066999492E+03  0.39066999492E+03  0.00000000000E+00 0. -1.
      99926    2    1    2    0    0  0.00000000000E+00  0.00000000000E+00 -0.25235362181E+03  0.52898636804E+03  0.46491313934E+03 0.  0.
      99925    2    3    3    0    0  0.11735088331E+03 -0.32235378669E+02 -0.14498671062E+03  0.32408270490E+03  0.26305532480E+03 0.  0.
         25    1    3    3    0    0 -0.11735088331E+03  0.32235378669E+02 -0.10736691119E+03  0.20490366314E+03  0.12509000000E+03 0.  0.
         25    1    4    4    0    0  0.30890307996E+02 -0.43446814906E+01 -0.99738835128E+02  0.16299825373E+03  0.12509000000E+03 0.  0.
         25    1    4    4    0    0  0.86460575310E+02 -0.27890697178E+02 -0.45247875491E+02  0.16108445117E+03  0.12509000000E+03 0.  0.
<mgrwt>
<rscale>  2 0.46491314E+03</rscale>
<asrwt>0</asrwt>
<pdfrwt beam="1">  1       21 0.20340643E-01 0.46491314E+03</pdfrwt>
<pdfrwt beam="2">  1       21 0.57451470E-01 0.46491314E+03</pdfrwt>
<totfact> 0.58537751E+04</totfact>
</mgrwt>
</event>
<event>
 7    0  0.4732500E-002  0.4507614E+03  0.7546771E-02  0.1027495E+00
         21   -1    0    0  502  501  0.00000000000E+00  0.00000000000E+00  0.11557673922E+03  0.11557673922E+03  0.00000000000E+00 0.  1.
         21   -1    0    0  501  502 -0.00000000000E+00 -0.00000000000E+00 -0.43950415453E+03  0.43950415453E+03  0.00000000000E+00 0.  1.
      99926    2    1    2    0    0 -0.14210854715E-13  0.35527136788E-14 -0.32392741530E+03  0.55508089375E+03  0.45076138723E+03 0.  0.
      99925    2    3    3    0    0 -0.92810890188E+02  0.18808116087E+02 -0.13769501896E+03  0.31156986706E+03  0.26296056215E+03 0.  0.
         25    1    3    3    0    0  0.92810890188E+02 -0.18808116087E+02 -0.18623239635E+03  0.24351102668E+03  0.12509000000E+03 0.  0.
         25    1    4    4    0    0 -0.24491279838E+02  0.32283419602E+02 -0.94849735884E+02  0.16212964709E+03  0.12509000000E+03 0.  0.
         25    1    4    4    0    0 -0.68319610351E+02 -0.13475303515E+02 -0.42845283075E+02  0.14944021997E+03  0.12509000000E+03 0.  0.
<mgrwt>
<rscale>  2 0.45076139E+03</rscale>
<asrwt>0</asrwt>
<pdfrwt beam="1">  1       21 0.16996580E-01 0.45076139E+03</pdfrwt>
<pdfrwt beam="2">  1       21 0.64632963E-01 0.45076139E+03</pdfrwt>
<totfact> 0.63639191E+04</totfact>
</mgrwt>
</event>
<event>
 7    0  0.4732500E-002  0.4729082E+03  0.7546771E-02  0.1021103E+00
         21   -1    0    0  502  501  0.00000000000E+00  0.00000000000E+00  0.10876457076E+03  0.10876457076E+03  0.00000000000E+00 0. -1.
         21   -1    0    0  501  502 -0.00000000000E+00 -0.00000000000E+00 -0.51405103014E+03  0.51405103014E+03  0.00000000000E+00 0. -1.
      99926    2    1    2    0    0 -0.17763568394E-14  0.00000000000E+00 -0.40528645938E+03  0.62281560090E+03  0.47290819254E+03 0.  0.
      99925    2    3    3    0    0  0.88133378063E+01  0.96703245262E+02 -0.36354480736E+03  0.45905032320E+03  0.26293189176E+03 0.  0.
         25    1    4    4    0    0  0.20773746407E+02  0.14604778023E+02 -0.13657204592E+03  0.18693389181E+03  0.12509000000E+03 0.  0.
         25    1    4    4    0    0 -0.11960408601E+02  0.82098467238E+02 -0.22697276144E+03  0.27211643139E+03  0.12509000000E+03 0.  0.
         25    1    3    3    0    0 -0.88133378063E+01 -0.96703245262E+02 -0.41741652019E+02  0.16376527770E+03  0.12509000000E+03 0.  0.
<mgrwt>
<rscale>  2 0.47290819E+03</rscale>
<asrwt>0</asrwt>
<pdfrwt beam="1">  1       21 0.15994790E-01 0.47290819E+03</pdfrwt>
<pdfrwt beam="2">  1       21 0.75595741E-01 0.47290819E+03</pdfrwt>
<totfact> 0.49861151E+04</totfact>
</mgrwt>
</event>
<event>
 7    0  0.4732500E-002  0.4604471E+03  0.7546771E-02  0.1024652E+00
         21   -1    0    0  502  501  0.00000000000E+00  0.00000000000E+00  0.21533895157E+03  0.21533895157E+03  0.00000000000E+00 0.  1.
         21   -1    0    0  501  502 -0.00000000000E+00 -0.00000000000E+00 -0.24613700092E+03  0.24613700092E+03  0.00000000000E+00 0.  1.
      99926    2    1    2    0    0 -0.13322676296E-14  0.14210854715E-13 -0.30798049351E+02  0.46147595249E+03  0.46044710324E+03 0.  0.
      99925    2    3    3    0    0 -0.20974564856E+01 -0.11594653084E+03 -0.42719475984E+02  0.29048581871E+03  0.26288602075E+03 0.  0.
         25    1    4    4    0    0 -0.21815499198E+02 -0.81856274283E+02  0.43864940898E+01  0.15113938956E+03  0.12509000000E+03 0.  0.
         25    1    4    4    0    0  0.19718042713E+02 -0.34090256560E+02 -0.47105970073E+02  0.13934642915E+03  0.12509000000E+03 0.  0.
         25    1    3    3    0    0  0.20974564856E+01  0.11594653084E+03  0.11921426633E+02  0.17099013378E+03  0.12509000000E+03 0.  0.
<mgrwt>
<rscale>  2 0.46044710E+03</rscale>
<asrwt>0</asrwt>
<pdfrwt beam="1">  1       21 0.31667493E-01 0.46044710E+03</pdfrwt>
<pdfrwt beam="2">  1       21 0.36196618E-01 0.46044710E+03</pdfrwt>
<totfact> 0.65194159E+04</totfact>
</mgrwt>
</event>
<event>
 7    0  0.4732500E-002  0.4586271E+03  0.7546771E-02  0.1025180E+00
         21   -1    0    0  502  501  0.00000000000E+00  0.00000000000E+00  0.44292613155E+03  0.44292613155E+03  0.00000000000E+00 0.  1.
         21   -1    0    0  501  502 -0.00000000000E+00 -0.00000000000E+00 -0.11872114872E+03  0.11872114872E+03  0.00000000000E+00 0.  1.
      99926    2    1    2    0    0  0.00000000000E+00  0.00000000000E+00  0.32420498283E+03  0.56164728026E+03  0.45862707785E+03 0.  0.
      99925    2    3    3    0    0  0.44541463405E+02  0.10179161827E+03  0.24631141714E+03  0.37709270517E+03  0.26302874096E+03 0.  0.
         25    1    4    4    0    0  0.14636890040E+02  0.16747225214E+02  0.14404991025E+03  0.19207444611E+03  0.12509000000E+03 0.  0.
         25    1    4    4    0    0  0.29904573365E+02  0.85044393052E+02  0.10226150689E+03  0.18501825907E+03  0.12509000000E+03 0.  0.
         25    1    3    3    0    0 -0.44541463405E+02 -0.10179161827E+03  0.77893565687E+02  0.18455457509E+03  0.12509000000E+03 0.  0.
<mgrwt>
<rscale>  2 0.45862708E+03</rscale>
<asrwt>0</asrwt>
<pdfrwt beam="1">  1       21 0.65136195E-01 0.45862708E+03</pdfrwt>
<pdfrwt beam="2">  1       21 0.17458993E-01 0.45862708E+03</pdfrwt>
<totfact> 0.59381345E+04</totfact>
</mgrwt>
</event>
<event>
 7    0  0.4732500E-002  0.4533182E+03  0.7546771E-02  0.1026737E+00
         21   -1    0    0  502  501  0.00000000000E+00  0.00000000000E+00  0.69773666533E+03  0.69773666533E+03  0.00000000000E+00 0.  1.
         21   -1    0    0  501  502 -0.00000000000E+00 -0.00000000000E+00 -0.73630004344E+02  0.73630004344E+02  0.00000000000E+00 0.  1.
      99926    2    1    2    0    0 -0.35527136788E-14  0.00000000000E+00  0.62410666098E+03  0.77136666967E+03  0.45331822685E+03 0.  0.
      99925    2    3    3    0    0  0.29206438556E+02  0.10670645839E+03  0.36849263478E+03  0.46603844823E+03  0.26299378135E+03 0.  0.
         25    1    3    3    0    0 -0.29206438556E+02 -0.10670645839E+03  0.25561402621E+03  0.30532822144E+03  0.12509000000E+03 0.  0.
         25    1    4    4    0    0  0.51548901070E+02  0.36609728313E+02  0.17748470824E+03  0.22615457362E+03  0.12509000000E+03 0.  0.
         25    1    4    4    0    0 -0.22342462513E+02  0.70096730079E+02  0.19100792653E+03  0.23988387461E+03  0.12509000000E+03 0.  0.
<mgrwt>
<rscale>  2 0.45331823E+03</rscale>
<asrwt>0</asrwt>
<pdfrwt beam="1">  1       21 0.10260833E+00 0.45331823E+03</pdfrwt>
<pdfrwt beam="2">  1       21 0.10827942E-01 0.45331823E+03</pdfrwt>
<totfact> 0.49835602E+04</totfact>
</mgrwt>
</event>
<event>
 7    0  0.4732500E-002  0.4197867E+03  0.7546771E-02  0.1037136E+00
         21   -1    0    0  502  501  0.00000000000E+00  0.00000000000E+00  0.10788903924E+03  0.10788903924E+03  0.00000000000E+00 0. -1.
         21   -1    0    0  501  502 -0.00000000000E+00 -0.00000000000E+00 -0.40833813254E+03  0.40833813254E+03  0.00000000000E+00 0. -1.
      99926    2    1    2    0    0 -0.44408920985E-15 -0.14210854715E-13 -0.30044909330E+03  0.51622717178E+03  0.41978665441E+03 0.  0.
      99925    2    3    3    0    0 -0.29008408035E+01 -0.72480410578E+02 -0.17012077740E+03  0.32156129696E+03  0.26305657947E+03 0.  0.
         25    1    4    4    0    0 -0.11770752951E+02  0.29659975702E+01 -0.66014442008E+02  0.14196042554E+03  0.12509000000E+03 0.  0.
         25    1    4    4    0    0  0.88699121478E+01 -0.75446408148E+02 -0.10410633539E+03  0.17960087141E+03  0.12509000000E+03 0.  0.
         25    1    3    3    0    0  0.29008408035E+01  0.72480410578E+02 -0.13032831590E+03  0.19466587482E+03  0.12509000000E+03 0.  0.
<mgrwt>
<rscale>  2 0.41978665E+03</rscale>
<asrwt>0</asrwt>
<pdfrwt beam="1">  1       21 0.15866035E-01 0.41978665E+03</pdfrwt>
<pdfrwt beam="2">  1       21 0.60049725E-01 0.41978665E+03</pdfrwt>
<totfact> 0.85655783E+04</totfact>
</mgrwt>
</event>
<event>
 7    0  0.4732500E-002  0.4338785E+03  0.7546771E-02  0.1032642E+00
         21   -1    0    0  502  501  0.00000000000E+00  0.00000000000E+00  0.34252783867E+03  0.34252783867E+03  0.00000000000E+00 0. -1.
         21   -1    0    0  501  502 -0.00000000000E+00 -0.00000000000E+00 -0.13739796557E+03  0.13739796557E+03  0.00000000000E+00 0. -1.
      99926    2    1    2    0    0 -0.35527136788E-14  0.00000000000E+00  0.20512987310E+03  0.47992580423E+03  0.43387845387E+03 0.  0.
      99925    2    3    3    0    0 -0.29778689038E+02 -0.51067889607E+02  0.20860245381E+03  0.34152686426E+03  0.26387670530E+03 0.  0.
         25    1    4    4    0    0  0.13035737760E+02 -0.10083216917E+02  0.13489650417E+03  0.18470564869E+03  0.12509000000E+03 0.  0.
         25    1    4    4    0    0 -0.42814426798E+02 -0.40984672689E+02  0.73705949648E+02  0.15682121556E+03  0.12509000000E+03 0.  0.
         25    1    3    3    0    0  0.29778689038E+02  0.51067889607E+02 -0.34725807144E+01  0.13839893998E+03  0.12509000000E+03 0.  0.
<mgrwt>
<rscale>  2 0.43387845E+03</rscale>
<asrwt>0</asrwt>
<pdfrwt beam="1">  1       21 0.50371741E-01 0.43387845E+03</pdfrwt>
<pdfrwt beam="2">  1       21 0.20205583E-01 0.43387845E+03</pdfrwt>
<totfact> 0.79170445E+04</totfact>
</mgrwt>
</event>
<event>
 7    0  0.4732500E-002  0.4521179E+03  0.7546771E-02  0.1027092E+00
         21   -1    0    0  502  501  0.00000000000E+00  0.00000000000E+00  0.32755511897E+02  0.32755511897E+02  0.00000000000E+00 0.  1.
         21   -1    0    0  501  502 -0.00000000000E+00 -0.00000000000E+00 -0.15601234585E+04  0.15601234585E+04  0.00000000000E+00 0.  1.
      99926    2    1    2    0    0  0.00000000000E+00  0.00000000000E+00 -0.15273679466E+04  0.15928789704E+04  0.45211787182E+03 0.  0.
      99925    2    3    3    0    0 -0.98306079308E+02 -0.40443513465E+02 -0.86099644811E+03  0.90658585145E+03  0.26321713352E+03 0.  0.
         25    1    3    3    0    0  0.98306079308E+02  0.40443513465E+02 -0.66637149846E+03  0.68629311892E+03  0.12509000000E+03 0.  0.
         25    1    4    4    0    0 -0.45152271797E+02  0.92424937736E+01 -0.32209313744E+03  0.34859094743E+03  0.12509000000E+03 0.  0.
         25    1    4    4    0    0 -0.53153807512E+02 -0.49686007239E+02 -0.53890331067E+03  0.55799490402E+03  0.12509000000E+03 0.  0.
<mgrwt>
<rscale>  2 0.45211787E+03</rscale>
<asrwt>0</asrwt>
<pdfrwt beam="1">  1       21 0.48169853E-02 0.45211787E+03</pdfrwt>
<pdfrwt beam="2">  1       21 0.22943001E+00 0.45211787E+03</pdfrwt>
<totfact> 0.22081216E+04</totfact>
</mgrwt>
</event>
<event>
 7    0  0.4732500E-002  0.4563458E+03  0.7546771E-02  0.1025846E+00
         21   -1    0    0  502  501  0.00000000000E+00  0.00000000000E+00  0.38212273408E+03  0.38212273408E+03  0.00000000000E+00 0. -1.
         21   -1    0    0  501  502 -0.00000000000E+00 -0.00000000000E+00 -0.13624647618E+03  0.13624647618E+03  0.00000000000E+00 0. -1.
      99926    2    1    2    0    0  0.00000000000E+00 -0.71054273576E-14  0.24587625789E+03  0.51836921026E+03  0.45634581619E+03 0.  0.
      99925    2    3    3    0    0  0.10934768786E+03 -0.33471148263E+02  0.15389138210E+03  0.32553259527E+03  0.26308112530E+03 0.  0.
         25    1    4    4    0    0  0.67011780322E+02 -0.89953505859E+01  0.12231138783E+03  0.18756086672E+03  0.12509000000E+03 0.  0.
         25    1    3    3    0    0 -0.10934768786E+03  0.33471148263E+02  0.91984875794E+02  0.19283661499E+03  0.12509000000E+03 0.  0.
         25    1    4    4    0    0  0.42335907543E+02 -0.24475797677E+02  0.31579994271E+02  0.13797172854E+03  0.12509000000E+03 0.  0.
<mgrwt>
<rscale>  2 0.45634582E+03</rscale>
<asrwt>0</asrwt>
<pdfrwt beam="1">  1       21 0.56194520E-01 0.45634582E+03</pdfrwt>
<pdfrwt beam="2">  1       21 0.20036247E-01 0.45634582E+03</pdfrwt>
<totfact> 0.63319667E+04</totfact>
</mgrwt>
</event>
<event>
 7    0  0.4732500E-002  0.4576058E+03  0.7546771E-02  0.1025478E+00
         21   -1    0    0  502  501  0.00000000000E+00  0.00000000000E+00  0.61964598764E+02  0.61964598764E+02  0.00000000000E+00 0.  1.
         21   -1    0    0  501  502 -0.00000000000E+00 -0.00000000000E+00 -0.84484946990E+03  0.84484946990E+03  0.00000000000E+00 0.  1.
      99926    2    1    2    0    0  0.00000000000E+00  0.00000000000E+00 -0.78288487114E+03  0.90681406867E+03  0.45760576228E+03 0.  0.
      99925    2    3    3    0    0  0.47015143765E+02 -0.52673774704E+02 -0.30986518619E+03  0.41246593149E+03  0.26291968496E+03 0.  0.
         25    1    3    3    0    0 -0.47015143765E+02  0.52673774704E+02 -0.47301968494E+03  0.49434813718E+03  0.12509000000E+03 0.  0.
         25    1    4    4    0    0 -0.14112745555E+02 -0.25414708086E+02 -0.12278181408E+03  0.17767374298E+03  0.12509000000E+03 0.  0.
         25    1    4    4    0    0  0.61127889320E+02 -0.27259066618E+02 -0.18708337212E+03  0.23479218851E+03  0.12509000000E+03 0.  0.
<mgrwt>
<rscale>  2 0.45760576E+03</rscale>
<asrwt>0</asrwt>
<pdfrwt beam="1">  1       21 0.91124416E-02 0.45760576E+03</pdfrwt>
<pdfrwt beam="2">  1       21 0.12424256E+00 0.45760576E+03</pdfrwt>
<totfact> 0.42075489E+04</totfact>
</mgrwt>
</event>
<event>
 7    0  0.4732500E-002  0.4546161E+03  0.7546771E-02  0.1026354E+00
         21   -1    0    0  502  501  0.00000000000E+00  0.00000000000E+00  0.53598845873E+02  0.53598845873E+02  0.00000000000E+00 0. -1.
         21   -1    0    0  501  502 -0.00000000000E+00 -0.00000000000E+00 -0.96399368250E+03  0.96399368250E+03  0.00000000000E+00 0. -1.
      99926    2    1    2    0    0  0.00000000000E+00 -0.14210854715E-13 -0.91039483662E+03  0.10175925284E+04  0.45461609655E+03 0.  0.
      99925    2    3    3    0    0  0.76707880700E+02  0.82451528033E+02 -0.58018700484E+03  0.64696188513E+03  0.26317364380E+03 0.  0.
         25    1    3    3    0    0 -0.76707880700E+02 -0.82451528033E+02 -0.33020783178E+03  0.37063064324E+03  0.12509000000E+03 0.  0.
         25    1    4    4    0    0  0.75289037247E+02  0.65469623994E+02 -0.32260169865E+03  0.36010286706E+03  0.12509000000E+03 0.  0.
         25    1    4    4    0    0  0.14188434526E+01  0.16981904039E+02 -0.25758530619E+03  0.28685901807E+03  0.12509000000E+03 0.  0.
<mgrwt>
<rscale>  2 0.45461610E+03</rscale>
<asrwt>0</asrwt>
<pdfrwt beam="1">  1       21 0.78821830E-02 0.45461610E+03</pdfrwt>
<pdfrwt beam="2">  1       21 0.14176378E+00 0.45461610E+03</pdfrwt>
<totfact> 0.38604995E+04</totfact>
</mgrwt>
</event>
<event>
 7    0  0.4732500E-002  0.4586824E+03  0.7546771E-02  0.1025164E+00
         21   -1    0    0  502  501  0.00000000000E+00  0.00000000000E+00  0.36044984137E+03  0.36044984137E+03  0.00000000000E+00 0. -1.
         21   -1    0    0  501  502 -0.00000000000E+00 -0.00000000000E+00 -0.14592149271E+03  0.14592149271E+03  0.00000000000E+00 0. -1.
      99926    2    1    2    0    0 -0.14210854715E-13  0.35527136788E-14  0.21452834865E+03  0.50637133408E+03  0.45868236897E+03 0.  0.
      99925    2    3    3    0    0 -0.11531582211E+03  0.16294431860E+02  0.12679592106E+03  0.31425747646E+03  0.26290170896E+03 0.  0.
         25    1    4    4    0    0 -0.38063324342E+02 -0.13570301829E+02  0.91418624491E+02  0.16011821494E+03  0.12509000000E+03 0.  0.
         25    1    3    3    0    0  0.11531582211E+03 -0.16294431860E+02  0.87732427588E+02  0.19211385762E+03  0.12509000000E+03 0.  0.
         25    1    4    4    0    0 -0.77252497769E+02  0.29864733689E+02  0.35377296573E+02  0.15413926152E+03  0.12509000000E+03 0.  0.
<mgrwt>
<rscale>  2 0.45868237E+03</rscale>
<asrwt>0</asrwt>
<pdfrwt beam="1">  1       21 0.53007330E-01 0.45868237E+03</pdfrwt>
<pdfrwt beam="2">  1       21 0.21459043E-01 0.45868237E+03</pdfrwt>
<totfact> 0.62964747E+04</totfact>
</mgrwt>
</event>
<event>
 7    0  0.4732500E-002  0.4575523E+03  0.7546771E-02  0.1025494E+00
         21   -1    0    0  502  501  0.00000000000E+00  0.00000000000E+00  0.44504502792E+02  0.44504502792E+02  0.00000000000E+00 0.  1.
         21   -1    0    0  501  502 -0.00000000000E+00 -0.00000000000E+00 -0.11760277737E+04  0.11760277737E+04  0.00000000000E+00 0.  1.
      99926    2    1    2    0    0  0.00000000000E+00  0.00000000000E+00 -0.11315232709E+04  0.12205322764E+04  0.45755231979E+03 0.  0.
      99925    2    3    3    0    0 -0.46834396584E+02 -0.97031678096E+02 -0.82125106286E+03  0.86907110019E+03  0.26310199862E+03 0.  0.
         25    1    4    4    0    0 -0.60604999236E+02 -0.56783295995E+02 -0.38469217395E+03  0.41295627545E+03  0.12509000000E+03 0.  0.
         25    1    4    4    0    0  0.13770602652E+02 -0.40248382101E+02 -0.43655888891E+03  0.45611482474E+03  0.12509000000E+03 0.  0.
         25    1    3    3    0    0  0.46834396584E+02  0.97031678096E+02 -0.31027220800E+03  0.35146117626E+03  0.12509000000E+03 0.  0.
<mgrwt>
<rscale>  2 0.45755232E+03</rscale>
<asrwt>0</asrwt>
<pdfrwt beam="1">  1       21 0.65447792E-02 0.45755232E+03</pdfrwt>
<pdfrwt beam="2">  1       21 0.17294528E+00 0.45755232E+03</pdfrwt>
<totfact> 0.30893161E+04</totfact>
</mgrwt>
</event>
<event>
 7    0  0.4732500E-002  0.4549518E+03  0.7546771E-02  0.1026256E+00
         21   -1    0    0  502  501  0.00000000000E+00  0.00000000000E+00  0.45165530094E+02  0.45165530094E+02  0.00000000000E+00 0.  1.
         21   -1    0    0  501  502 -0.00000000000E+00 -0.00000000000E+00 -0.11456806984E+04  0.11456806984E+04  0.00000000000E+00 0.  1.
      99926    2    1    2    0    0  0.00000000000E+00  0.00000000000E+00 -0.11005151683E+04  0.11908462285E+04  0.45495176035E+03 0.  0.
      99925    2    3    3    0    0  0.26127775361E+02  0.25348321008E+02 -0.41321091184E+03  0.49130363002E+03  0.26326944597E+03 0.  0.
         25    1    3    3    0    0 -0.26127775361E+02 -0.25348321008E+02 -0.68730425646E+03  0.69954259847E+03  0.12509000000E+03 0.  0.
         25    1    4    4    0    0 -0.88552441919E+01  0.39525996434E+02 -0.16678366914E+03  0.21237942494E+03  0.12509000000E+03 0.  0.
         25    1    4    4    0    0  0.34983019553E+02 -0.14177675425E+02 -0.24642724270E+03  0.27892420509E+03  0.12509000000E+03 0.  0.
<mgrwt>
<rscale>  2 0.45495176E+03</rscale>
<asrwt>0</asrwt>
<pdfrwt beam="1">  1       21 0.66419904E-02 0.45495176E+03</pdfrwt>
<pdfrwt beam="2">  1       21 0.16848244E+00 0.45495176E+03</pdfrwt>
<totfact> 0.32459619E+04</totfact>
</mgrwt>
</event>
<event>
 7    0  0.4732500E-002  0.4540393E+03  0.7546771E-02  0.1026524E+00
         21   -1    0    0  502  501  0.00000000000E+00  0.00000000000E+00  0.75705506874E+02  0.75705506874E+02  0.00000000000E+00 0. -1.
         21   -1    0    0  501  502 -0.00000000000E+00 -0.00000000000E+00 -0.68076840720E+03  0.68076840720E+03  0.00000000000E+00 0. -1.
      99926    2    1    2    0    0  0.00000000000E+00 -0.71054273576E-14 -0.60506290032E+03  0.75647391407E+03  0.45403928169E+03 0.  0.
      99925    2    3    3    0    0 -0.46497775217E+02  0.52141286566E+02 -0.52746703238E+03  0.59353409792E+03  0.26302185895E+03 0.  0.
         25    1    4    4    0    0 -0.14993465449E+02  0.44992471616E+01 -0.17919386349E+03  0.21909586040E+03  0.12509000000E+03 0.  0.
         25    1    3    3    0    0  0.46497775217E+02 -0.52141286566E+02 -0.77595867949E+02  0.16293981615E+03  0.12509000000E+03 0.  0.
         25    1    4    4    0    0 -0.31504309768E+02  0.47642039405E+02 -0.34827316888E+03  0.37443823752E+03  0.12509000000E+03 0.  0.
<mgrwt>
<rscale>  2 0.45403928E+03</rscale>
<asrwt>0</asrwt>
<pdfrwt beam="1">  1       21 0.11133162E-01 0.45403928E+03</pdfrwt>
<pdfrwt beam="2">  1       21 0.10011301E+00 0.45403928E+03</pdfrwt>
<totfact> 0.50319954E+04</totfact>
</mgrwt>
</event>
<event>
 7    0  0.4732500E-002  0.5544912E+03  0.7546771E-02  0.1000460E+00
         21   -1    0    0  502  501  0.00000000000E+00  0.00000000000E+00  0.29826430991E+04  0.29826430991E+04  0.00000000000E+00 0.  1.
         21   -1    0    0  501  502 -0.00000000000E+00 -0.00000000000E+00 -0.25770811640E+02  0.25770811640E+02  0.00000000000E+00 0.  1.
      99926    2    1    2    0    0  0.00000000000E+00  0.00000000000E+00  0.29568722874E+04  0.30084139107E+04  0.55449123887E+03 0.  0.
      99925    2    3    3    0    0 -0.98189518857E+02 -0.33288660762E+02  0.86095245986E+03  0.90620632147E+03  0.26309968147E+03 0.  0.
         25    1    3    3    0    0  0.98189518857E+02  0.33288660762E+02  0.20959198276E+04  0.21022075892E+04  0.12509000000E+03 0.  0.
         25    1    4    4    0    0 -0.91171412821E+01 -0.20735052154E+02  0.34188769601E+03  0.36475713761E+03  0.12509000000E+03 0.  0.
         25    1    4    4    0    0 -0.89072377575E+02 -0.12553608608E+02  0.51906476385E+03  0.54144918386E+03  0.12509000000E+03 0.  0.
<mgrwt>
<rscale>  2 0.55449124E+03</rscale>
<asrwt>0</asrwt>
<pdfrwt beam="1">  1       21 0.43862375E+00 0.55449124E+03</pdfrwt>
<pdfrwt beam="2">  1       21 0.37898273E-02 0.55449124E+03</pdfrwt>
<totfact> 0.15824075E+03</totfact>
</mgrwt>
</event>
<event>
 7    0  0.4732500E-002  0.4563354E+03  0.7546771E-02  0.1025849E+00
         21   -1    0    0  502  501  0.00000000000E+00  0.00000000000E+00  0.36247827928E+03  0.36247827928E+03  0.00000000000E+00 0. -1.
         21   -1    0    0  501  502 -0.00000000000E+00 -0.00000000000E+00 -0.14362377968E+03  0.14362377968E+03  0.00000000000E+00 0. -1.
      99926    2    1    2    0    0 -0.71054273576E-14 -0.14210854715E-13  0.21885449961E+03  0.50610205896E+03  0.45633540525E+03 0.  0.
      99925    2    3    3    0    0  0.49809983334E+02  0.93070709630E+02  0.18671884750E+03  0.33929858278E+03  0.26289999778E+03 0.  0.
         25    1    4    4    0    0  0.30344138834E+02  0.85326502673E+02  0.82171898516E+02  0.17493172333E+03  0.12509000000E+03 0.  0.
         25    1    3    3    0    0 -0.49809983334E+02 -0.93070709630E+02  0.32135652101E+02  0.16680347618E+03  0.12509000000E+03 0.  0.
         25    1    4    4    0    0  0.19465844500E+02  0.77442069569E+01  0.10454694899E+03  0.16436685945E+03  0.12509000000E+03 0.  0.
<mgrwt>
<rscale>  2 0.45633541E+03</rscale>
<asrwt>0</asrwt>
<pdfrwt beam="1">  1       21 0.53305629E-01 0.45633541E+03</pdfrwt>
<pdfrwt beam="2">  1       21 0.21121144E-01 0.45633541E+03</pdfrwt>
<totfact> 0.64161291E+04</totfact>
</mgrwt>
</event>
<event>
 7    0  0.4732500E-002  0.4536467E+03  0.7546771E-02  0.1026640E+00
         21   -1    0    0  502  501  0.00000000000E+00  0.00000000000E+00  0.14089774313E+04  0.14089774313E+04  0.00000000000E+00 0.  1.
         21   -1    0    0  501  502 -0.00000000000E+00 -0.00000000000E+00 -0.36515013764E+02  0.36515013764E+02  0.00000000000E+00 0.  1.
      99926    2    1    2    0    0  0.00000000000E+00  0.35527136788E-14  0.13724624175E+04  0.14454924450E+04  0.45364669202E+03 0.  0.
      99925    2    3    3    0    0 -0.54900149228E+02 -0.22513135002E+02  0.56260718201E+03  0.62388799142E+03  0.26303710187E+03 0.  0.
         25    1    3    3    0    0  0.54900149228E+02  0.22513135002E+02  0.80985523549E+03  0.82160445361E+03  0.12509000000E+03 0.  0.
         25    1    4    4    0    0 -0.42376337625E+02 -0.25726809400E+02  0.20883915010E+03  0.24843293144E+03  0.12509000000E+03 0.  0.
         25    1    4    4    0    0 -0.12523811603E+02  0.32136743985E+01  0.35376803191E+03  0.37545505998E+03  0.12509000000E+03 0.  0.
<mgrwt>
<rscale>  2 0.45364669E+03</rscale>
<asrwt>0</asrwt>
<pdfrwt beam="1">  1       21 0.20720253E+00 0.45364669E+03</pdfrwt>
<pdfrwt beam="2">  1       21 0.53698559E-02 0.45364669E+03</pdfrwt>
<totfact> 0.25410670E+04</totfact>
</mgrwt>
</event>
<event>
 7    0  0.4732500E-002  0.4413857E+03  0.7546771E-02  0.1030323E+00
         21   -1    0    0  502  501  0.00000000000E+00  0.00000000000E+00  0.59498438605E+02  0.59498438605E+02  0.00000000000E+00 0. -1.
         21   -1    0    0  501  502 -0.00000000000E+00 -0.00000000000E+00 -0.81859838532E+03  0.81859838532E+03  0.00000000000E+00 0. -1.
      99926    2    1    2    0    0  0.00000000000E+00  0.00000000000E+00 -0.75909994671E+03  0.87809682392E+03  0.44138566252E+03 0.  0.
      99925    2    3    3    0    0 -0.28848430074E+02 -0.92413719483E+02 -0.53209319669E+03  0.60141632204E+03  0.26307013320E+03 0.  0.
         25    1    4    4    0    0 -0.35074806676E+02 -0.43269102366E+02 -0.19329705522E+03  0.23688334036E+03  0.12509000000E+03 0.  0.
         25    1    3    3    0    0  0.28848430074E+02  0.92413719483E+02 -0.22700675002E+03  0.27668050188E+03  0.12509000000E+03 0.  0.
         25    1    4    4    0    0  0.62263766026E+01 -0.49144617116E+02 -0.33879614147E+03  0.36453298168E+03  0.12509000000E+03 0.  0.
<mgrwt>
<rscale>  2 0.44138566E+03</rscale>
<asrwt>0</asrwt>
<pdfrwt beam="1">  1       21 0.87497706E-02 0.44138566E+03</pdfrwt>
<pdfrwt beam="2">  1       21 0.12038211E+00 0.44138566E+03</pdfrwt>
<totfact> 0.49237381E+04</totfact>
</mgrwt>
</event>
<event>
 7    0  0.4732500E-002  0.4555741E+03  0.7546771E-02  0.1026073E+00
         21   -1    0    0  502  501  0.00000000000E+00  0.00000000000E+00  0.13576410043E+03  0.13576410043E+03  0.00000000000E+00 0. -1.
         21   -1    0    0  501  502 -0.00000000000E+00 -0.00000000000E+00 -0.38218454183E+03  0.38218454183E+03  0.00000000000E+00 0. -1.
      99926    2    1    2    0    0 -0.14210854715E-13  0.71054273576E-14 -0.24642044140E+03  0.51794864226E+03  0.45557410164E+03 0.  0.
      99925    2    3    3    0    0  0.91832548548E+02 -0.53144459072E+02 -0.10850391444E+03  0.30364505618E+03  0.26300127412E+03 0.  0.
         25    1    4    4    0    0  0.78453476135E+02 -0.26062116967E+02 -0.86472573247E+02  0.17308724934E+03  0.12509000000E+03 0.  0.
         25    1    4    4    0    0  0.13379072413E+02 -0.27082342105E+02 -0.22031341197E+02  0.13055780684E+03  0.12509000000E+03 0.  0.
         25    1    3    3    0    0 -0.91832548548E+02  0.53144459072E+02 -0.13791652695E+03  0.21430358609E+03  0.12509000000E+03 0.  0.
<mgrwt>
<rscale>  2 0.45557410E+03</rscale>
<asrwt>0</asrwt>
<pdfrwt beam="1">  1       21 0.19965309E-01 0.45557410E+03</pdfrwt>
<pdfrwt beam="2">  1       21 0.56203608E-01 0.45557410E+03</pdfrwt>
<totfact> 0.63736426E+04</totfact>
</mgrwt>
</event>
<event>
 7    0  0.4732500E-002  0.4456879E+03  0.7546771E-02  0.1029016E+00
         21   -1    0    0  502  501  0.00000000000E+00  0.00000000000E+00  0.56930278717E+02  0.56930278717E+02  0.00000000000E+00 0.  1.
         21   -1    0    0  501  502 -0.00000000000E+00 -0.00000000000E+00 -0.87228482170E+03  0.87228482170E+03  0.00000000000E+00 0.  1.
      99926    2    1    2    0    0  0.00000000000E+00  0.00000000000E+00 -0.81535454298E+03  0.92921510042E+03  0.44568786396E+03 0.  0.
      99925    2    3    3    0    0 -0.13301169294E+02 -0.31572135160E+02 -0.31210287771E+03  0.40951954769E+03  0.26291506774E+03 0.  0.
         25    1    4    4    0    0 -0.39316333064E+02 -0.39623970893E+01 -0.18823145019E+03  0.22943422059E+03  0.12509000000E+03 0.  0.
         25    1    4    4    0    0  0.26015163770E+02 -0.27609738071E+02 -0.12387142752E+03  0.18008532711E+03  0.12509000000E+03 0.  0.
         25    1    3    3    0    0  0.13301169294E+02  0.31572135160E+02 -0.50325166527E+03  0.51969555272E+03  0.12509000000E+03 0.  0.
<mgrwt>
<rscale>  2 0.44568786E+03</rscale>
<asrwt>0</asrwt>
<pdfrwt beam="1">  1       21 0.83721003E-02 0.44568786E+03</pdfrwt>
<pdfrwt beam="2">  1       21 0.12827717E+00 0.44568786E+03</pdfrwt>
<totfact> 0.45197360E+04</totfact>
</mgrwt>
</event>
<event>
 7    0  0.4732500E-002  0.4546466E+03  0.7546771E-02  0.1026345E+00
         21   -1    0    0  502  501  0.00000000000E+00  0.00000000000E+00  0.88041157754E+03  0.88041157754E+03  0.00000000000E+00 0.  1.
         21   -1    0    0  501  502 -0.00000000000E+00 -0.00000000000E+00 -0.58695147038E+02  0.58695147038E+02  0.00000000000E+00 0.  1.
      99926    2    1    2    0    0  0.00000000000E+00  0.00000000000E+00  0.82171643050E+03  0.93910672458E+03  0.45464661880E+03 0.  0.
      99925    2    3    3    0    0  0.86031463265E+02  0.39515789789E+02  0.64235802623E+03  0.70082148459E+03  0.26374989874E+03 0.  0.
         25    1    3    3    0    0 -0.86031463265E+02 -0.39515789789E+02  0.17935840427E+03  0.23828523999E+03  0.12509000000E+03 0.  0.
         25    1    4    4    0    0  0.36364864909E+01  0.33542443817E+02  0.32363309959E+03  0.34860322836E+03  0.12509000000E+03 0.  0.
         25    1    4    4    0    0  0.82394976774E+02  0.59733459714E+01  0.31872492664E+03  0.35221825623E+03  0.12509000000E+03 0.  0.
<mgrwt>
<rscale>  2 0.45464662E+03</rscale>
<asrwt>0</asrwt>
<pdfrwt beam="1">  1       21 0.12947228E+00 0.45464662E+03</pdfrwt>
<pdfrwt beam="2">  1       21 0.86316398E-02 0.45464662E+03</pdfrwt>
<totfact> 0.41700207E+04</totfact>
</mgrwt>
</event>
<event>
 7    0  0.4732500E-002  0.4484014E+03  0.7546771E-02  0.1028200E+00
         21   -1    0    0  502  501  0.00000000000E+00  0.00000000000E+00  0.72225817790E+02  0.72225817790E+02  0.00000000000E+00 0.  1.
         21   -1    0    0  501  502 -0.00000000000E+00 -0.00000000000E+00 -0.69595537296E+03  0.69595537296E+03  0.00000000000E+00 0.  1.
      99926    2    1    2    0    0  0.17763568394E-14  0.00000000000E+00 -0.62372955517E+03  0.76818119075E+03  0.44840136466E+03 0.  0.
      99925    2    3    3    0    0 -0.13722090322E+02  0.10606333121E+03 -0.39211002832E+03  0.48404594248E+03  0.26289251441E+03 0.  0.
         25    1    3    3    0    0  0.13722090322E+02 -0.10606333121E+03 -0.23161952684E+03  0.28413524826E+03  0.12509000000E+03 0.  0.
         25    1    4    4    0    0 -0.10228557715E+02  0.38096196668E+02 -0.25296288076E+03  0.28494503108E+03  0.12509000000E+03 0.  0.
         25    1    4    4    0    0 -0.34935326065E+01  0.67967134540E+02 -0.13914714756E+03  0.19910091140E+03  0.12509000000E+03 0.  0.
<mgrwt>
<rscale>  2 0.44840136E+03</rscale>
<asrwt>0</asrwt>
<pdfrwt beam="1">  1       21 0.10621444E-01 0.44840136E+03</pdfrwt>
<pdfrwt beam="2">  1       21 0.10234638E+00 0.44840136E+03</pdfrwt>
<totfact> 0.51983240E+04</totfact>
</mgrwt>
</event>
<event>
 7    0  0.4732500E-002  0.4604241E+03  0.7546771E-02  0.1024658E+00
         21   -1    0    0  502  501  0.00000000000E+00  0.00000000000E+00  0.27475649315E+02  0.27475649315E+02  0.00000000000E+00 0.  1.
         21   -1    0    0  501  502 -0.00000000000E+00 -0.00000000000E+00 -0.19288929827E+04  0.19288929827E+04  0.00000000000E+00 0.  1.
      99926    2    1    2    0    0  0.00000000000E+00  0.00000000000E+00 -0.19014173334E+04  0.19563686321E+04  0.46042409650E+03 0.  0.
      99925    2    3    3    0    0  0.99503242235E+02  0.17665058305E+02 -0.93071354666E+03  0.97243453912E+03  0.26303664657E+03 0.  0.
         25    1    4    4    0    0  0.69176054974E+02 -0.12551805040E+02 -0.58392631835E+03  0.60129886725E+03  0.12509000000E+03 0.  0.
         25    1    3    3    0    0 -0.99503242235E+02 -0.17665058305E+02 -0.97070378676E+03  0.98393409293E+03  0.12509000000E+03 0.  0.
         25    1    4    4    0    0  0.30327187261E+02  0.30216863345E+02 -0.34678722831E+03  0.37113567187E+03  0.12509000000E+03 0.  0.
<mgrwt>
<rscale>  2 0.46042410E+03</rscale>
<asrwt>0</asrwt>
<pdfrwt beam="1">  1       21 0.40405365E-02 0.46042410E+03</pdfrwt>
<pdfrwt beam="2">  1       21 0.28366075E+00 0.46042410E+03</pdfrwt>
<totfact> 0.13843559E+04</totfact>
</mgrwt>
</event>
<event>
 7    0  0.4732500E-002  0.4516233E+03  0.7546771E-02  0.1027239E+00
         21   -1    0    0  502  501  0.00000000000E+00  0.00000000000E+00  0.11466755753E+03  0.11466755753E+03  0.00000000000E+00 0. -1.
         21   -1    0    0  501  502 -0.00000000000E+00 -0.00000000000E+00 -0.44468458866E+03  0.44468458866E+03  0.00000000000E+00 0. -1.
      99926    2    1    2    0    0  0.00000000000E+00  0.00000000000E+00 -0.33001703113E+03  0.55935214619E+03  0.45162327510E+03 0.  0.
      99925    2    3    3    0    0 -0.75845762283E+02 -0.78128862832E+02 -0.18942376583E+03  0.34193394729E+03  0.26302236100E+03 0.  0.
         25    1    4    4    0    0  0.29012812323E+01 -0.45776764475E+02 -0.83655153195E+02  0.15732012699E+03  0.12509000000E+03 0.  0.
         25    1    3    3    0    0  0.75845762283E+02  0.78128862832E+02 -0.14059326530E+03  0.21741819890E+03  0.12509000000E+03 0.  0.
         25    1    4    4    0    0 -0.78747043515E+02 -0.32352098357E+02 -0.10576861263E+03  0.18461382031E+03  0.12509000000E+03 0.  0.
<mgrwt>
<rscale>  2 0.45162328E+03</rscale>
<asrwt>0</asrwt>
<pdfrwt beam="1">  1       21 0.16862876E-01 0.45162328E+03</pdfrwt>
<pdfrwt beam="2">  1       21 0.65394791E-01 0.45162328E+03</pdfrwt>
<totfact> 0.62916431E+04</totfact>
</mgrwt>
</event>
<event>
 7    0  0.4732500E-002  0.4512898E+03  0.7546771E-02  0.1027338E+00
         21   -1    0    0  502  501  0.00000000000E+00  0.00000000000E+00  0.10003348650E+03  0.10003348650E+03  0.00000000000E+00 0.  1.
         21   -1    0    0  501  502 -0.00000000000E+00 -0.00000000000E+00 -0.50898585944E+03  0.50898585944E+03  0.00000000000E+00 0.  1.
      99926    2    1    2    0    0  0.00000000000E+00  0.00000000000E+00 -0.40895237293E+03  0.60901934594E+03  0.45128984079E+03 0.  0.
      99925    2    3    3    0    0 -0.25061177490E+02 -0.92886127578E+02 -0.18736930837E+03  0.33698541807E+03  0.26305136182E+03 0.  0.
         25    1    4    4    0    0 -0.11123288891E+02 -0.40820813816E+02 -0.43900561517E+02  0.13915758620E+03  0.12509000000E+03 0.  0.
         25    1    4    4    0    0 -0.13937888600E+02 -0.52065313762E+02 -0.14346874685E+03  0.19782783186E+03  0.12509000000E+03 0.  0.
         25    1    3    3    0    0  0.25061177490E+02  0.92886127578E+02 -0.22158306456E+03  0.27203392787E+03  0.12509000000E+03 0.  0.
<mgrwt>
<rscale>  2 0.45128984E+03</rscale>
<asrwt>0</asrwt>
<pdfrwt beam="1">  1       21 0.14710807E-01 0.45128984E+03</pdfrwt>
<pdfrwt beam="2">  1       21 0.74850861E-01 0.45128984E+03</pdfrwt>
<totfact> 0.59861655E+04</totfact>
</mgrwt>
</event>
<event>
 7    0  0.4732500E-002  0.4573172E+03  0.7546771E-02  0.1025562E+00
         21   -1    0    0  502  501  0.00000000000E+00  0.00000000000E+00  0.70494193383E+02  0.70494193383E+02  0.00000000000E+00 0.  1.
         21   -1    0    0  501  502 -0.00000000000E+00 -0.00000000000E+00 -0.74168897545E+03  0.74168897545E+03  0.00000000000E+00 0.  1.
      99926    2    1    2    0    0  0.00000000000E+00  0.88817841970E-15 -0.67119478206E+03  0.81218316883E+03  0.45731724684E+03 0.  0.
      99925    2    3    3    0    0  0.73372385453E+02 -0.69972405756E+01 -0.26365572121E+03  0.37955392508E+03  0.26289612853E+03 0.  0.
         25    1    4    4    0    0  0.34418671637E+02 -0.21324843688E+01 -0.18723525460E+03  0.22780197785E+03  0.12509000000E+03 0.  0.
         25    1    3    3    0    0 -0.73372385453E+02  0.69972405756E+01 -0.40753906085E+03  0.43262924375E+03  0.12509000000E+03 0.  0.
         25    1    4    4    0    0  0.38953713816E+02 -0.48647562068E+01 -0.76420466614E+02  0.15175194724E+03  0.12509000000E+03 0.  0.
<mgrwt>
<rscale>  2 0.45731725E+03</rscale>
<asrwt>0</asrwt>
<pdfrwt beam="1">  1       21 0.10366793E-01 0.45731725E+03</pdfrwt>
<pdfrwt beam="2">  1       21 0.10907190E+00 0.45731725E+03</pdfrwt>
<totfact> 0.46332901E+04</totfact>
</mgrwt>
</event>
<event>
 7    0  0.4732500E-002  0.4548037E+03  0.7546771E-02  0.1026299E+00
         21   -1    0    0  502  501  0.00000000000E+00  0.00000000000E+00  0.91019266821E+03  0.91019266821E+03  0.00000000000E+00 0.  1.
         21   -1    0    0  501  502 -0.00000000000E+00 -0.00000000000E+00 -0.56813919107E+02  0.56813919107E+02  0.00000000000E+00 0.  1.
      99926    2    1    2    0    0  0.35527136788E-14  0.00000000000E+00  0.85337874910E+03  0.96700658732E+03  0.45480374943E+03 0.  0.
      99925    2    3    3    0    0 -0.17851728711E+02  0.65941853847E+02  0.72834816399E+03  0.77740920437E+03  0.26307225384E+03 0.  0.
         25    1    3    3    0    0  0.17851728711E+02 -0.65941853847E+02  0.12503058511E+03  0.18959738294E+03  0.12509000000E+03 0.  0.
         25    1    4    4    0    0 -0.40497345399E+02  0.93229830298E+01  0.38458356114E+03  0.40654517165E+03  0.12509000000E+03 0.  0.
         25    1    4    4    0    0  0.22645616688E+02  0.56618870817E+02  0.34376460285E+03  0.37086403272E+03  0.12509000000E+03 0.  0.
<mgrwt>
<rscale>  2 0.45480375E+03</rscale>
<asrwt>0</asrwt>
<pdfrwt beam="1">  1       21 0.13385185E+00 0.45480375E+03</pdfrwt>
<pdfrwt beam="2">  1       21 0.83549887E-02 0.45480375E+03</pdfrwt>
<totfact> 0.40521892E+04</totfact>
</mgrwt>
</event>
<event>
 7    0  0.4732500E-002  0.4537538E+03  0.7546771E-02  0.1026609E+00
         21   -1    0    0  502  501  0.00000000000E+00  0.00000000000E+00  0.99001811321E+02  0.99001811321E+02  0.00000000000E+00 0. -1.
         21   -1    0    0  501  502 -0.00000000000E+00 -0.00000000000E+00 -0.51992101783E+03  0.51992101783E+03  0.00000000000E+00 0. -1.
      99926    2    1    2    0    0  0.22204460493E-15 -0.14210854715E-13 -0.42091920651E+03  0.61892282915E+03  0.45375377688E+03 0.  0.
      99925    2    3    3    0    0  0.75567428041E+00  0.11172925570E+03 -0.27043969852E+03  0.39358843753E+03  0.26323037438E+03 0.  0.
         25    1    4    4    0    0 -0.22590111613E+02  0.89705042989E+02 -0.12942959064E+03  0.20237795066E+03  0.12509000000E+03 0.  0.
         25    1    4    4    0    0  0.23345785893E+02  0.22024212709E+02 -0.14101010787E+03  0.19121048687E+03  0.12509000000E+03 0.  0.
         25    1    3    3    0    0 -0.75567428041E+00 -0.11172925570E+03 -0.15047950799E+03  0.22533439162E+03  0.12509000000E+03 0.  0.
<mgrwt>
<rscale>  2 0.45375378E+03</rscale>
<asrwt>0</asrwt>
<pdfrwt beam="1">  1       21 0.14559090E-01 0.45375378E+03</pdfrwt>
<pdfrwt beam="2">  1       21 0.76458971E-01 0.45375378E+03</pdfrwt>
<totfact> 0.58098020E+04</totfact>
</mgrwt>
</event>
<event>
 6    0  0.4732500E-002  0.4403668E+03  0.7546771E-02  0.1030634E+00
         21   -1    0    0  502  501  0.00000000000E+00  0.00000000000E+00  0.13868776437E+04  0.13868776437E+04  0.00000000000E+00 0.  1.
         21   -1    0    0  501  502 -0.00000000000E+00 -0.00000000000E+00 -0.34956750246E+02  0.34956750246E+02  0.00000000000E+00 0.  1.
      99926    2    1    2    0    0  0.71054273576E-14  0.00000000000E+00  0.13519208934E+04  0.14218343939E+04  0.44036682623E+03 0.  0.
         25    1    3    3    0    0  0.49355315908E+02  0.24986823741E+02  0.45826091596E+03  0.47823724631E+03  0.12509000000E+03 0.  0.
         25    1    3    3    0    0 -0.14688561316E+02  0.10436730703E+02  0.67595684172E+03  0.68766986204E+03  0.12509000000E+03 0.  0.
         25    1    3    3    0    0 -0.34666754592E+02 -0.35423554444E+02  0.21770313574E+03  0.25592728556E+03  0.12509000000E+03 0.  0.
<mgrwt>
<rscale>  2 0.44036683E+03</rscale>
<asrwt>0</asrwt>
<pdfrwt beam="1">  1       21 0.20395256E+00 0.44036683E+03</pdfrwt>
<pdfrwt beam="2">  1       21 0.51406995E-02 0.44036683E+03</pdfrwt>
<totfact> 0.28905716E+04</totfact>
</mgrwt>
</event>
<event>
 7    0  0.4732500E-002  0.4413766E+03  0.7546771E-02  0.1030325E+00
         21   -1    0    0  502  501  0.00000000000E+00  0.00000000000E+00  0.23057438163E+03  0.23057438163E+03  0.00000000000E+00 0.  1.
         21   -1    0    0  501  502 -0.00000000000E+00 -0.00000000000E+00 -0.21122611852E+03  0.21122611852E+03  0.00000000000E+00 0.  1.
      99926    2    1    2    0    0  0.00000000000E+00  0.00000000000E+00  0.19348263111E+02  0.44180050014E+03  0.44137662675E+03 0.  0.
      99925    2    3    3    0    0 -0.85325678405E+02  0.42885033600E+02 -0.16221017807E+02  0.28045528222E+03  0.26319659269E+03 0.  0.
         25    1    4    4    0    0 -0.19831060241E+02  0.54193151892E+02  0.98803875277E+00  0.13776303199E+03  0.12509000000E+03 0.  0.
         25    1    4    4    0    0 -0.65494618165E+02 -0.11308118293E+02 -0.17209056560E+02  0.14269225023E+03  0.12509000000E+03 0.  0.
         25    1    3    3    0    0  0.85325678405E+02 -0.42885033600E+02  0.35569280918E+02  0.16134521792E+03  0.12509000000E+03 0.  0.
<mgrwt>
<rscale>  2 0.44137663E+03</rscale>
<asrwt>0</asrwt>
<pdfrwt beam="1">  1       21 0.33907997E-01 0.44137663E+03</pdfrwt>
<pdfrwt beam="2">  1       21 0.31062664E-01 0.44137663E+03</pdfrwt>
<totfact> 0.77624593E+04</totfact>
</mgrwt>
</event>
<event>
 7    0  0.4732500E-002  0.4552834E+03  0.7546771E-02  0.1026158E+00
         21   -1    0    0  502  501  0.00000000000E+00  0.00000000000E+00  0.84205537404E+03  0.84205537404E+03  0.00000000000E+00 0. -1.
         21   -1    0    0  501  502 -0.00000000000E+00 -0.00000000000E+00 -0.61540772216E+02  0.61540772216E+02  0.00000000000E+00 0. -1.
      99926    2    1    2    0    0  0.00000000000E+00  0.00000000000E+00  0.78051460182E+03  0.90359614625E+03  0.45528337535E+03 0.  0.
      99925    2    3    3    0    0 -0.96139050026E+02 -0.53417837631E+02  0.43451970278E+03  0.51959593717E+03  0.26282386402E+03 0.  0.
         25    1    4    4    0    0 -0.66137991460E+02 -0.29289261454E+02  0.29385053910E+03  0.32745647372E+03  0.12509000000E+03 0.  0.
         25    1    3    3    0    0  0.96139050026E+02  0.53417837631E+02  0.34599489904E+03  0.38400020908E+03  0.12509000000E+03 0.  0.
         25    1    4    4    0    0 -0.30001058565E+02 -0.24128576177E+02  0.14066916368E+03  0.19213946345E+03  0.12509000000E+03 0.  0.
<mgrwt>
<rscale>  2 0.45528338E+03</rscale>
<asrwt>0</asrwt>
<pdfrwt beam="1">  1       21 0.12383167E+00 0.45528338E+03</pdfrwt>
<pdfrwt beam="2">  1       21 0.90501141E-02 0.45528338E+03</pdfrwt>
<totfact> 0.42983141E+04</totfact>
</mgrwt>
</event>
<event>
 7    0  0.4732500E-002  0.4568706E+03  0.7546771E-02  0.1025693E+00
         21   -1    0    0  502  501  0.00000000000E+00  0.00000000000E+00  0.10585596782E+04  0.10585596782E+04  0.00000000000E+00 0.  1.
         21   -1    0    0  501  502 -0.00000000000E+00 -0.00000000000E+00 -0.49295932359E+02  0.49295932359E+02  0.00000000000E+00 0.  1.
      99926    2    1    2    0    0  0.00000000000E+00  0.88817841970E-15  0.10092637459E+04  0.11078556106E+04  0.45687060005E+03 0.  0.
      99925    2    3    3    0    0  0.11238035445E+03  0.70410837485E+01  0.68867754129E+03  0.74577558685E+03  0.26310748590E+03 0.  0.
         25    1    4    4    0    0  0.49635844989E+02  0.43698189349E+02  0.34585790368E+03  0.37368228015E+03  0.12509000000E+03 0.  0.
         25    1    3    3    0    0 -0.11238035445E+03 -0.70410837485E+01  0.32058620459E+03  0.36208002375E+03  0.12509000000E+03 0.  0.
         25    1    4    4    0    0  0.62744509457E+02 -0.36657105601E+02  0.34281963760E+03  0.37209330669E+03  0.12509000000E+03 0.  0.
<mgrwt>
<rscale>  2 0.45687060E+03</rscale>
<asrwt>0</asrwt>
<pdfrwt beam="1">  1       21 0.15567053E+00 0.45687060E+03</pdfrwt>
<pdfrwt beam="2">  1       21 0.72494025E-02 0.45687060E+03</pdfrwt>
<totfact> 0.34711856E+04</totfact>
</mgrwt>
</event>
<event>
 7    0  0.4732500E-002  0.4547441E+03  0.7546771E-02  0.1026317E+00
         21   -1    0    0  502  501  0.00000000000E+00  0.00000000000E+00  0.41016884616E+02  0.41016884616E+02  0.00000000000E+00 0. -1.
         21   -1    0    0  501  502 -0.00000000000E+00 -0.00000000000E+00 -0.12604089205E+04  0.12604089205E+04  0.00000000000E+00 0. -1.
      99926    2    1    2    0    0  0.14210854715E-13 -0.14210854715E-13 -0.12193920358E+04  0.13014258051E+04  0.45474409181E+03 0.  0.
      99925    2    3    3    0    0  0.85976191539E+02 -0.66182899278E+02 -0.67944036350E+03  0.73665381725E+03  0.26314930599E+03 0.  0.
         25    1    3    3    0    0 -0.85976191539E+02  0.66182899278E+02 -0.53995167235E+03  0.56477198783E+03  0.12509000000E+03 0.  0.
         25    1    4    4    0    0  0.23342916118E+02  0.55189073757E+01 -0.31232572176E+03  0.33729840593E+03  0.12509000000E+03 0.  0.
         25    1    4    4    0    0  0.62633275421E+02 -0.71701806653E+02 -0.36711464174E+03  0.39935541132E+03  0.12509000000E+03 0.  0.
<mgrwt>
<rscale>  2 0.45474409E+03</rscale>
<asrwt>0</asrwt>
<pdfrwt beam="1">  1       21 0.60318958E-02 0.45474409E+03</pdfrwt>
<pdfrwt beam="2">  1       21 0.18535422E+00 0.45474409E+03</pdfrwt>
<totfact> 0.29131243E+04</totfact>
</mgrwt>
</event>
<event>
 7    0  0.4732500E-002  0.4539614E+03  0.7546771E-02  0.1026547E+00
         21   -1    0    0  502  501  0.00000000000E+00  0.00000000000E+00  0.11864773029E+03  0.11864773029E+03  0.00000000000E+00 0. -1.
         21   -1    0    0  501  502 -0.00000000000E+00 -0.00000000000E+00 -0.43422867525E+03  0.43422867525E+03  0.00000000000E+00 0. -1.
      99926    2    1    2    0    0  0.00000000000E+00 -0.35527136788E-14 -0.31558094497E+03  0.55287640554E+03  0.45396143777E+03 0.  0.
      99925    2    3    3    0    0  0.85882117211E+02 -0.26524219493E+02 -0.28056923729E+03  0.39491248545E+03  0.26297813973E+03 0.  0.
         25    1    3    3    0    0 -0.85882117211E+02  0.26524219493E+02 -0.35011707680E+02  0.15796392009E+03  0.12509000000E+03 0.  0.
         25    1    4    4    0    0  0.49345297407E+01 -0.39427094845E+01 -0.15088507737E+03  0.19609617338E+03  0.12509000000E+03 0.  0.
         25    1    4    4    0    0  0.80947587471E+02 -0.22581510008E+02 -0.12968415991E+03  0.19881631207E+03  0.12509000000E+03 0.  0.
<mgrwt>
<rscale>  2 0.45396144E+03</rscale>
<asrwt>0</asrwt>
<pdfrwt beam="1">  1       21 0.17448196E-01 0.45396144E+03</pdfrwt>
<pdfrwt beam="2">  1       21 0.63857158E-01 0.45396144E+03</pdfrwt>
<totfact> 0.62186209E+04</totfact>
</mgrwt>
</event>
<event>
 7    0  0.4732500E-002  0.4506857E+03  0.7546771E-02  0.1027518E+00
         21   -1    0    0  502  501  0.00000000000E+00  0.00000000000E+00  0.33466562059E+03  0.33466562059E+03  0.00000000000E+00 0.  1.
         21   -1    0    0  501  502 -0.00000000000E+00 -0.00000000000E+00 -0.15173175052E+03  0.15173175052E+03  0.00000000000E+00 0.  1.
      99926    2    1    2    0    0  0.35527136788E-14  0.14210854715E-13  0.18293387007E+03  0.48639737111E+03  0.45068570179E+03 0.  0.
      99925    2    3    3    0    0  0.28817631227E+02  0.97741009374E+02  0.73673246420E+02  0.29154062177E+03  0.26302932559E+03 0.  0.
         25    1    4    4    0    0  0.33751714152E+02  0.78681021258E+02  0.64005876391E+02  0.16454221837E+03  0.12509000000E+03 0.  0.
         25    1    3    3    0    0 -0.28817631227E+02 -0.97741009374E+02  0.10926062365E+03  0.19485674934E+03  0.12509000000E+03 0.  0.
         25    1    4    4    0    0 -0.49340829246E+01  0.19059988116E+02  0.96673700286E+01  0.12699840339E+03  0.12509000000E+03 0.  0.
<mgrwt>
<rscale>  2 0.45068570E+03</rscale>
<asrwt>0</asrwt>
<pdfrwt beam="1">  1       21 0.49215532E-01 0.45068570E+03</pdfrwt>
<pdfrwt beam="2">  1       21 0.22313493E-01 0.45068570E+03</pdfrwt>
<totfact> 0.68555371E+04</totfact>
</mgrwt>
</event>
<event>
 7    0  0.4732500E-002  0.4584865E+03  0.7546771E-02  0.1025221E+00
         21   -1    0    0  502  501  0.00000000000E+00  0.00000000000E+00  0.17894020420E+03  0.17894020420E+03  0.00000000000E+00 0.  1.
         21   -1    0    0  501  502 -0.00000000000E+00 -0.00000000000E+00 -0.29368725986E+03  0.29368725986E+03  0.00000000000E+00 0.  1.
      99926    2    1    2    0    0  0.00000000000E+00  0.00000000000E+00 -0.11474705566E+03  0.47262746406E+03  0.45848645890E+03 0.  0.
      99925    2    3    3    0    0  0.62856761856E+02  0.97361035727E+02 -0.86588048292E+02  0.29979638588E+03  0.26258377537E+03 0.  0.
         25    1    3    3    0    0 -0.62856761856E+02 -0.97361035727E+02 -0.28159007367E+02  0.17283107818E+03  0.12509000000E+03 0.  0.
         25    1    4    4    0    0  0.52062858648E+02  0.42490197215E+02 -0.88839754585E+01  0.14227575770E+03  0.12509000000E+03 0.  0.
         25    1    4    4    0    0  0.10793903208E+02  0.54870838512E+02 -0.77704072833E+02  0.15752062817E+03  0.12509000000E+03 0.  0.
<mgrwt>
<rscale>  2 0.45848646E+03</rscale>
<asrwt>0</asrwt>
<pdfrwt beam="1">  1       21 0.26314736E-01 0.45848646E+03</pdfrwt>
<pdfrwt beam="2">  1       21 0.43189302E-01 0.45848646E+03</pdfrwt>
<totfact> 0.65412796E+04</totfact>
</mgrwt>
</event>
<event>
 7    0  0.4732500E-002  0.4588424E+03  0.7546771E-02  0.1025117E+00
         21   -1    0    0  502  501  0.00000000000E+00  0.00000000000E+00  0.14469923337E+03  0.14469923337E+03  0.00000000000E+00 0. -1.
         21   -1    0    0  501  502 -0.00000000000E+00 -0.00000000000E+00 -0.36374828175E+03  0.36374828175E+03  0.00000000000E+00 0. -1.
      99926    2    1    2    0    0  0.00000000000E+00  0.71054273576E-14 -0.21904904838E+03  0.50844751512E+03  0.45884244576E+03 0.  0.
      99925    2    3    3    0    0  0.88384177484E+02 -0.60133821262E+02 -0.18917169599E+03  0.34121114475E+03  0.26308035929E+03 0.  0.
         25    1    3    3    0    0 -0.88384177484E+02  0.60133821262E+02 -0.29877352395E+02  0.16723637037E+03  0.12509000000E+03 0.  0.
         25    1    4    4    0    0  0.59256847975E+02 -0.67930443118E+01 -0.13020702550E+03  0.19015492913E+03  0.12509000000E+03 0.  0.
         25    1    4    4    0    0  0.29127329508E+02 -0.53340776950E+02 -0.58964670487E+02  0.15105621561E+03  0.12509000000E+03 0.  0.
<mgrwt>
<rscale>  2 0.45884245E+03</rscale>
<asrwt>0</asrwt>
<pdfrwt beam="1">  1       21 0.21279299E-01 0.45884245E+03</pdfrwt>
<pdfrwt beam="2">  1       21 0.53492394E-01 0.45884245E+03</pdfrwt>
<totfact> 0.62745635E+04</totfact>
</mgrwt>
</event>
<event>
 7    0  0.4732500E-002  0.4760298E+03  0.7546771E-02  0.1020232E+00
         21   -1    0    0  502  501  0.00000000000E+00  0.00000000000E+00  0.49234409561E+03  0.49234409561E+03  0.00000000000E+00 0. -1.
         21   -1    0    0  501  502 -0.00000000000E+00 -0.00000000000E+00 -0.11506399973E+03  0.11506399973E+03  0.00000000000E+00 0. -1.
      99926    2    1    2    0    0  0.00000000000E+00  0.00000000000E+00  0.37728009589E+03  0.60740809534E+03  0.47602975068E+03 0.  0.
      99925    2    3    3    0    0 -0.10813855910E+03  0.71746646553E+02  0.26338653022E+03  0.39419275430E+03  0.26300938003E+03 0.  0.
         25    1    4    4    0    0 -0.93381381934E+02  0.28753130294E+02  0.16273844350E+03  0.22732825184E+03  0.12509000000E+03 0.  0.
         25    1    3    3    0    0  0.10813855910E+03 -0.71746646553E+02  0.11389356567E+03  0.21321534105E+03  0.12509000000E+03 0.  0.
         25    1    4    4    0    0 -0.14757177168E+02  0.42993516259E+02  0.10064808672E+03  0.16686450245E+03  0.12509000000E+03 0.  0.
<mgrwt>
<rscale>  2 0.47602975E+03</rscale>
<asrwt>0</asrwt>
<pdfrwt beam="1">  1       21 0.72403543E-01 0.47602975E+03</pdfrwt>
<pdfrwt beam="2">  1       21 0.16921177E-01 0.47602975E+03</pdfrwt>
<totfact> 0.49477337E+04</totfact>
</mgrwt>
</event>
<event>
 7    0  0.4732500E-002  0.4480450E+03  0.7546771E-02  0.1028307E+00
         21   -1    0    0  502  501  0.00000000000E+00  0.00000000000E+00  0.91014254365E+03  0.91014254365E+03  0.00000000000E+00 0. -1.
         21   -1    0    0  501  502 -0.00000000000E+00 -0.00000000000E+00 -0.55140896105E+02  0.55140896105E+02  0.00000000000E+00 0. -1.
      99926    2    1    2    0    0  0.00000000000E+00  0.00000000000E+00  0.85500164755E+03  0.96528343976E+03  0.44804497739E+03 0.  0.
      99925    2    3    3    0    0 -0.63988253906E+02 -0.21164129566E+02  0.71962956610E+03  0.76902971227E+03  0.26267388322E+03 0.  0.
         25    1    3    3    0    0  0.63988253906E+02  0.21164129566E+02  0.13537208145E+03  0.19625372749E+03  0.12509000000E+03 0.  0.
         25    1    4    4    0    0 -0.47018958410E+02 -0.34541753344E+01  0.26416018891E+03  0.29605882402E+03  0.12509000000E+03 0.  0.
         25    1    4    4    0    0 -0.16969295496E+02 -0.17709954232E+02  0.45546937719E+03  0.47297088824E+03  0.12509000000E+03 0.  0.
<mgrwt>
<rscale>  2 0.44804498E+03</rscale>
<asrwt>0</asrwt>
<pdfrwt beam="1">  1       21 0.13384448E+00 0.44804498E+03</pdfrwt>
<pdfrwt beam="2">  1       21 0.81089559E-02 0.44804498E+03</pdfrwt>
<totfact> 0.42808911E+04</totfact>
</mgrwt>
</event>
<event>
 7    0  0.4732500E-002  0.4449248E+03  0.7546771E-02  0.1029246E+00
         21   -1    0    0  502  501  0.00000000000E+00  0.00000000000E+00  0.50418288647E+03  0.50418288647E+03  0.00000000000E+00 0.  1.
         21   -1    0    0  501  502 -0.00000000000E+00 -0.00000000000E+00 -0.98157893083E+02  0.98157893083E+02  0.00000000000E+00 0.  1.
      99926    2    1    2    0    0  0.17763568394E-14  0.00000000000E+00  0.40602499339E+03  0.60234077956E+03  0.44492484698E+03 0.  0.
      99925    2    3    3    0    0  0.10909395539E+02  0.88175804539E+02  0.18611368127E+03  0.33419440028E+03  0.26297073489E+03 0.  0.
         25    1    3    3    0    0 -0.10909395539E+02 -0.88175804539E+02  0.21991131212E+03  0.26814637927E+03  0.12509000000E+03 0.  0.
         25    1    4    4    0    0 -0.25617130853E+01  0.30946065380E+02  0.44611819587E+02  0.13638894341E+03  0.12509000000E+03 0.  0.
         25    1    4    4    0    0  0.13471108625E+02  0.57229739158E+02  0.14150186168E+03  0.19780545688E+03  0.12509000000E+03 0.  0.
<mgrwt>
<rscale>  2 0.44492485E+03</rscale>
<asrwt>0</asrwt>
<pdfrwt beam="1">  1       21 0.74144541E-01 0.44492485E+03</pdfrwt>
<pdfrwt beam="2">  1       21 0.14434985E-01 0.44492485E+03</pdfrwt>
<totfact> 0.63434853E+04</totfact>
</mgrwt>
</event>
<event>
 6    0  0.4732500E-002  0.4461263E+03  0.7546771E-02  0.1028884E+00
         21   -1    0    0  502  501  0.00000000000E+00  0.00000000000E+00  0.10666919381E+04  0.10666919381E+04  0.00000000000E+00 0. -1.
         21   -1    0    0  501  502 -0.00000000000E+00 -0.00000000000E+00 -0.46646232093E+02  0.46646232093E+02  0.00000000000E+00 0. -1.
      99926    2    1    2    0    0  0.00000000000E+00 -0.14210854715E-13  0.10200457060E+04  0.11133381702E+04  0.44612625889E+03 0.  0.
         25    1    3    3    0    0  0.45811538372E+02 -0.64436528505E+02  0.47090223709E+03  0.49360630897E+03  0.12509000000E+03 0.  0.
         25    1    3    3    0    0 -0.70429989811E+02  0.69183056502E+02  0.31922945490E+03  0.35679354219E+03  0.12509000000E+03 0.  0.
         25    1    3    3    0    0  0.24618451438E+02 -0.47465279973E+01  0.22991401404E+03  0.26293831906E+03  0.12509000000E+03 0.  0.
<mgrwt>
<rscale>  2 0.44612626E+03</rscale>
<asrwt>0</asrwt>
<pdfrwt beam="1">  1       21 0.15686645E+00 0.44612626E+03</pdfrwt>
<pdfrwt beam="2">  1       21 0.68597407E-02 0.44612626E+03</pdfrwt>
<totfact> 0.37562518E+04</totfact>
</mgrwt>
</event>
<event>
 7    0  0.4732500E-002  0.4526328E+03  0.7546771E-02  0.1026940E+00
         21   -1    0    0  502  501  0.00000000000E+00  0.00000000000E+00  0.16599853419E+03  0.16599853419E+03  0.00000000000E+00 0.  1.
         21   -1    0    0  501  502 -0.00000000000E+00 -0.00000000000E+00 -0.30855163585E+03  0.30855163585E+03  0.00000000000E+00 0.  1.
      99926    2    1    2    0    0  0.00000000000E+00  0.14210854715E-13 -0.14255310167E+03  0.47455017004E+03  0.45263282812E+03 0.  0.
      99925    2    3    3    0    0  0.23070686777E+02 -0.10038119297E+03 -0.13309939098E+03  0.31223713533E+03  0.26299798537E+03 0.  0.
         25    1    3    3    0    0 -0.23070686777E+02  0.10038119297E+03 -0.94537106831E+01  0.16231303471E+03  0.12509000000E+03 0.  0.
         25    1    4    4    0    0 -0.18520130649E+02 -0.21175919111E+02 -0.69257887749E+02  0.14572432160E+03  0.12509000000E+03 0.  0.
         25    1    4    4    0    0  0.41590817426E+02 -0.79205273861E+02 -0.63841503235E+02  0.16651281373E+03  0.12509000000E+03 0.  0.
<mgrwt>
<rscale>  2 0.45263283E+03</rscale>
<asrwt>0</asrwt>
<pdfrwt beam="1">  1       21 0.24411549E-01 0.45263283E+03</pdfrwt>
<pdfrwt beam="2">  1       21 0.45375240E-01 0.45263283E+03</pdfrwt>
<totfact> 0.68374502E+04</totfact>
</mgrwt>
</event>
<event>
 7    0  0.4732500E-002  0.4534474E+03  0.7546771E-02  0.1026699E+00
         21   -1    0    0  502  501  0.00000000000E+00  0.00000000000E+00  0.11873201436E+03  0.11873201436E+03  0.00000000000E+00 0. -1.
         21   -1    0    0  501  502 -0.00000000000E+00 -0.00000000000E+00 -0.43293832666E+03  0.43293832666E+03  0.00000000000E+00 0. -1.
      99926    2    1    2    0    0  0.00000000000E+00  0.71054273576E-14 -0.31420631230E+03  0.55167034102E+03  0.45344741534E+03 0.  0.
      99925    2    3    3    0    0  0.73491841971E+01 -0.61426804622E+02 -0.84846506694E+02  0.28319186635E+03  0.26300463995E+03 0.  0.
         25    1    4    4    0    0 -0.23127194160E+01 -0.38538886574E+02 -0.84208196534E+02  0.15565706830E+03  0.12509000000E+03 0.  0.
         25    1    4    4    0    0  0.96619036131E+01 -0.22887918048E+02 -0.63831016025E+00  0.12753479805E+03  0.12509000000E+03 0.  0.
         25    1    3    3    0    0 -0.73491841971E+01  0.61426804622E+02 -0.22935980560E+03  0.26847847467E+03  0.12509000000E+03 0.  0.
<mgrwt>
<rscale>  2 0.45344742E+03</rscale>
<asrwt>0</asrwt>
<pdfrwt beam="1">  1       21 0.17460590E-01 0.45344742E+03</pdfrwt>
<pdfrwt beam="2">  1       21 0.63667403E-01 0.45344742E+03</pdfrwt>
<totfact> 0.62520700E+04</totfact>
</mgrwt>
</event>
<event>
 7    0  0.4732500E-002  0.4547563E+03  0.7546771E-02  0.1026313E+00
         21   -1    0    0  502  501  0.00000000000E+00  0.00000000000E+00  0.32144986969E+03  0.32144986969E+03  0.00000000000E+00 0. -1.
         21   -1    0    0  501  502 -0.00000000000E+00 -0.00000000000E+00 -0.16083635895E+03  0.16083635895E+03  0.00000000000E+00 0. -1.
      99926    2    1    2    0    0  0.00000000000E+00 -0.35527136788E-14  0.16061351074E+03  0.48228622864E+03  0.45475631552E+03 0.  0.
      99925    2    3    3    0    0  0.90741512378E+02  0.30975630232E+02  0.37767136444E+02  0.28245567163E+03  0.26298543325E+03 0.  0.
         25    1    4    4    0    0  0.50868810445E+02 -0.22866105606E+02  0.62907721010E+01  0.13710425440E+03  0.12509000000E+03 0.  0.
         25    1    3    3    0    0 -0.90741512378E+02 -0.30975630232E+02  0.12284637429E+03  0.19983055701E+03  0.12509000000E+03 0.  0.
         25    1    4    4    0    0  0.39872701933E+02  0.53841735838E+02  0.31476364343E+02  0.14535141723E+03  0.12509000000E+03 0.  0.
<mgrwt>
<rscale>  2 0.45475632E+03</rscale>
<asrwt>0</asrwt>
<pdfrwt beam="1">  1       21 0.47272040E-01 0.45475632E+03</pdfrwt>
<pdfrwt beam="2">  1       21 0.23652406E-01 0.45475632E+03</pdfrwt>
<totfact> 0.66662911E+04</totfact>
</mgrwt>
</event>
<event>
 7    0  0.4732500E-002  0.4535033E+03  0.7546771E-02  0.1026682E+00
         21   -1    0    0  502  501  0.00000000000E+00  0.00000000000E+00  0.14442002252E+04  0.14442002252E+04  0.00000000000E+00 0. -1.
         21   -1    0    0  501  502 -0.00000000000E+00 -0.00000000000E+00 -0.35601925205E+02  0.35601925205E+02  0.00000000000E+00 0. -1.
      99926    2    1    2    0    0  0.00000000000E+00  0.35527136788E-14  0.14085982999E+04  0.14798021504E+04  0.45350328950E+03 0.  0.
      99925    2    3    3    0    0 -0.95113858455E+02 -0.31343705620E+02  0.10498615212E+04  0.10869043793E+04  0.26291223281E+03 0.  0.
         25    1    4    4    0    0 -0.13555200252E+02 -0.36892861516E+02  0.45031499321E+03  0.46901591433E+03  0.12509000000E+03 0.  0.
         25    1    3    3    0    0  0.95113858455E+02  0.31343705620E+02  0.35873677880E+03  0.39289777107E+03  0.12509000000E+03 0.  0.
         25    1    4    4    0    0 -0.81558658203E+02  0.55491558962E+01  0.59954652794E+03  0.61788846495E+03  0.12509000000E+03 0.  0.
<mgrwt>
<rscale>  2 0.45350329E+03</rscale>
<asrwt>0</asrwt>
<pdfrwt beam="1">  1       21 0.21238235E+00 0.45350329E+03</pdfrwt>
<pdfrwt beam="2">  1       21 0.52355782E-02 0.45350329E+03</pdfrwt>
<totfact> 0.24562850E+04</totfact>
</mgrwt>
</event>
<event>
 7    0  0.4732500E-002  0.4600686E+03  0.7546771E-02  0.1024761E+00
         21   -1    0    0  502  501  0.00000000000E+00  0.00000000000E+00  0.43144336101E+03  0.43144336101E+03  0.00000000000E+00 0.  1.
         21   -1    0    0  501  502 -0.00000000000E+00 -0.00000000000E+00 -0.12264825437E+03  0.12264825437E+03  0.00000000000E+00 0.  1.
      99926    2    1    2    0    0  0.00000000000E+00 -0.14210854715E-13  0.30879510664E+03  0.55409161537E+03  0.46006858222E+03 0.  0.
      99925    2    3    3    0    0 -0.68580596713E+02 -0.80185471842E+02  0.13064758760E+03  0.31218862908E+03  0.26317283264E+03 0.  0.
         25    1    3    3    0    0  0.68580596713E+02  0.80185471842E+02  0.17814751904E+03  0.24190298630E+03  0.12509000000E+03 0.  0.
         25    1    4    4    0    0 -0.49576973927E+02 -0.79457894497E+02  0.83391795399E+02  0.17712462557E+03  0.12509000000E+03 0.  0.
         25    1    4    4    0    0 -0.19003622786E+02 -0.72757734488E+00  0.47255792205E+02  0.13506400351E+03  0.12509000000E+03 0.  0.
<mgrwt>
<rscale>  2 0.46006858E+03</rscale>
<asrwt>0</asrwt>
<pdfrwt beam="1">  1       21 0.63447553E-01 0.46006858E+03</pdfrwt>
<pdfrwt beam="2">  1       21 0.18036508E-01 0.46006858E+03</pdfrwt>
<totfact> 0.59187663E+04</totfact>
</mgrwt>
</event>
<event>
 7    0  0.4732500E-002  0.4512488E+03  0.7546771E-02  0.1027350E+00
         21   -1    0    0  502  501  0.00000000000E+00  0.00000000000E+00  0.21323277608E+03  0.21323277608E+03  0.00000000000E+00 0.  1.
         21   -1    0    0  501  502 -0.00000000000E+00 -0.00000000000E+00 -0.23873610587E+03  0.23873610587E+03  0.00000000000E+00 0.  1.
      99926    2    1    2    0    0  0.00000000000E+00  0.00000000000E+00 -0.25503329791E+02  0.45196888195E+03  0.45124876778E+03 0.  0.
      99925    2    3    3    0    0  0.96493516769E+02 -0.44210491937E+02  0.12314101726E+02  0.28361439700E+03  0.26271643022E+03 0.  0.
         25    1    3    3    0    0 -0.96493516769E+02  0.44210491937E+02 -0.37817431517E+02  0.16835448495E+03  0.12509000000E+03 0.  0.
         25    1    4    4    0    0  0.30594812902E+02 -0.58103408073E+02  0.57279159385E+01  0.14139436243E+03  0.12509000000E+03 0.  0.
         25    1    4    4    0    0  0.65898703867E+02  0.13892916136E+02  0.65861857873E+01  0.14222003457E+03  0.12509000000E+03 0.  0.
<mgrwt>
<rscale>  2 0.45124877E+03</rscale>
<asrwt>0</asrwt>
<pdfrwt beam="1">  1       21 0.31357761E-01 0.45124877E+03</pdfrwt>
<pdfrwt beam="2">  1       21 0.35108251E-01 0.45124877E+03</pdfrwt>
<totfact> 0.70865868E+04</totfact>
</mgrwt>
</event>
<event>
 7    0  0.4732500E-002  0.4562923E+03  0.7546771E-02  0.1025862E+00
         21   -1    0    0  502  501  0.00000000000E+00  0.00000000000E+00  0.43883373163E+02  0.43883373163E+02  0.00000000000E+00 0.  1.
         21   -1    0    0  501  502 -0.00000000000E+00 -0.00000000000E+00 -0.11861138340E+04  0.11861138340E+04  0.00000000000E+00 0.  1.
      99926    2    1    2    0    0 -0.71054273576E-14  0.00000000000E+00 -0.11422304608E+04  0.12299972072E+04  0.45629234484E+03 0.  0.
      99925    2    3    3    0    0  0.61628985384E+02  0.33706231707E+02 -0.96169997563E+03  0.99940447943E+03  0.26269417290E+03 0.  0.
         25    1    3    3    0    0 -0.61628985384E+02 -0.33706231707E+02 -0.18053048520E+03  0.23059272773E+03  0.12509000000E+03 0.  0.
         25    1    4    4    0    0 -0.93708137335E+01  0.14072566336E+02 -0.41638542206E+03  0.43509789367E+03  0.12509000000E+03 0.  0.
         25    1    4    4    0    0  0.70999799117E+02  0.19633665371E+02 -0.54531455358E+03  0.56430658576E+03  0.12509000000E+03 0.  0.
<mgrwt>
<rscale>  2 0.45629234E+03</rscale>
<asrwt>0</asrwt>
<pdfrwt beam="1">  1       21 0.64534378E-02 0.45629234E+03</pdfrwt>
<pdfrwt beam="2">  1       21 0.17442849E+00 0.45629234E+03</pdfrwt>
<totfact> 0.30905269E+04</totfact>
</mgrwt>
</event>
<event>
 7    0  0.4732500E-002  0.4564338E+03  0.7546771E-02  0.1025821E+00
         21   -1    0    0  502  501  0.00000000000E+00  0.00000000000E+00  0.48529882654E+03  0.48529882654E+03  0.00000000000E+00 0. -1.
         21   -1    0    0  501  502 -0.00000000000E+00 -0.00000000000E+00 -0.10732141345E+03  0.10732141345E+03  0.00000000000E+00 0. -1.
      99926    2    1    2    0    0 -0.71054273576E-14  0.00000000000E+00  0.37797741309E+03  0.59262023998E+03  0.45643381123E+03 0.  0.
      99925    2    3    3    0    0 -0.34388102340E+02 -0.10919149167E+03  0.23261458423E+03  0.36927480450E+03  0.26296199917E+03 0.  0.
         25    1    4    4    0    0 -0.41263223833E+01 -0.46035643633E+02  0.63891076783E+02  0.14787117641E+03  0.12509000000E+03 0.  0.
         25    1    4    4    0    0 -0.30261779957E+02 -0.63155848035E+02  0.16872350744E+03  0.22140362809E+03  0.12509000000E+03 0.  0.
         25    1    3    3    0    0  0.34388102340E+02  0.10919149167E+03  0.14536282886E+03  0.22334543548E+03  0.12509000000E+03 0.  0.
<mgrwt>
<rscale>  2 0.45643381E+03</rscale>
<asrwt>0</asrwt>
<pdfrwt beam="1">  1       21 0.71367474E-01 0.45643381E+03</pdfrwt>
<pdfrwt beam="2">  1       21 0.15782561E-01 0.45643381E+03</pdfrwt>
<totfact> 0.58469462E+04</totfact>
</mgrwt>
</event>
<event>
 7    0  0.4732500E-002  0.4562215E+03  0.7546771E-02  0.1025883E+00
         21   -1    0    0  502  501  0.00000000000E+00  0.00000000000E+00  0.83727444907E+02  0.83727444907E+02  0.00000000000E+00 0.  1.
         21   -1    0    0  501  502 -0.00000000000E+00 -0.00000000000E+00 -0.62147497033E+03  0.62147497033E+03  0.00000000000E+00 0.  1.
      99926    2    1    2    0    0 -0.71054273576E-14  0.00000000000E+00 -0.53774752542E+03  0.70520241523E+03  0.45622148717E+03 0.  0.
      99925    2    3    3    0    0  0.58870388564E+02  0.64766745090E+02 -0.45158518750E+03  0.52989722280E+03  0.26306164912E+03 0.  0.
         25    1    4    4    0    0  0.44718465202E+02  0.71840242320E+02 -0.25414602311E+03  0.29563232352E+03  0.12509000000E+03 0.  0.
         25    1    3    3    0    0 -0.58870388564E+02 -0.64766745090E+02 -0.86162337916E+02  0.17530519243E+03  0.12509000000E+03 0.  0.
         25    1    4    4    0    0  0.14151923362E+02 -0.70734972298E+01 -0.19743916439E+03  0.23426489928E+03  0.12509000000E+03 0.  0.
<mgrwt>
<rscale>  2 0.45622149E+03</rscale>
<asrwt>0</asrwt>
<pdfrwt beam="1">  1       21 0.12312860E-01 0.45622149E+03</pdfrwt>
<pdfrwt beam="2">  1       21 0.91393374E-01 0.45622149E+03</pdfrwt>
<totfact> 0.52118659E+04</totfact>
</mgrwt>
</event>
<event>
 7    0  0.4732500E-002  0.4578949E+03  0.7546771E-02  0.1025394E+00
         21   -1    0    0  502  501  0.00000000000E+00  0.00000000000E+00  0.56764370011E+03  0.56764370011E+03  0.00000000000E+00 0. -1.
         21   -1    0    0  501  502 -0.00000000000E+00 -0.00000000000E+00 -0.92341248653E+02  0.92341248653E+02  0.00000000000E+00 0. -1.
      99926    2    1    2    0    0  0.14210854715E-13  0.35527136788E-14  0.47530245146E+03  0.65998494877E+03  0.45789487029E+03 0.  0.
      99925    2    3    3    0    0  0.98896044829E+02 -0.99584995242E+01  0.38387395272E+03  0.47590269031E+03  0.26314361036E+03 0.  0.
         25    1    4    4    0    0  0.69842350264E+02  0.30774991051E+02  0.19652749498E+03  0.24514407672E+03  0.12509000000E+03 0.  0.
         25    1    3    3    0    0 -0.98896044829E+02  0.99584995242E+01  0.91428498738E+02  0.18408225845E+03  0.12509000000E+03 0.  0.
         25    1    4    4    0    0  0.29053694565E+02 -0.40733490575E+02  0.18734645774E+03  0.23075861360E+03  0.12509000000E+03 0.  0.
<mgrwt>
<rscale>  2 0.45789487E+03</rscale>
<asrwt>0</asrwt>
<pdfrwt beam="1">  1       21 0.83477013E-01 0.45789487E+03</pdfrwt>
<pdfrwt beam="2">  1       21 0.13579596E-01 0.45789487E+03</pdfrwt>
<totfact> 0.53888717E+04</totfact>
</mgrwt>
</event>
<event>
 7    0  0.4732500E-002  0.4524224E+03  0.7546771E-02  0.1027002E+00
         21   -1    0    0  502  501  0.00000000000E+00  0.00000000000E+00  0.11590988401E+03  0.11590988401E+03  0.00000000000E+00 0. -1.
         21   -1    0    0  501  502 -0.00000000000E+00 -0.00000000000E+00 -0.44147666362E+03  0.44147666362E+03  0.00000000000E+00 0. -1.
      99926    2    1    2    0    0  0.00000000000E+00  0.00000000000E+00 -0.32556677961E+03  0.55738654763E+03  0.45242240826E+03 0.  0.
      99925    2    3    3    0    0 -0.68323387575E+02  0.45373821329E+02 -0.11355032775E+03  0.29791525267E+03  0.26293145854E+03 0.  0.
         25    1    4    4    0    0 -0.67052826491E+02  0.21163608665E+02 -0.86840354546E+02  0.16772815849E+03  0.12509000000E+03 0.  0.
         25    1    3    3    0    0  0.68323387575E+02 -0.45373821329E+02 -0.21201645186E+03  0.25947129497E+03  0.12509000000E+03 0.  0.
         25    1    4    4    0    0 -0.12705610843E+01  0.24210212664E+02 -0.26709973203E+02  0.13018709418E+03  0.12509000000E+03 0.  0.
<mgrwt>
<rscale>  2 0.45242241E+03</rscale>
<asrwt>0</asrwt>
<pdfrwt beam="1">  1       21 0.17045571E-01 0.45242241E+03</pdfrwt>
<pdfrwt beam="2">  1       21 0.64923039E-01 0.45242241E+03</pdfrwt>
<totfact> 0.62648676E+04</totfact>
</mgrwt>
</event>
<event>
 7    0  0.4732500E-002  0.4559406E+03  0.7546771E-02  0.1025965E+00
         21   -1    0    0  502  501  0.00000000000E+00  0.00000000000E+00  0.11948910829E+03  0.11948910829E+03  0.00000000000E+00 0.  1.
         21   -1    0    0  501  502 -0.00000000000E+00 -0.00000000000E+00 -0.43493881165E+03  0.43493881165E+03  0.00000000000E+00 0.  1.
      99926    2    1    2    0    0  0.00000000000E+00  0.00000000000E+00 -0.31544970336E+03  0.55442791994E+03  0.45594056965E+03 0.  0.
      99925    2    3    3    0    0  0.10515592350E+03  0.40541887718E+02 -0.21912594695E+03  0.36045063504E+03  0.26307236032E+03 0.  0.
         25    1    3    3    0    0 -0.10515592350E+03 -0.40541887718E+02 -0.96323756407E+02  0.19397728490E+03  0.12509000000E+03 0.  0.
         25    1    4    4    0    0  0.53950150815E+02  0.59510321166E+02 -0.12959926308E+03  0.19721960904E+03  0.12509000000E+03 0.  0.
         25    1    4    4    0    0  0.51205772689E+02 -0.18968433448E+02 -0.89526683875E+02  0.16323102600E+03  0.12509000000E+03 0.  0.
<mgrwt>
<rscale>  2 0.45594057E+03</rscale>
<asrwt>0</asrwt>
<pdfrwt beam="1">  1       21 0.17571928E-01 0.45594057E+03</pdfrwt>
<pdfrwt beam="2">  1       21 0.63961590E-01 0.45594057E+03</pdfrwt>
<totfact> 0.61118808E+04</totfact>
</mgrwt>
</event>
<event>
 7    0  0.4732500E-002  0.4529194E+03  0.7546771E-02  0.1026855E+00
         21   -1    0    0  502  501  0.00000000000E+00  0.00000000000E+00  0.35459592566E+03  0.35459592566E+03  0.00000000000E+00 0.  1.
         21   -1    0    0  501  502 -0.00000000000E+00 -0.00000000000E+00 -0.14462661058E+03  0.14462661058E+03  0.00000000000E+00 0.  1.
      99926    2    1    2    0    0  0.00000000000E+00  0.00000000000E+00  0.20996931508E+03  0.49922253624E+03  0.45291944915E+03 0.  0.
      99925    2    3    3    0    0  0.72254728876E+01  0.66888332858E+02  0.22998823695E+03  0.35578432005E+03  0.26298600101E+03 0.  0.
         25    1    3    3    0    0 -0.72254728876E+01 -0.66888332858E+02 -0.20018921873E+02  0.14343821619E+03  0.12509000000E+03 0.  0.
         25    1    4    4    0    0 -0.10387113628E+02 -0.57914214379E+01  0.10271444050E+03  0.16229355218E+03  0.12509000000E+03 0.  0.
         25    1    4    4    0    0  0.17612586515E+02  0.72679754296E+02  0.12727379645E+03  0.19349076787E+03  0.12509000000E+03 0.  0.
<mgrwt>
<rscale>  2 0.45291945E+03</rscale>
<asrwt>0</asrwt>
<pdfrwt beam="1">  1       21 0.52146460E-01 0.45291945E+03</pdfrwt>
<pdfrwt beam="2">  1       21 0.21268619E-01 0.45291945E+03</pdfrwt>
<totfact> 0.66415433E+04</totfact>
</mgrwt>
</event>
<event>
 7    0  0.4732500E-002  0.4528438E+03  0.7546771E-02  0.1026877E+00
         21   -1    0    0  502  501  0.00000000000E+00  0.00000000000E+00  0.58105640951E+02  0.58105640951E+02  0.00000000000E+00 0.  1.
         21   -1    0    0  501  502 -0.00000000000E+00 -0.00000000000E+00 -0.88230480107E+03  0.88230480107E+03  0.00000000000E+00 0.  1.
      99926    2    1    2    0    0  0.71054273576E-14 -0.14210854715E-13 -0.82419916012E+03  0.94041044202E+03  0.45284384055E+03 0.  0.
      99925    2    3    3    0    0  0.56008225165E+02 -0.71836630014E+02 -0.65165607120E+03  0.70864321325E+03  0.26310101835E+03 0.  0.
         25    1    3    3    0    0 -0.56008225165E+02  0.71836630014E+02 -0.17254308892E+03  0.23176722877E+03  0.12509000000E+03 0.  0.
         25    1    4    4    0    0  0.22846387777E+02  0.40751021013E+01 -0.33153514444E+03  0.35510790471E+03  0.12509000000E+03 0.  0.
         25    1    4    4    0    0  0.33161837388E+02 -0.75911732116E+02 -0.32012092677E+03  0.35353530854E+03  0.12509000000E+03 0.  0.
<mgrwt>
<rscale>  2 0.45284384E+03</rscale>
<asrwt>0</asrwt>
<pdfrwt beam="1">  1       21 0.85449475E-02 0.45284384E+03</pdfrwt>
<pdfrwt beam="2">  1       21 0.12975070E+00 0.45284384E+03</pdfrwt>
<totfact> 0.42239340E+04</totfact>
</mgrwt>
</event>
<event>
 7    0  0.4732500E-002  0.4532416E+03  0.7546771E-02  0.1026760E+00
         21   -1    0    0  502  501  0.00000000000E+00  0.00000000000E+00  0.66994805737E+03  0.66994805737E+03  0.00000000000E+00 0.  1.
         21   -1    0    0  501  502 -0.00000000000E+00 -0.00000000000E+00 -0.76658171255E+02  0.76658171255E+02  0.00000000000E+00 0.  1.
      99926    2    1    2    0    0 -0.35527136788E-14  0.00000000000E+00  0.59328988611E+03  0.74660622862E+03  0.45324162613E+03 0.  0.
      99925    2    3    3    0    0 -0.29923932895E+02 -0.93210245386E+02  0.46198376057E+03  0.54051790214E+03  0.26295820182E+03 0.  0.
         25    1    4    4    0    0  0.75120443105E+01 -0.21224138045E+02  0.26063268318E+03  0.28997206502E+03  0.12509000000E+03 0.  0.
         25    1    4    4    0    0 -0.37435977205E+02 -0.71986107341E+02  0.20135107738E+03  0.25054583713E+03  0.12509000000E+03 0.  0.
         25    1    3    3    0    0  0.29923932895E+02  0.93210245386E+02  0.13130612555E+03  0.20608832648E+03  0.12509000000E+03 0.  0.
<mgrwt>
<rscale>  2 0.45324163E+03</rscale>
<asrwt>0</asrwt>
<pdfrwt beam="1">  1       21 0.98521770E-01 0.45324163E+03</pdfrwt>
<pdfrwt beam="2">  1       21 0.11273261E-01 0.45324163E+03</pdfrwt>
<totfact> 0.51147763E+04</totfact>
</mgrwt>
</event>
<event>
 7    0  0.4732500E-002  0.4510334E+03  0.7546771E-02  0.1027414E+00
         21   -1    0    0  502  501  0.00000000000E+00  0.00000000000E+00  0.28115292508E+03  0.28115292508E+03  0.00000000000E+00 0.  1.
         21   -1    0    0  501  502 -0.00000000000E+00 -0.00000000000E+00 -0.18089008643E+03  0.18089008643E+03  0.00000000000E+00 0.  1.
      99926    2    1    2    0    0  0.71054273576E-14  0.14210854715E-13  0.10026283866E+03  0.46204301151E+03  0.45103337756E+03 0.  0.
      99925    2    3    3    0    0  0.37240556395E+02  0.73438002987E+02 -0.10305087715E+02  0.27589045643E+03  0.26311470843E+03 0.  0.
         25    1    4    4    0    0  0.46961128962E+02  0.93662603559E+01 -0.16004077994E+02  0.13489519294E+03  0.12509000000E+03 0.  0.
         25    1    4    4    0    0 -0.97205725670E+01  0.64071742632E+02  0.56989902786E+01  0.14099526348E+03  0.12509000000E+03 0.  0.
         25    1    3    3    0    0 -0.37240556395E+02 -0.73438002987E+02  0.11056792637E+03  0.18615255509E+03  0.12509000000E+03 0.  0.
<mgrwt>
<rscale>  2 0.45103338E+03</rscale>
<asrwt>0</asrwt>
<pdfrwt beam="1">  1       21 0.41346018E-01 0.45103338E+03</pdfrwt>
<pdfrwt beam="2">  1       21 0.26601483E-01 0.45103338E+03</pdfrwt>
<totfact> 0.70215909E+04</totfact>
</mgrwt>
</event>
<event>
 7    0  0.4732500E-002  0.4535434E+03  0.7546771E-02  0.1026671E+00
         21   -1    0    0  502  501  0.00000000000E+00  0.00000000000E+00  0.99156897561E+02  0.99156897561E+02  0.00000000000E+00 0. -1.
         21   -1    0    0  501  502 -0.00000000000E+00 -0.00000000000E+00 -0.51862655429E+03  0.51862655429E+03  0.00000000000E+00 0. -1.
      99926    2    1    2    0    0  0.00000000000E+00  0.00000000000E+00 -0.41946965673E+03  0.61778345185E+03  0.45354338322E+03 0.  0.
      99925    2    3    3    0    0 -0.85853961651E+02  0.50759613539E+02 -0.33281282415E+03  0.43583742736E+03  0.26313959425E+03 0.  0.
         25    1    3    3    0    0  0.85853961651E+02 -0.50759613539E+02 -0.86656832576E+02  0.18194602450E+03  0.12509000000E+03 0.  0.
         25    1    4    4    0    0 -0.31067594132E+02 -0.15101482851E+02 -0.15616149544E+03  0.20304475110E+03  0.12509000000E+03 0.  0.
         25    1    4    4    0    0 -0.54786367519E+02  0.65861096390E+02 -0.17665132871E+03  0.23279267626E+03  0.12509000000E+03 0.  0.
<mgrwt>
<rscale>  2 0.45354338E+03</rscale>
<asrwt>0</asrwt>
<pdfrwt beam="1">  1       21 0.14581897E-01 0.45354338E+03</pdfrwt>
<pdfrwt beam="2">  1       21 0.76268610E-01 0.45354338E+03</pdfrwt>
<totfact> 0.58264109E+04</totfact>
</mgrwt>
</event>
<event>
 7    0  0.4732500E-002  0.4510761E+03  0.7546771E-02  0.1027402E+00
         21   -1    0    0  502  501  0.00000000000E+00  0.00000000000E+00  0.17491169572E+03  0.17491169572E+03  0.00000000000E+00 0.  1.
         21   -1    0    0  501  502 -0.00000000000E+00 -0.00000000000E+00 -0.29081767728E+03  0.29081767728E+03  0.00000000000E+00 0.  1.
      99926    2    1    2    0    0  0.00000000000E+00  0.14210854715E-13 -0.11590598156E+03  0.46572937300E+03  0.45107610479E+03 0.  0.
      99925    2    3    3    0    0  0.41101338738E+02  0.10091814111E+03 -0.60759215015E+02  0.29090813512E+03  0.26279663168E+03 0.  0.
         25    1    4    4    0    0  0.16256240962E+02  0.15250720570E+02 -0.39986612473E+01  0.12712335442E+03  0.12509000000E+03 0.  0.
         25    1    3    3    0    0 -0.41101338738E+02 -0.10091814111E+03 -0.55146766548E+02  0.17482123787E+03  0.12509000000E+03 0.  0.
         25    1    4    4    0    0  0.24845097776E+02  0.85667420539E+02 -0.56760553768E+02  0.16378478070E+03  0.12509000000E+03 0.  0.
<mgrwt>
<rscale>  2 0.45107610E+03</rscale>
<asrwt>0</asrwt>
<pdfrwt beam="1">  1       21 0.25722309E-01 0.45107610E+03</pdfrwt>
<pdfrwt beam="2">  1       21 0.42767305E-01 0.45107610E+03</pdfrwt>
<totfact> 0.69905430E+04</totfact>
</mgrwt>
</event>
<event>
 7    0  0.4732500E-002  0.4501411E+03  0.7546771E-02  0.1027680E+00
         21   -1    0    0  502  501  0.00000000000E+00  0.00000000000E+00  0.23486601245E+03  0.23486601245E+03  0.00000000000E+00 0.  1.
         21   -1    0    0  501  502 -0.00000000000E+00 -0.00000000000E+00 -0.21568365086E+03  0.21568365086E+03  0.00000000000E+00 0.  1.
      99926    2    1    2    0    0  0.00000000000E+00  0.00000000000E+00  0.19182361583E+02  0.45054966331E+03  0.45014112911E+03 0.  0.
      99925    2    3    3    0    0  0.22562446922E+02  0.56237221303E+02  0.10224429656E+03  0.28862844106E+03  0.26302241680E+03 0.  0.
         25    1    4    4    0    0  0.29215465147E+02  0.55825217171E+02  0.80315269330E+02  0.16145602765E+03  0.12509000000E+03 0.  0.
         25    1    4    4    0    0 -0.66530182243E+01  0.41200413212E+00  0.21929027235E+02  0.12717241342E+03  0.12509000000E+03 0.  0.
         25    1    3    3    0    0 -0.22562446922E+02 -0.56237221303E+02 -0.83061934982E+02  0.16192122225E+03  0.12509000000E+03 0.  0.
<mgrwt>
<rscale>  2 0.45014113E+03</rscale>
<asrwt>0</asrwt>
<pdfrwt beam="1">  1       21 0.34539120E-01 0.45014113E+03</pdfrwt>
<pdfrwt beam="2">  1       21 0.31718184E-01 0.45014113E+03</pdfrwt>
<totfact> 0.71609246E+04</totfact>
</mgrwt>
</event>
<event>
 7    0  0.4732500E-002  0.4631139E+03  0.7546771E-02  0.1023882E+00
         21   -1    0    0  502  501  0.00000000000E+00  0.00000000000E+00  0.52010594798E+03  0.52010594798E+03  0.00000000000E+00 0.  1.
         21   -1    0    0  501  502 -0.00000000000E+00 -0.00000000000E+00 -0.10309171676E+03  0.10309171676E+03  0.00000000000E+00 0.  1.
      99926    2    1    2    0    0  0.00000000000E+00  0.00000000000E+00  0.41701423122E+03  0.62319766474E+03  0.46311387401E+03 0.  0.
      99925    2    3    3    0    0 -0.34405981527E+02  0.20858509140E+02  0.10745296233E+03  0.28690235364E+03  0.26296002062E+03 0.  0.
         25    1    3    3    0    0  0.34405981527E+02 -0.20858509140E+02  0.30956126890E+03  0.33629531110E+03  0.12509000000E+03 0.  0.
         25    1    4    4    0    0 -0.42166898238E+02  0.11498108126E+02  0.89612122951E+02  0.15996279092E+03  0.12509000000E+03 0.  0.
         25    1    4    4    0    0  0.77609167112E+01  0.93604010138E+01  0.17840839376E+02  0.12693956273E+03  0.12509000000E+03 0.  0.
<mgrwt>
<rscale>  2 0.46311387E+03</rscale>
<asrwt>0</asrwt>
<pdfrwt beam="1">  1       21 0.76486167E-01 0.46311387E+03</pdfrwt>
<pdfrwt beam="2">  1       21 0.15160547E-01 0.46311387E+03</pdfrwt>
<totfact> 0.53745574E+04</totfact>
</mgrwt>
</event>
<event>
 7    0  0.4732500E-002  0.4392802E+03  0.7546771E-02  0.1030968E+00
         21   -1    0    0  502  501  0.00000000000E+00  0.00000000000E+00  0.30088258406E+03  0.30088258406E+03  0.00000000000E+00 0. -1.
         21   -1    0    0  501  502 -0.00000000000E+00 -0.00000000000E+00 -0.16033424574E+03  0.16033424574E+03  0.00000000000E+00 0. -1.
      99926    2    1    2    0    0  0.00000000000E+00  0.44408920985E-15  0.14054833832E+03  0.46121682979E+03  0.43928023935E+03 0.  0.
      99925    2    3    3    0    0  0.85963997642E+02  0.34837584638E+01  0.13863949926E+03  0.30938436545E+03  0.26286085552E+03 0.  0.
         25    1    4    4    0    0  0.61612113022E+02 -0.74955982399E+01  0.32993311841E+02  0.14348624739E+03  0.12509000000E+03 0.  0.
         25    1    4    4    0    0  0.24351884619E+02  0.10979356704E+02  0.10564618742E+03  0.16589811805E+03  0.12509000000E+03 0.  0.
         25    1    3    3    0    0 -0.85963997642E+02 -0.34837584638E+01  0.19088390632E+01  0.15183246435E+03  0.12509000000E+03 0.  0.
<mgrwt>
<rscale>  2 0.43928024E+03</rscale>
<asrwt>0</asrwt>
<pdfrwt beam="1">  1       21 0.44247439E-01 0.43928024E+03</pdfrwt>
<pdfrwt beam="2">  1       21 0.23578565E-01 0.43928024E+03</pdfrwt>
<totfact> 0.77294262E+04</totfact>
</mgrwt>
</event>
<event>
 7    0  0.4732500E-002  0.4491322E+03  0.7546771E-02  0.1027981E+00
         21   -1    0    0  502  501  0.00000000000E+00  0.00000000000E+00  0.68494086851E+03  0.68494086851E+03  0.00000000000E+00 0. -1.
         21   -1    0    0  501  502 -0.00000000000E+00 -0.00000000000E+00 -0.73626688011E+02  0.73626688011E+02  0.00000000000E+00 0. -1.
      99926    2    1    2    0    0 -0.14210854715E-13  0.00000000000E+00  0.61131418050E+03  0.75856755652E+03  0.44913217490E+03 0.  0.
      99925    2    3    3    0    0  0.88360533204E+02  0.57132504217E+02  0.34757175916E+03  0.44827853032E+03  0.26282276559E+03 0.  0.
         25    1    3    3    0    0 -0.88360533204E+02 -0.57132504217E+02  0.26374242134E+03  0.31028902620E+03  0.12509000000E+03 0.  0.
         25    1    4    4    0    0  0.16934100835E+02  0.56545028846E+02  0.15409514342E+03  0.20706744163E+03  0.12509000000E+03 0.  0.
         25    1    4    4    0    0  0.71426432369E+02  0.58747537105E+00  0.19347661574E+03  0.24121108869E+03  0.12509000000E+03 0.  0.
<mgrwt>
<rscale>  2 0.44913217E+03</rscale>
<asrwt>0</asrwt>
<pdfrwt beam="1">  1       21 0.10072659E+00 0.44913217E+03</pdfrwt>
<pdfrwt beam="2">  1       21 0.10827454E-01 0.44913217E+03</pdfrwt>
<totfact> 0.52197171E+04</totfact>
</mgrwt>
</event>
<event>
 7    0  0.4732500E-002  0.4540362E+03  0.7546771E-02  0.1026525E+00
         21   -1    0    0  502  501  0.00000000000E+00  0.00000000000E+00  0.52063305172E+02  0.52063305172E+02  0.00000000000E+00 0.  1.
         21   -1    0    0  501  502 -0.00000000000E+00 -0.00000000000E+00 -0.98989504866E+03  0.98989504866E+03  0.00000000000E+00 0.  1.
      99926    2    1    2    0    0  0.00000000000E+00  0.00000000000E+00 -0.93783174348E+03  0.10419583538E+04  0.45403615718E+03 0.  0.
      99925    2    3    3    0    0  0.59225772878E+02  0.33739731509E+02 -0.79529096705E+03  0.84043554445E+03  0.26305535623E+03 0.  0.
         25    1    4    4    0    0  0.94491522791E+01  0.89449799387E+00 -0.47828088561E+03  0.49445950314E+03  0.12509000000E+03 0.  0.
         25    1    3    3    0    0 -0.59225772878E+02 -0.33739731509E+02 -0.14254077643E+03  0.20152280938E+03  0.12509000000E+03 0.  0.
         25    1    4    4    0    0  0.49776620598E+02  0.32845233515E+02 -0.31701008144E+03  0.34597604131E+03  0.12509000000E+03 0.  0.
<mgrwt>
<rscale>  2 0.45403616E+03</rscale>
<asrwt>0</asrwt>
<pdfrwt beam="1">  1       21 0.76563690E-02 0.45403616E+03</pdfrwt>
<pdfrwt beam="2">  1       21 0.14557279E+00 0.45403616E+03</pdfrwt>
<totfact> 0.37857884E+04</totfact>
</mgrwt>
</event>
<event>
 7    0  0.4732500E-002  0.4561582E+03  0.7546771E-02  0.1025901E+00
         21   -1    0    0  502  501  0.00000000000E+00  0.00000000000E+00  0.30507038013E+03  0.30507038013E+03  0.00000000000E+00 0. -1.
         21   -1    0    0  501  502 -0.00000000000E+00 -0.00000000000E+00 -0.17051831287E+03  0.17051831287E+03  0.00000000000E+00 0. -1.
      99926    2    1    2    0    0 -0.71054273576E-14 -0.14210854715E-13  0.13455206725E+03  0.47558869300E+03  0.45615824678E+03 0.  0.
      99925    2    3    3    0    0  0.61689868992E+02  0.94608133541E+02  0.66450545882E+02  0.29381503104E+03  0.26297387427E+03 0.  0.
         25    1    4    4    0    0  0.67284489867E+02  0.57705322045E+02  0.54575410716E+02  0.16273626002E+03  0.12509000000E+03 0.  0.
         25    1    3    3    0    0 -0.61689868992E+02 -0.94608133541E+02  0.68101521369E+02  0.18177366196E+03  0.12509000000E+03 0.  0.
         25    1    4    4    0    0 -0.55946208746E+01  0.36902811496E+02  0.11875135166E+02  0.13107877103E+03  0.12509000000E+03 0.  0.
<mgrwt>
<rscale>  2 0.45615825E+03</rscale>
<asrwt>0</asrwt>
<pdfrwt beam="1">  1       21 0.44863291E-01 0.45615825E+03</pdfrwt>
<pdfrwt beam="2">  1       21 0.25076222E-01 0.45615825E+03</pdfrwt>
<totfact> 0.66410129E+04</totfact>
</mgrwt>
</event>
<event>
 7    0  0.4732500E-002  0.4519620E+03  0.7546771E-02  0.1027139E+00
         21   -1    0    0  502  501  0.00000000000E+00  0.00000000000E+00  0.93305932671E+03  0.93305932671E+03  0.00000000000E+00 0. -1.
         21   -1    0    0  501  502 -0.00000000000E+00 -0.00000000000E+00 -0.54731150876E+02  0.54731150876E+02  0.00000000000E+00 0. -1.
      99926    2    1    2    0    0  0.00000000000E+00  0.17763568394E-14  0.87832817584E+03  0.98779047759E+03  0.45196199303E+03 0.  0.
      99925    2    3    3    0    0 -0.19308704000E+02  0.15698778998E+02  0.78905198945E+03  0.83210803392E+03  0.26302368779E+03 0.  0.
         25    1    4    4    0    0 -0.21329596939E+02 -0.27736386589E+02  0.44023721221E+03  0.45899953155E+03  0.12509000000E+03 0.  0.
         25    1    4    4    0    0  0.20208929398E+01  0.43435165588E+02  0.34881477724E+03  0.37310850237E+03  0.12509000000E+03 0.  0.
         25    1    3    3    0    0  0.19308704000E+02 -0.15698778998E+02  0.89276186384E+02  0.15568244367E+03  0.12509000000E+03 0.  0.
<mgrwt>
<rscale>  2 0.45196199E+03</rscale>
<asrwt>0</asrwt>
<pdfrwt beam="1">  1       21 0.13721460E+00 0.45196199E+03</pdfrwt>
<pdfrwt beam="2">  1       21 0.80486992E-02 0.45196199E+03</pdfrwt>
<totfact> 0.40599899E+04</totfact>
</mgrwt>
</event>
<event>
 7    0  0.4732500E-002  0.4470396E+03  0.7546771E-02  0.1028609E+00
         21   -1    0    0  502  501  0.00000000000E+00  0.00000000000E+00  0.35899163680E+03  0.35899163680E+03  0.00000000000E+00 0.  1.
         21   -1    0    0  501  502 -0.00000000000E+00 -0.00000000000E+00 -0.13917063986E+03  0.13917063986E+03  0.00000000000E+00 0.  1.
      99926    2    1    2    0    0  0.00000000000E+00  0.00000000000E+00  0.21982099694E+03  0.49816227666E+03  0.44703957676E+03 0.  0.
      99925    2    3    3    0    0 -0.23911857130E+02  0.88432880371E+02  0.19763629955E+03  0.34153590551E+03  0.26304850619E+03 0.  0.
         25    1    4    4    0    0 -0.15378996103E+02  0.16349176878E+01  0.90731829052E+02  0.15530279901E+03  0.12509000000E+03 0.  0.
         25    1    4    4    0    0 -0.85328610267E+01  0.86797962684E+02  0.10690447050E+03  0.18623310650E+03  0.12509000000E+03 0.  0.
         25    1    3    3    0    0  0.23911857130E+02 -0.88432880371E+02  0.22184697388E+02  0.15662637115E+03  0.12509000000E+03 0.  0.
<mgrwt>
<rscale>  2 0.44703958E+03</rscale>
<asrwt>0</asrwt>
<pdfrwt beam="1">  1       21 0.52792888E-01 0.44703958E+03</pdfrwt>
<pdfrwt beam="2">  1       21 0.20466271E-01 0.44703958E+03</pdfrwt>
<totfact> 0.69701139E+04</totfact>
</mgrwt>
</event>
<event>
 7    0  0.4732500E-002  0.4530561E+03  0.7546771E-02  0.1026815E+00
         21   -1    0    0  502  501  0.00000000000E+00  0.00000000000E+00  0.38109927828E+02  0.38109927828E+02  0.00000000000E+00 0. -1.
         21   -1    0    0  501  502 -0.00000000000E+00 -0.00000000000E+00 -0.13464984788E+04  0.13464984788E+04  0.00000000000E+00 0. -1.
      99926    2    1    2    0    0  0.00000000000E+00  0.35527136788E-14 -0.13083885510E+04  0.13846084066E+04  0.45305611064E+03 0.  0.
      99925    2    3    3    0    0  0.10776617329E+03  0.21327595775E+02 -0.76928137539E+03  0.82038108603E+03  0.26298835971E+03 0.  0.
         25    1    3    3    0    0 -0.10776617329E+03 -0.21327595775E+02 -0.53910717558E+03  0.56422732060E+03  0.12509000000E+03 0.  0.
         25    1    4    4    0    0  0.31234059254E+02  0.32620076202E+02 -0.29001957586E+03  0.31905876937E+03  0.12509000000E+03 0.  0.
         25    1    4    4    0    0  0.76532114032E+02 -0.11292480427E+02 -0.47926179953E+03  0.50132231666E+03  0.12509000000E+03 0.  0.
<mgrwt>
<rscale>  2 0.45305611E+03</rscale>
<asrwt>0</asrwt>
<pdfrwt beam="1">  1       21 0.56044024E-02 0.45305611E+03</pdfrwt>
<pdfrwt beam="2">  1       21 0.19801444E+00 0.45305611E+03</pdfrwt>
<totfact> 0.27152974E+04</totfact>
</mgrwt>
</event>
<event>
 7    0  0.4732500E-002  0.4548923E+03  0.7546771E-02  0.1026273E+00
         21   -1    0    0  502  501  0.00000000000E+00  0.00000000000E+00  0.12281080249E+03  0.12281080249E+03  0.00000000000E+00 0. -1.
         21   -1    0    0  501  502 -0.00000000000E+00 -0.00000000000E+00 -0.42123135498E+03  0.42123135498E+03  0.00000000000E+00 0. -1.
      99926    2    1    2    0    0  0.88817841970E-15  0.00000000000E+00 -0.29842055249E+03  0.54404215747E+03  0.45489234216E+03 0.  0.
      99925    2    3    3    0    0  0.65548172143E+01  0.32033850915E+02 -0.31727167141E+03  0.41338227067E+03  0.26297234644E+03 0.  0.
         25    1    4    4    0    0 -0.17878117815E+02 -0.82854292672E+01 -0.19317512201E+03  0.23098140899E+03  0.12509000000E+03 0.  0.
         25    1    3    3    0    0 -0.65548172143E+01 -0.32033850915E+02  0.18851118923E+02  0.13065988680E+03  0.12509000000E+03 0.  0.
         25    1    4    4    0    0  0.24432935029E+02  0.40319280182E+02 -0.12409654940E+03  0.18240086168E+03  0.12509000000E+03 0.  0.
<mgrwt>
<rscale>  2 0.45489234E+03</rscale>
<asrwt>0</asrwt>
<pdfrwt beam="1">  1       21 0.18060412E-01 0.45489234E+03</pdfrwt>
<pdfrwt beam="2">  1       21 0.61945788E-01 0.45489234E+03</pdfrwt>
<totfact> 0.62315006E+04</totfact>
</mgrwt>
</event>
<event>
 7    0  0.4732500E-002  0.4530001E+03  0.7546771E-02  0.1026831E+00
         21   -1    0    0  502  501  0.00000000000E+00  0.00000000000E+00  0.54197840844E+02  0.54197840844E+02  0.00000000000E+00 0. -1.
         21   -1    0    0  501  502 -0.00000000000E+00 -0.00000000000E+00 -0.94657403321E+03  0.94657403321E+03  0.00000000000E+00 0. -1.
      99926    2    1    2    0    0 -0.35527136788E-14  0.00000000000E+00 -0.89237619236E+03  0.10007718741E+04  0.45300008300E+03 0.  0.
      99925    2    3    3    0    0 -0.27015484092E+02 -0.99447728330E+02 -0.65549237789E+03  0.71375073073E+03  0.26296418217E+03 0.  0.
         25    1    4    4    0    0  0.19094477721E+02 -0.34972793081E+02 -0.25613416199E+03  0.28781923559E+03  0.12509000000E+03 0.  0.
         25    1    3    3    0    0  0.27015484092E+02  0.99447728330E+02 -0.23688381448E+03  0.28702114332E+03  0.12509000000E+03 0.  0.
         25    1    4    4    0    0 -0.46109961813E+02 -0.64474935249E+02 -0.39935821590E+03  0.42593149515E+03  0.12509000000E+03 0.  0.
<mgrwt>
<rscale>  2 0.45300008E+03</rscale>
<asrwt>0</asrwt>
<pdfrwt beam="1">  1       21 0.79702710E-02 0.45300008E+03</pdfrwt>
<pdfrwt beam="2">  1       21 0.13920206E+00 0.45300008E+03</pdfrwt>
<totfact> 0.39754077E+04</totfact>
</mgrwt>
</event>
<event>
 7    0  0.4732500E-002  0.4573229E+03  0.7546771E-02  0.1025561E+00
         21   -1    0    0  502  501  0.00000000000E+00  0.00000000000E+00  0.11678620932E+03  0.11678620932E+03  0.00000000000E+00 0. -1.
         21   -1    0    0  501  502 -0.00000000000E+00 -0.00000000000E+00 -0.44770754464E+03  0.44770754464E+03  0.00000000000E+00 0. -1.
      99926    2    1    2    0    0  0.00000000000E+00  0.00000000000E+00 -0.33092133532E+03  0.56449375396E+03  0.45732293632E+03 0.  0.
      99925    2    3    3    0    0 -0.86174334564E+02  0.71999152942E+02 -0.17502929540E+03  0.33523466434E+03  0.26293940740E+03 0.  0.
         25    1    4    4    0    0 -0.39217654309E+02  0.10763668529E+02 -0.45070770444E+02  0.13904230801E+03  0.12509000000E+03 0.  0.
         25    1    3    3    0    0  0.86174334564E+02 -0.71999152942E+02 -0.15589203992E+03  0.22925908962E+03  0.12509000000E+03 0.  0.
         25    1    4    4    0    0 -0.46956680256E+02  0.61235484413E+02 -0.12995852496E+03  0.19619235633E+03  0.12509000000E+03 0.  0.
<mgrwt>
<rscale>  2 0.45732294E+03</rscale>
<asrwt>0</asrwt>
<pdfrwt beam="1">  1       21 0.17174442E-01 0.45732294E+03</pdfrwt>
<pdfrwt beam="2">  1       21 0.65839345E-01 0.45732294E+03</pdfrwt>
<totfact> 0.59812315E+04</totfact>
</mgrwt>
</event>
<event>
 7    0  0.4732500E-002  0.4536473E+03  0.7546771E-02  0.1026640E+00
         21   -1    0    0  502  501  0.00000000000E+00  0.00000000000E+00  0.75693807416E+03  0.75693807416E+03  0.00000000000E+00 0.  1.
         21   -1    0    0  501  502 -0.00000000000E+00 -0.00000000000E+00 -0.67969842054E+02  0.67969842054E+02  0.00000000000E+00 0.  1.
      99926    2    1    2    0    0  0.00000000000E+00  0.00000000000E+00  0.68896823210E+03  0.82490791621E+03  0.45364726978E+03 0.  0.
      99925    2    3    3    0    0  0.21435136442E+02  0.76227960250E+02  0.29019580816E+03  0.39954087330E+03  0.26296223182E+03 0.  0.
         25    1    4    4    0    0  0.41645101616E+02  0.25315597485E+02  0.11069478303E+03  0.17400010648E+03  0.12509000000E+03 0.  0.
         25    1    3    3    0    0 -0.21435136442E+02 -0.76227960250E+02  0.39877242394E+03  0.42536704291E+03  0.12509000000E+03 0.  0.
         25    1    4    4    0    0 -0.20209965174E+02  0.50912362765E+02  0.17950102513E+03  0.22554076682E+03  0.12509000000E+03 0.  0.
<mgrwt>
<rscale>  2 0.45364727E+03</rscale>
<asrwt>0</asrwt>
<pdfrwt beam="1">  1       21 0.11131442E+00 0.45364727E+03</pdfrwt>
<pdfrwt beam="2">  1       21 0.99955654E-02 0.45364727E+03</pdfrwt>
<totfact> 0.47081268E+04</totfact>
</mgrwt>
</event>
<event>
 7    0  0.4732500E-002  0.4488593E+03  0.7546771E-02  0.1028063E+00
         21   -1    0    0  502  501  0.00000000000E+00  0.00000000000E+00  0.22682934728E+03  0.22682934728E+03  0.00000000000E+00 0. -1.
         21   -1    0    0  501  502 -0.00000000000E+00 -0.00000000000E+00 -0.22205529277E+03  0.22205529277E+03  0.00000000000E+00 0. -1.
      99926    2    1    2    0    0  0.00000000000E+00  0.00000000000E+00  0.47740545072E+01  0.44888464005E+03  0.44885925241E+03 0.  0.
      99925    2    3    3    0    0  0.78244144999E+02  0.67696494911E+02 -0.25628114802E+02  0.28372786105E+03  0.26294436145E+03 0.  0.
         25    1    4    4    0    0  0.43970401926E+02  0.72429099877E+02 -0.29248163826E+02  0.15389065580E+03  0.12509000000E+03 0.  0.
         25    1    3    3    0    0 -0.78244144999E+02 -0.67696494911E+02  0.30402169309E+02  0.16515677900E+03  0.12509000000E+03 0.  0.
         25    1    4    4    0    0  0.34273743073E+02 -0.47326049657E+01  0.36200490242E+01  0.12983720526E+03  0.12509000000E+03 0.  0.
<mgrwt>
<rscale>  2 0.44885925E+03</rscale>
<asrwt>0</asrwt>
<pdfrwt beam="1">  1       21 0.33357257E-01 0.44885925E+03</pdfrwt>
<pdfrwt beam="2">  1       21 0.32655190E-01 0.44885925E+03</pdfrwt>
<totfact> 0.72483000E+04</totfact>
</mgrwt>
</event>
<event>
 7    0  0.4732500E-002  0.4545181E+03  0.7546771E-02  0.1026383E+00
         21   -1    0    0  502  501  0.00000000000E+00  0.00000000000E+00  0.55104970745E+03  0.55104970745E+03  0.00000000000E+00 0.  1.
         21   -1    0    0  501  502 -0.00000000000E+00 -0.00000000000E+00 -0.93724152871E+02  0.93724152871E+02  0.00000000000E+00 0.  1.
      99926    2    1    2    0    0  0.00000000000E+00  0.00000000000E+00  0.45732555458E+03  0.64477386033E+03  0.45451806134E+03 0.  0.
      99925    2    3    3    0    0 -0.74294772343E+02  0.11636129165E+02  0.40704631214E+03  0.49040215625E+03  0.26296855691E+03 0.  0.
         25    1    4    4    0    0 -0.56726589710E+02 -0.58181200534E+01  0.27137592536E+03  0.30421071228E+03  0.12509000000E+03 0.  0.
         25    1    3    3    0    0  0.74294772343E+02 -0.11636129165E+02  0.50279242438E+02  0.15437170408E+03  0.12509000000E+03 0.  0.
         25    1    4    4    0    0 -0.17568182634E+02  0.17454249218E+02  0.13567038679E+03  0.18619144397E+03  0.12509000000E+03 0.  0.
<mgrwt>
<rscale>  2 0.45451806E+03</rscale>
<asrwt>0</asrwt>
<pdfrwt beam="1">  1       21 0.81036720E-01 0.45451806E+03</pdfrwt>
<pdfrwt beam="2">  1       21 0.13782964E-01 0.45451806E+03</pdfrwt>
<totfact> 0.56217042E+04</totfact>
</mgrwt>
</event>
<event>
 7    0  0.4732500E-002  0.4529385E+03  0.7546771E-02  0.1026849E+00
         21   -1    0    0  502  501  0.00000000000E+00  0.00000000000E+00  0.33975452202E+03  0.33975452202E+03  0.00000000000E+00 0. -1.
         21   -1    0    0  501  502 -0.00000000000E+00 -0.00000000000E+00 -0.15095700332E+03  0.15095700332E+03  0.00000000000E+00 0. -1.
      99926    2    1    2    0    0  0.00000000000E+00  0.00000000000E+00  0.18879751870E+03  0.49071152534E+03  0.45293851463E+03 0.  0.
      99925    2    3    3    0    0  0.10725660586E+03  0.16530263021E+02  0.14560372416E+03  0.31956702183E+03  0.26295514419E+03 0.  0.
         25    1    4    4    0    0  0.51390325751E+02 -0.61365009296E+01  0.29471692744E+02  0.13854497825E+03  0.12509000000E+03 0.  0.
         25    1    3    3    0    0 -0.10725660586E+03 -0.16530263021E+02  0.43193794543E+02  0.17114450351E+03  0.12509000000E+03 0.  0.
         25    1    4    4    0    0  0.55866280108E+02  0.22666763951E+02  0.11613203141E+03  0.18102204358E+03  0.12509000000E+03 0.  0.
<mgrwt>
<rscale>  2 0.45293851E+03</rscale>
<asrwt>0</asrwt>
<pdfrwt beam="1">  1       21 0.49963900E-01 0.45293851E+03</pdfrwt>
<pdfrwt beam="2">  1       21 0.22199559E-01 0.45293851E+03</pdfrwt>
<totfact> 0.67018344E+04</totfact>
</mgrwt>
</event>
<event>
 7    0  0.4732500E-002  0.4460301E+03  0.7546771E-02  0.1028913E+00
         21   -1    0    0  502  501  0.00000000000E+00  0.00000000000E+00  0.26884735057E+03  0.26884735057E+03  0.00000000000E+00 0. -1.
         21   -1    0    0  501  502 -0.00000000000E+00 -0.00000000000E+00 -0.18499610708E+03  0.18499610708E+03  0.00000000000E+00 0. -1.
      99926    2    1    2    0    0  0.00000000000E+00  0.00000000000E+00  0.83851243487E+02  0.45384345764E+03  0.44603010326E+03 0.  0.
      99925    2    3    3    0    0 -0.19156118548E+02 -0.10225119967E+03  0.43929352552E+02  0.28632172715E+03  0.26311229296E+03 0.  0.
         25    1    4    4    0    0 -0.30611358216E+02 -0.76889728387E+02  0.49797932712E+02  0.15803932354E+03  0.12509000000E+03 0.  0.
         25    1    3    3    0    0  0.19156118548E+02  0.10225119967E+03  0.39921890935E+02  0.16752173050E+03  0.12509000000E+03 0.  0.
         25    1    4    4    0    0  0.11455239668E+02 -0.25361471286E+02 -0.58685801594E+01  0.12828240361E+03  0.12509000000E+03 0.  0.
<mgrwt>
<rscale>  2 0.44603010E+03</rscale>
<asrwt>0</asrwt>
<pdfrwt beam="1">  1       21 0.39536375E-01 0.44603010E+03</pdfrwt>
<pdfrwt beam="2">  1       21 0.27205310E-01 0.44603010E+03</pdfrwt>
<totfact> 0.73767794E+04</totfact>
</mgrwt>
</event>
<event>
 7    0  0.4732500E-002  0.4517948E+03  0.7546771E-02  0.1027188E+00
         21   -1    0    0  502  501  0.00000000000E+00  0.00000000000E+00  0.40361566595E+03  0.40361566595E+03  0.00000000000E+00 0. -1.
         21   -1    0    0  501  502 -0.00000000000E+00 -0.00000000000E+00 -0.12643127348E+03  0.12643127348E+03  0.00000000000E+00 0. -1.
      99926    2    1    2    0    0  0.00000000000E+00 -0.22204460493E-15  0.27718439248E+03  0.53004693943E+03  0.45179483238E+03 0.  0.
      99925    2    3    3    0    0  0.69088391866E+02 -0.12530926105E+01  0.27561602852E+03  0.38713177579E+03  0.26292972544E+03 0.  0.
         25    1    4    4    0    0 -0.68663476039E+01 -0.55557985032E+01  0.13083248027E+03  0.18122543867E+03  0.12509000000E+03 0.  0.
         25    1    3    3    0    0 -0.69088391866E+02  0.12530926105E+01  0.15683639604E+01  0.14291516364E+03  0.12509000000E+03 0.  0.
         25    1    4    4    0    0  0.75954739470E+02  0.43027058928E+01  0.14478354824E+03  0.20590633712E+03  0.12509000000E+03 0.  0.
<mgrwt>
<rscale>  2 0.45179483E+03</rscale>
<asrwt>0</asrwt>
<pdfrwt beam="1">  1       21 0.59355245E-01 0.45179483E+03</pdfrwt>
<pdfrwt beam="2">  1       21 0.18592834E-01 0.45179483E+03</pdfrwt>
<totfact> 0.64833951E+04</totfact>
</mgrwt>
</event>
<event>
 7    0  0.4732500E-002  0.4502729E+03  0.7546771E-02  0.1027641E+00
         21   -1    0    0  502  501  0.00000000000E+00  0.00000000000E+00  0.18236253903E+04  0.18236253903E+04  0.00000000000E+00 0.  1.
         21   -1    0    0  501  502 -0.00000000000E+00 -0.00000000000E+00 -0.27794310357E+02  0.27794310357E+02  0.00000000000E+00 0.  1.
      99926    2    1    2    0    0  0.00000000000E+00 -0.88817841970E-15  0.17958310800E+04  0.18514197007E+04  0.45027285094E+03 0.  0.
      99925    2    3    3    0    0  0.10846557206E+03  0.46236045994E+01  0.11311951158E+04  0.11664564674E+04  0.26312001480E+03 0.  0.
         25    1    4    4    0    0  0.19110114983E+02  0.26648510894E+02  0.50646926521E+03  0.52271786303E+03  0.12509000000E+03 0.  0.
         25    1    3    3    0    0 -0.10846557206E+03 -0.46236045994E+01  0.66463596414E+03  0.68496323329E+03  0.12509000000E+03 0.  0.
         25    1    4    4    0    0  0.89355457073E+02 -0.22024906295E+02  0.62472585062E+03  0.64373860436E+03  0.12509000000E+03 0.  0.
<mgrwt>
<rscale>  2 0.45027285E+03</rscale>
<asrwt>0</asrwt>
<pdfrwt beam="1">  1       21 0.26818012E+00 0.45027285E+03</pdfrwt>
<pdfrwt beam="2">  1       21 0.40873998E-02 0.45027285E+03</pdfrwt>
<totfact> 0.16902759E+04</totfact>
</mgrwt>
</event>
<event>
 7    0  0.4732500E-002  0.4579100E+03  0.7546771E-02  0.1025389E+00
         21   -1    0    0  502  501  0.00000000000E+00  0.00000000000E+00  0.30349670637E+03  0.30349670637E+03  0.00000000000E+00 0. -1.
         21   -1    0    0  501  502 -0.00000000000E+00 -0.00000000000E+00 -0.17272148785E+03  0.17272148785E+03  0.00000000000E+00 0. -1.
      99926    2    1    2    0    0  0.00000000000E+00  0.00000000000E+00  0.13077521851E+03  0.47621819422E+03  0.45791004655E+03 0.  0.
      99925    2    3    3    0    0  0.36136975025E+02 -0.40214921127E+02  0.18824599129E+03  0.32832120754E+03  0.26350548617E+03 0.  0.
         25    1    4    4    0    0  0.19287221160E+02 -0.54335068991E+02  0.68776960200E+02  0.15395478225E+03  0.12509000000E+03 0.  0.
         25    1    4    4    0    0  0.16849753865E+02  0.14120147863E+02  0.11946903109E+03  0.17436642530E+03  0.12509000000E+03 0.  0.
         25    1    3    3    0    0 -0.36136975025E+02  0.40214921127E+02 -0.57470772777E+02  0.14789698668E+03  0.12509000000E+03 0.  0.
<mgrwt>
<rscale>  2 0.45791005E+03</rscale>
<asrwt>0</asrwt>
<pdfrwt beam="1">  1       21 0.44631869E-01 0.45791005E+03</pdfrwt>
<pdfrwt beam="2">  1       21 0.25400219E-01 0.45791005E+03</pdfrwt>
<totfact> 0.65451858E+04</totfact>
</mgrwt>
</event>
<event>
 7    0  0.4732500E-002  0.4562442E+03  0.7546771E-02  0.1025876E+00
         21   -1    0    0  502  501  0.00000000000E+00  0.00000000000E+00  0.10869591211E+04  0.10869591211E+04  0.00000000000E+00 0.  1.
         21   -1    0    0  501  502 -0.00000000000E+00 -0.00000000000E+00 -0.47876403209E+02  0.47876403209E+02  0.00000000000E+00 0.  1.
      99926    2    1    2    0    0  0.00000000000E+00  0.00000000000E+00  0.10390827179E+04  0.11348355243E+04  0.45624420283E+03 0.  0.
      99925    2    3    3    0    0 -0.44466292970E+01  0.10643831581E+03  0.75634913176E+03  0.80782684490E+03  0.26300440041E+03 0.  0.
         25    1    3    3    0    0  0.44466292970E+01 -0.10643831581E+03  0.28273358611E+03  0.32700867940E+03  0.12509000000E+03 0.  0.
         25    1    4    4    0    0  0.33410932309E+02  0.55807653032E+02  0.32458848288E+03  0.35388695349E+03  0.12509000000E+03 0.  0.
         25    1    4    4    0    0 -0.37857561606E+02  0.50630662777E+02  0.43176064888E+03  0.45393989140E+03  0.12509000000E+03 0.  0.
<mgrwt>
<rscale>  2 0.45624420E+03</rscale>
<asrwt>0</asrwt>
<pdfrwt beam="1">  1       21 0.15984691E+00 0.45624420E+03</pdfrwt>
<pdfrwt beam="2">  1       21 0.70406482E-02 0.45624420E+03</pdfrwt>
<totfact> 0.33962158E+04</totfact>
</mgrwt>
</event>
<event>
 7    0  0.4732500E-002  0.4590976E+03  0.7546771E-02  0.1025043E+00
         21   -1    0    0  502  501  0.00000000000E+00  0.00000000000E+00  0.67667789518E+02  0.67667789518E+02  0.00000000000E+00 0. -1.
         21   -1    0    0  501  502 -0.00000000000E+00 -0.00000000000E+00 -0.77869604865E+03  0.77869604865E+03  0.00000000000E+00 0. -1.
      99926    2    1    2    0    0  0.00000000000E+00  0.00000000000E+00 -0.71102825913E+03  0.84636383817E+03  0.45909755094E+03 0.  0.
      99925    2    3    3    0    0 -0.75603654354E+02  0.45716775995E+02 -0.58712311194E+03  0.64937163081E+03  0.26299055148E+03 0.  0.
         25    1    4    4    0    0 -0.21089920772E+02 -0.14508743781E+02 -0.29217190581E+03  0.31885297403E+03  0.12509000000E+03 0.  0.
         25    1    3    3    0    0  0.75603654354E+02 -0.45716775995E+02 -0.12390514719E+03  0.19699220736E+03  0.12509000000E+03 0.  0.
         25    1    4    4    0    0 -0.54513733581E+02  0.60225519775E+02 -0.29495120613E+03  0.33051865678E+03  0.12509000000E+03 0.  0.
<mgrwt>
<rscale>  2 0.45909755E+03</rscale>
<asrwt>0</asrwt>
<pdfrwt beam="1">  1       21 0.99511452E-02 0.45909755E+03</pdfrwt>
<pdfrwt beam="2">  1       21 0.11451413E+00 0.45909755E+03</pdfrwt>
<totfact> 0.44165563E+04</totfact>
</mgrwt>
</event>
<event>
 7    0  0.4732500E-002  0.4570435E+03  0.7546771E-02  0.1025642E+00
         21   -1    0    0  502  501  0.00000000000E+00  0.00000000000E+00  0.39756353715E+03  0.39756353715E+03  0.00000000000E+00 0. -1.
         21   -1    0    0  501  502 -0.00000000000E+00 -0.00000000000E+00 -0.13135557056E+03  0.13135557056E+03  0.00000000000E+00 0. -1.
      99926    2    1    2    0    0  0.35527136788E-14 -0.14210854715E-13  0.26620796659E+03  0.52891910771E+03  0.45704347827E+03 0.  0.
      99925    2    3    3    0    0  0.19033910788E+02 -0.11029825310E+03  0.13756891413E+03  0.31743977464E+03  0.26327705937E+03 0.  0.
         25    1    3    3    0    0 -0.19033910788E+02  0.11029825310E+03  0.12863905246E+03  0.21147933307E+03  0.12509000000E+03 0.  0.
         25    1    4    4    0    0  0.14576749866E+02 -0.36912921441E+02  0.10660370657E+03  0.16907662098E+03  0.12509000000E+03 0.  0.
         25    1    4    4    0    0  0.44571609221E+01 -0.73385331662E+02  0.30965207560E+02  0.14836315367E+03  0.12509000000E+03 0.  0.
<mgrwt>
<rscale>  2 0.45704348E+03</rscale>
<asrwt>0</asrwt>
<pdfrwt beam="1">  1       21 0.58465226E-01 0.45704348E+03</pdfrwt>
<pdfrwt beam="2">  1       21 0.19316996E-01 0.45704348E+03</pdfrwt>
<totfact> 0.62265085E+04</totfact>
</mgrwt>
</event>
<event>
 7    0  0.4732500E-002  0.4094327E+03  0.7546771E-02  0.1040562E+00
         21   -1    0    0  502  501  0.00000000000E+00  0.00000000000E+00  0.21984802303E+03  0.21984802303E+03  0.00000000000E+00 0.  1.
         21   -1    0    0  501  502 -0.00000000000E+00 -0.00000000000E+00 -0.19062616797E+03  0.19062616797E+03  0.00000000000E+00 0.  1.
      99926    2    1    2    0    0  0.00000000000E+00  0.00000000000E+00  0.29221855064E+02  0.41047419101E+03  0.40943271079E+03 0.  0.
      99925    2    3    3    0    0  0.22198578358E+02  0.55001344895E+02  0.32813804914E+01  0.26962554478E+03  0.26300046031E+03 0.  0.
         25    1    4    4    0    0  0.63687184046E+01  0.37811940047E+02 -0.37316197003E+02  0.13605260028E+03  0.12509000000E+03 0.  0.
         25    1    4    4    0    0  0.15829859954E+02  0.17189404848E+02  0.40597577494E+02  0.13357294450E+03  0.12509000000E+03 0.  0.
         25    1    3    3    0    0 -0.22198578358E+02 -0.55001344895E+02  0.25940474573E+02  0.14084864622E+03  0.12509000000E+03 0.  0.
<mgrwt>
<rscale>  2 0.40943271E+03</rscale>
<asrwt>0</asrwt>
<pdfrwt beam="1">  1       21 0.32330592E-01 0.40943271E+03</pdfrwt>
<pdfrwt beam="2">  1       21 0.28033260E-01 0.40943271E+03</pdfrwt>
<totfact> 0.10533521E+05</totfact>
</mgrwt>
</event>
<event>
 7    0  0.4732500E-002  0.4596470E+03  0.7546771E-02  0.1024884E+00
         21   -1    0    0  502  501  0.00000000000E+00  0.00000000000E+00  0.40700688650E+03  0.40700688650E+03  0.00000000000E+00 0. -1.
         21   -1    0    0  501  502 -0.00000000000E+00 -0.00000000000E+00 -0.12977380407E+03  0.12977380407E+03  0.00000000000E+00 0. -1.
      99926    2    1    2    0    0  0.14210854715E-13  0.00000000000E+00  0.27723308243E+03  0.53678069056E+03  0.45964695992E+03 0.  0.
      99925    2    3    3    0    0  0.70356097662E+02  0.11805632308E+02  0.28269362561E+03  0.39267420541E+03  0.26303610436E+03 0.  0.
         25    1    4    4    0    0  0.61639850172E+02 -0.37108940931E+01  0.10482481945E+03  0.17449639749E+03  0.12509000000E+03 0.  0.
         25    1    4    4    0    0  0.87162474902E+01  0.15516526402E+02  0.17786880617E+03  0.21817780792E+03  0.12509000000E+03 0.  0.
         25    1    3    3    0    0 -0.70356097662E+02 -0.11805632308E+02 -0.54605431801E+01  0.14410648516E+03  0.12509000000E+03 0.  0.
<mgrwt>
<rscale>  2 0.45964696E+03</rscale>
<asrwt>0</asrwt>
<pdfrwt beam="1">  1       21 0.59853954E-01 0.45964696E+03</pdfrwt>
<pdfrwt beam="2">  1       21 0.19084383E-01 0.45964696E+03</pdfrwt>
<totfact> 0.60491139E+04</totfact>
</mgrwt>
</event>
<event>
 7    0  0.4732500E-002  0.4567437E+03  0.7546771E-02  0.1025730E+00
         21   -1    0    0  502  501  0.00000000000E+00  0.00000000000E+00  0.60641351060E+02  0.60641351060E+02  0.00000000000E+00 0. -1.
         21   -1    0    0  501  502 -0.00000000000E+00 -0.00000000000E+00 -0.86003524611E+03  0.86003524611E+03  0.00000000000E+00 0. -1.
      99926    2    1    2    0    0  0.00000000000E+00 -0.35527136788E-14 -0.79939389505E+03  0.92067659717E+03  0.45674368866E+03 0.  0.
      99925    2    3    3    0    0 -0.95973604996E+02  0.14202583823E+02 -0.37834670941E+03  0.47085342427E+03  0.26295259721E+03 0.  0.
         25    1    3    3    0    0  0.95973604996E+02 -0.14202583823E+02 -0.42104718564E+03  0.44982317290E+03  0.12509000000E+03 0.  0.
         25    1    4    4    0    0 -0.51317842224E+02  0.47562664250E+02 -0.19232604109E+03  0.23985942162E+03  0.12509000000E+03 0.  0.
         25    1    4    4    0    0 -0.44655762772E+02 -0.33360080427E+02 -0.18602066832E+03  0.23099400265E+03  0.12509000000E+03 0.  0.
<mgrwt>
<rscale>  2 0.45674369E+03</rscale>
<asrwt>0</asrwt>
<pdfrwt beam="1">  1       21 0.89178470E-02 0.45674369E+03</pdfrwt>
<pdfrwt beam="2">  1       21 0.12647575E+00 0.45674369E+03</pdfrwt>
<totfact> 0.41778806E+04</totfact>
</mgrwt>
</event>
<event>
 7    0  0.4732500E-002  0.4408487E+03  0.7546771E-02  0.1030487E+00
         21   -1    0    0  502  501  0.00000000000E+00  0.00000000000E+00  0.20050552191E+03  0.20050552191E+03  0.00000000000E+00 0.  1.
         21   -1    0    0  501  502 -0.00000000000E+00 -0.00000000000E+00 -0.24232202074E+03  0.24232202074E+03  0.00000000000E+00 0.  1.
      99926    2    1    2    0    0 -0.41633363423E-15  0.00000000000E+00 -0.41816498835E+02  0.44282754265E+03  0.44084874158E+03 0.  0.
      99925    2    3    3    0    0  0.17429728738E+00 -0.91506316128E+02 -0.65403022397E+02  0.28605615347E+03  0.26301545835E+03 0.  0.
         25    1    3    3    0    0 -0.17429728738E+00  0.91506316128E+02  0.23586523562E+02  0.15677138918E+03  0.12509000000E+03 0.  0.
         25    1    4    4    0    0 -0.12030130573E+02 -0.33257022346E+02  0.61561915604E+01  0.13013900404E+03  0.12509000000E+03 0.  0.
         25    1    4    4    0    0  0.12204427860E+02 -0.58249293782E+02 -0.71559213957E+02  0.15591714943E+03  0.12509000000E+03 0.  0.
<mgrwt>
<rscale>  2 0.44084874E+03</rscale>
<asrwt>0</asrwt>
<pdfrwt beam="1">  1       21 0.29486106E-01 0.44084874E+03</pdfrwt>
<pdfrwt beam="2">  1       21 0.35635591E-01 0.44084874E+03</pdfrwt>
<totfact> 0.77875063E+04</totfact>
</mgrwt>
</event>
<event>
 7    0  0.4732500E-002  0.4566649E+03  0.7546771E-02  0.1025753E+00
         21   -1    0    0  502  501  0.00000000000E+00  0.00000000000E+00  0.86473220126E+03  0.86473220126E+03  0.00000000000E+00 0.  1.
         21   -1    0    0  501  502 -0.00000000000E+00 -0.00000000000E+00 -0.60291148668E+02  0.60291148668E+02  0.00000000000E+00 0.  1.
      99926    2    1    2    0    0  0.00000000000E+00 -0.14210854715E-13  0.80444105259E+03  0.92502334993E+03  0.45666485612E+03 0.  0.
      99925    2    3    3    0    0 -0.61170914532E+02  0.76420127874E+02  0.38459379885E+03  0.47613456492E+03  0.26307758755E+03 0.  0.
         25    1    4    4    0    0 -0.43156956135E+01  0.68713800726E+02  0.18496722109E+03  0.23366769699E+03  0.12509000000E+03 0.  0.
         25    1    4    4    0    0 -0.56855218918E+02  0.77063271487E+01  0.19962657776E+03  0.24246686793E+03  0.12509000000E+03 0.  0.
         25    1    3    3    0    0  0.61170914532E+02 -0.76420127874E+02  0.41984725374E+03  0.44888878501E+03  0.12509000000E+03 0.  0.
<mgrwt>
<rscale>  2 0.45666486E+03</rscale>
<asrwt>0</asrwt>
<pdfrwt beam="1">  1       21 0.12716649E+00 0.45666486E+03</pdfrwt>
<pdfrwt beam="2">  1       21 0.88663459E-02 0.45666486E+03</pdfrwt>
<totfact> 0.41624436E+04</totfact>
</mgrwt>
</event>
<event>
 7    0  0.4732500E-002  0.4525190E+03  0.7546771E-02  0.1026974E+00
         21   -1    0    0  502  501  0.00000000000E+00  0.00000000000E+00  0.70391571754E+02  0.70391571754E+02  0.00000000000E+00 0. -1.
         21   -1    0    0  501  502 -0.00000000000E+00 -0.00000000000E+00 -0.72726538231E+03  0.72726538231E+03  0.00000000000E+00 0. -1.
      99926    2    1    2    0    0  0.00000000000E+00  0.71054273576E-14 -0.65687381056E+03  0.79765695407E+03  0.45251896466E+03 0.  0.
      99925    2    3    3    0    0  0.80067951803E+02  0.50970470638E+02 -0.51523778668E+03  0.58619268488E+03  0.26295060601E+03 0.  0.
         25    1    3    3    0    0 -0.80067951803E+02 -0.50970470638E+02 -0.14163602388E+03  0.21146426919E+03  0.12509000000E+03 0.  0.
         25    1    4    4    0    0  0.42237313517E+02  0.34415997008E+02 -0.34456911548E+03  0.37059929161E+03  0.12509000000E+03 0.  0.
         25    1    4    4    0    0  0.37830638286E+02  0.16554473630E+02 -0.17066867120E+03  0.21559339326E+03  0.12509000000E+03 0.  0.
<mgrwt>
<rscale>  2 0.45251896E+03</rscale>
<asrwt>0</asrwt>
<pdfrwt beam="1">  1       21 0.10351702E-01 0.45251896E+03</pdfrwt>
<pdfrwt beam="2">  1       21 0.10695079E+00 0.45251896E+03</pdfrwt>
<totfact> 0.48822050E+04</totfact>
</mgrwt>
</event>
<event>
 7    0  0.4732500E-002  0.4397891E+03  0.7546771E-02  0.1030812E+00
         21   -1    0    0  502  501  0.00000000000E+00  0.00000000000E+00  0.12484361442E+03  0.12484361442E+03  0.00000000000E+00 0.  1.
         21   -1    0    0  501  502 -0.00000000000E+00 -0.00000000000E+00 -0.38731352597E+03  0.38731352597E+03  0.00000000000E+00 0.  1.
      99926    2    1    2    0    0  0.00000000000E+00 -0.35527136788E-14 -0.26246991155E+03  0.51215714039E+03  0.43978913355E+03 0.  0.
      99925    2    3    3    0    0  0.75315119331E+02  0.18756891712E+02 -0.23730903743E+03  0.36280933869E+03  0.26323154980E+03 0.  0.
         25    1    4    4    0    0  0.64293288426E+02 -0.10385294739E+02 -0.15647612239E+03  0.21065081595E+03  0.12509000000E+03 0.  0.
         25    1    4    4    0    0  0.11021830905E+02  0.29142186451E+02 -0.80832915046E+02  0.15215852274E+03  0.12509000000E+03 0.  0.
         25    1    3    3    0    0 -0.75315119331E+02 -0.18756891712E+02 -0.25160874115E+02  0.14934780170E+03  0.12509000000E+03 0.  0.
<mgrwt>
<rscale>  2 0.43978913E+03</rscale>
<asrwt>0</asrwt>
<pdfrwt beam="1">  1       21 0.18359355E-01 0.43978913E+03</pdfrwt>
<pdfrwt beam="2">  1       21 0.56957872E-01 0.43978913E+03</pdfrwt>
<totfact> 0.72821597E+04</totfact>
</mgrwt>
</event>
<event>
 7    0  0.4732500E-002  0.4255438E+03  0.7546771E-02  0.1035277E+00
         21   -1    0    0  502  501  0.00000000000E+00  0.00000000000E+00  0.13301367415E+03  0.13301367415E+03  0.00000000000E+00 0. -1.
         21   -1    0    0  501  502 -0.00000000000E+00 -0.00000000000E+00 -0.34035506252E+03  0.34035506252E+03  0.00000000000E+00 0. -1.
      99926    2    1    2    0    0 -0.35527136788E-14  0.14210854715E-13 -0.20734138837E+03  0.47336873667E+03  0.42554378098E+03 0.  0.
      99925    2    3    3    0    0 -0.12882272679E+02  0.71986521938E+02 -0.17704921222E+03  0.32533787393E+03  0.26296443937E+03 0.  0.
         25    1    4    4    0    0  0.95537098245E+01  0.69172704456E+02 -0.11592424683E+03  0.18428802326E+03  0.12509000000E+03 0.  0.
         25    1    3    3    0    0  0.12882272679E+02 -0.71986521938E+02 -0.30292176147E+02  0.14803086275E+03  0.12509000000E+03 0.  0.
         25    1    4    4    0    0 -0.22435982503E+02  0.28138174819E+01 -0.61124965392E+02  0.14104985067E+03  0.12509000000E+03 0.  0.
<mgrwt>
<rscale>  2 0.42554378E+03</rscale>
<asrwt>0</asrwt>
<pdfrwt beam="1">  1       21 0.19560835E-01 0.42554378E+03</pdfrwt>
<pdfrwt beam="2">  1       21 0.50052215E-01 0.42554378E+03</pdfrwt>
<totfact> 0.85495509E+04</totfact>
</mgrwt>
</event>
<event>
 7    0  0.4732500E-002  0.4541263E+03  0.7546771E-02  0.1026499E+00
         21   -1    0    0  502  501  0.00000000000E+00  0.00000000000E+00  0.19476197856E+03  0.19476197856E+03  0.00000000000E+00 0.  1.
         21   -1    0    0  501  502 -0.00000000000E+00 -0.00000000000E+00 -0.26472146468E+03  0.26472146468E+03  0.00000000000E+00 0.  1.
      99926    2    1    2    0    0  0.14210854715E-13 -0.71054273576E-14 -0.69959486115E+02  0.45948344324E+03  0.45412630943E+03 0.  0.
      99925    2    3    3    0    0 -0.10273700674E+03  0.44958206303E+02 -0.49214836338E+02  0.29020857369E+03  0.26310222967E+03 0.  0.
         25    1    4    4    0    0 -0.77328643380E+02 -0.87517620575E+01 -0.19960526044E+02  0.14866823173E+03  0.12509000000E+03 0.  0.
         25    1    3    3    0    0  0.10273700674E+03 -0.44958206303E+02 -0.20744649777E+02  0.16927486956E+03  0.12509000000E+03 0.  0.
         25    1    4    4    0    0 -0.25408363363E+02  0.53709968360E+02 -0.29254310294E+02  0.14154034196E+03  0.12509000000E+03 0.  0.
<mgrwt>
<rscale>  2 0.45412631E+03</rscale>
<asrwt>0</asrwt>
<pdfrwt beam="1">  1       21 0.28641468E-01 0.45412631E+03</pdfrwt>
<pdfrwt beam="2">  1       21 0.38929627E-01 0.45412631E+03</pdfrwt>
<totfact> 0.68695598E+04</totfact>
</mgrwt>
</event>
<event>
 7    0  0.4732500E-002  0.4519244E+03  0.7546771E-02  0.1027150E+00
         21   -1    0    0  502  501  0.00000000000E+00  0.00000000000E+00  0.16819814381E+04  0.16819814381E+04  0.00000000000E+00 0. -1.
         21   -1    0    0  501  502 -0.00000000000E+00 -0.00000000000E+00 -0.30356404085E+02  0.30356404085E+02  0.00000000000E+00 0. -1.
      99926    2    1    2    0    0  0.00000000000E+00  0.00000000000E+00  0.16516250340E+04  0.17123378421E+04  0.45192436623E+03 0.  0.
      99925    2    3    3    0    0  0.93315208399E+02 -0.55330224890E+02  0.11134083157E+04  0.11492269242E+04  0.26320198343E+03 0.  0.
         25    1    3    3    0    0 -0.93315208399E+02  0.55330224890E+02  0.53821671831E+03  0.56311091792E+03  0.12509000000E+03 0.  0.
         25    1    4    4    0    0  0.16217543483E+02 -0.34833111376E+02  0.41132672168E+03  0.43164051528E+03  0.12509000000E+03 0.  0.
         25    1    4    4    0    0  0.77097664916E+02 -0.20497113514E+02  0.70208159397E+03  0.71758640894E+03  0.12509000000E+03 0.  0.
<mgrwt>
<rscale>  2 0.45192437E+03</rscale>
<asrwt>0</asrwt>
<pdfrwt beam="1">  1       21 0.24735015E+00 0.45192437E+03</pdfrwt>
<pdfrwt beam="2">  1       21 0.44641782E-02 0.45192437E+03</pdfrwt>
<totfact> 0.19466944E+04</totfact>
</mgrwt>
</event>
<event>
 7    0  0.4732500E-002  0.4610583E+03  0.7546771E-02  0.1024475E+00
         21   -1    0    0  502  501  0.00000000000E+00  0.00000000000E+00  0.82153849544E+02  0.82153849544E+02  0.00000000000E+00 0. -1.
         21   -1    0    0  501  502 -0.00000000000E+00 -0.00000000000E+00 -0.64687997365E+03  0.64687997365E+03  0.00000000000E+00 0. -1.
      99926    2    1    2    0    0  0.14210854715E-13  0.00000000000E+00 -0.56472612411E+03  0.72903382320E+03  0.46105826108E+03 0.  0.
      99925    2    3    3    0    0  0.10441238337E+03 -0.95979292221E+01 -0.26539523325E+03  0.38809312986E+03  0.26303532381E+03 0.  0.
         25    1    3    3    0    0 -0.10441238337E+03  0.95979292221E+01 -0.29933089086E+03  0.34094069333E+03  0.12509000000E+03 0.  0.
         25    1    4    4    0    0  0.45615412555E+02  0.35430591041E+02 -0.12724023313E+03  0.18754646803E+03  0.12509000000E+03 0.  0.
         25    1    4    4    0    0  0.58796970818E+02 -0.45028520264E+02 -0.13815500012E+03  0.20054666183E+03  0.12509000000E+03 0.  0.
<mgrwt>
<rscale>  2 0.46105826E+03</rscale>
<asrwt>0</asrwt>
<pdfrwt beam="1">  1       21 0.12081448E-01 0.46105826E+03</pdfrwt>
<pdfrwt beam="2">  1       21 0.95129408E-01 0.46105826E+03</pdfrwt>
<totfact> 0.48979360E+04</totfact>
</mgrwt>
</event>
<event>
 7    0  0.4732500E-002  0.4543152E+03  0.7546771E-02  0.1026443E+00
         21   -1    0    0  502  501  0.00000000000E+00  0.00000000000E+00  0.16652388712E+04  0.16652388712E+04  0.00000000000E+00 0.  1.
         21   -1    0    0  501  502 -0.00000000000E+00 -0.00000000000E+00 -0.30986887184E+02  0.30986887184E+02  0.00000000000E+00 0.  1.
      99926    2    1    2    0    0 -0.88817841970E-15  0.00000000000E+00  0.16342519840E+04  0.16962257584E+04  0.45431517270E+03 0.  0.
      99925    2    3    3    0    0  0.49047355567E+01 -0.98484014279E+02  0.82717067678E+03  0.87357704715E+03  0.26306343587E+03 0.  0.
         25    1    4    4    0    0 -0.32774022708E+02 -0.34093932287E+02  0.44203303447E+03  0.46181949336E+03  0.12509000000E+03 0.  0.
         25    1    4    4    0    0  0.37678758264E+02 -0.64390081992E+02  0.38513764230E+03  0.41175755379E+03  0.12509000000E+03 0.  0.
         25    1    3    3    0    0 -0.49047355567E+01  0.98484014279E+02  0.80708130724E+03  0.82264871123E+03  0.12509000000E+03 0.  0.
<mgrwt>
<rscale>  2 0.45431517E+03</rscale>
<asrwt>0</asrwt>
<pdfrwt beam="1">  1       21 0.24488801E+00 0.45431517E+03</pdfrwt>
<pdfrwt beam="2">  1       21 0.45568963E-02 0.45431517E+03</pdfrwt>
<totfact> 0.19443433E+04</totfact>
</mgrwt>
</event>
<event>
 7    0  0.4732500E-002  0.4566623E+03  0.7546771E-02  0.1025754E+00
         21   -1    0    0  502  501  0.00000000000E+00  0.00000000000E+00  0.78101165968E+02  0.78101165968E+02  0.00000000000E+00 0.  1.
         21   -1    0    0  501  502 -0.00000000000E+00 -0.00000000000E+00 -0.66753323188E+03  0.66753323188E+03  0.00000000000E+00 0.  1.
      99926    2    1    2    0    0 -0.14210854715E-13 -0.14210854715E-13 -0.58943206592E+03  0.74563439785E+03  0.45666234236E+03 0.  0.
      99925    2    3    3    0    0  0.90330243096E+02  0.69994899046E+02 -0.35256366130E+03  0.45440770279E+03  0.26291897303E+03 0.  0.
         25    1    4    4    0    0  0.15550526428E+02  0.19055693441E+02 -0.11875290084E+03  0.17422599658E+03  0.12509000000E+03 0.  0.
         25    1    4    4    0    0  0.74779716668E+02  0.50939205605E+02 -0.23381076046E+03  0.28018170621E+03  0.12509000000E+03 0.  0.
         25    1    3    3    0    0 -0.90330243096E+02 -0.69994899046E+02 -0.23686840462E+03  0.29122669506E+03  0.12509000000E+03 0.  0.
<mgrwt>
<rscale>  2 0.45666234E+03</rscale>
<asrwt>0</asrwt>
<pdfrwt beam="1">  1       21 0.11485466E-01 0.45666234E+03</pdfrwt>
<pdfrwt beam="2">  1       21 0.98166651E-01 0.45666234E+03</pdfrwt>
<totfact> 0.49839901E+04</totfact>
</mgrwt>
</event>
<event>
 7    0  0.4732500E-002  0.4639099E+03  0.7546771E-02  0.1023653E+00
         21   -1    0    0  502  501  0.00000000000E+00  0.00000000000E+00  0.18338553981E+03  0.18338553981E+03  0.00000000000E+00 0.  1.
         21   -1    0    0  501  502 -0.00000000000E+00 -0.00000000000E+00 -0.29338794109E+03  0.29338794109E+03  0.00000000000E+00 0.  1.
      99926    2    1    2    0    0 -0.35527136788E-14  0.00000000000E+00 -0.11000240128E+03  0.47677348090E+03  0.46390993070E+03 0.  0.
      99925    2    3    3    0    0  0.27644744287E+02  0.10489831346E+03 -0.12441524151E+03  0.31057141678E+03  0.26307330642E+03 0.  0.
         25    1    3    3    0    0 -0.27644744287E+02 -0.10489831346E+03  0.14412840233E+02  0.16620206412E+03  0.12509000000E+03 0.  0.
         25    1    4    4    0    0  0.19024786817E+02  0.44530318866E+02 -0.17901424509E+02  0.13532501953E+03  0.12509000000E+03 0.  0.
         25    1    4    4    0    0  0.86199574701E+01  0.60367994593E+02 -0.10651381700E+03  0.17524639725E+03  0.12509000000E+03 0.  0.
<mgrwt>
<rscale>  2 0.46390993E+03</rscale>
<asrwt>0</asrwt>
<pdfrwt beam="1">  1       21 0.26968462E-01 0.46390993E+03</pdfrwt>
<pdfrwt beam="2">  1       21 0.43145285E-01 0.46390993E+03</pdfrwt>
<totfact> 0.62406155E+04</totfact>
</mgrwt>
</event>
<event>
 7    0  0.4732500E-002  0.4521762E+03  0.7546771E-02  0.1027075E+00
         21   -1    0    0  502  501  0.00000000000E+00  0.00000000000E+00  0.53861902377E+03  0.53861902377E+03  0.00000000000E+00 0. -1.
         21   -1    0    0  501  502 -0.00000000000E+00 -0.00000000000E+00 -0.94901630083E+02  0.94901630083E+02  0.00000000000E+00 0. -1.
      99926    2    1    2    0    0  0.00000000000E+00 -0.17763568394E-14  0.44371739369E+03  0.63352065386E+03  0.45217617518E+03 0.  0.
      99925    2    3    3    0    0  0.11005736106E+03  0.66182470487E+01  0.26920525243E+03  0.39215284435E+03  0.26297521077E+03 0.  0.
         25    1    3    3    0    0 -0.11005736106E+03 -0.66182470487E+01  0.17451214126E+03  0.24136780950E+03  0.12509000000E+03 0.  0.
         25    1    4    4    0    0  0.55093945925E+02 -0.20841087454E+02  0.89353841657E+02  0.16462475793E+03  0.12509000000E+03 0.  0.
         25    1    4    4    0    0  0.54963415137E+02  0.27459334503E+02  0.17985141078E+03  0.22752808643E+03  0.12509000000E+03 0.  0.
<mgrwt>
<rscale>  2 0.45217618E+03</rscale>
<asrwt>0</asrwt>
<pdfrwt beam="1">  1       21 0.79208679E-01 0.45217618E+03</pdfrwt>
<pdfrwt beam="2">  1       21 0.13956122E-01 0.45217618E+03</pdfrwt>
<totfact> 0.57941668E+04</totfact>
</mgrwt>
</event>
<event>
 7    0  0.4732500E-002  0.4556963E+03  0.7546771E-02  0.1026037E+00
         21   -1    0    0  502  501  0.00000000000E+00  0.00000000000E+00  0.11023213686E+03  0.11023213686E+03  0.00000000000E+00 0. -1.
         21   -1    0    0  501  502 -0.00000000000E+00 -0.00000000000E+00 -0.47095857231E+03  0.47095857231E+03  0.00000000000E+00 0. -1.
      99926    2    1    2    0    0  0.00000000000E+00  0.00000000000E+00 -0.36072643545E+03  0.58119070917E+03  0.45569625760E+03 0.  0.
      99925    2    3    3    0    0 -0.80558121799E+02  0.71466035393E+02 -0.17986907903E+03  0.33633586100E+03  0.26300555241E+03 0.  0.
         25    1    4    4    0    0 -0.11161482878E+02  0.17433161507E+02 -0.11145598014E+03  0.16881480216E+03  0.12509000000E+03 0.  0.
         25    1    4    4    0    0 -0.69396638921E+02  0.54032873886E+02 -0.68413098897E+02  0.16752105884E+03  0.12509000000E+03 0.  0.
         25    1    3    3    0    0  0.80558121799E+02 -0.71466035393E+02 -0.18085735641E+03  0.24485484817E+03  0.12509000000E+03 0.  0.
<mgrwt>
<rscale>  2 0.45569626E+03</rscale>
<asrwt>0</asrwt>
<pdfrwt beam="1">  1       21 0.16210608E-01 0.45569626E+03</pdfrwt>
<pdfrwt beam="2">  1       21 0.69258615E-01 0.45569626E+03</pdfrwt>
<totfact> 0.59522919E+04</totfact>
</mgrwt>
</event>
<event>
 6    0  0.4732500E-002  0.4281902E+03  0.7546771E-02  0.1034433E+00
         21   -1    0    0  502  501  0.00000000000E+00  0.00000000000E+00  0.52051903033E+02  0.52051903033E+02  0.00000000000E+00 0.  1.
         21   -1    0    0  501  502 -0.00000000000E+00 -0.00000000000E+00 -0.88059632522E+03  0.88059632522E+03  0.00000000000E+00 0.  1.
      99926    2    1    2    0    0  0.00000000000E+00  0.00000000000E+00 -0.82854442219E+03  0.93264822826E+03  0.42819021256E+03 0.  0.
         25    1    3    3    0    0 -0.44031469454E+01  0.57241078341E+02 -0.42183068167E+03  0.44371675746E+03  0.12509000000E+03 0.  0.
         25    1    3    3    0    0  0.18540165663E+02 -0.70455190674E+02 -0.21359829980E+03  0.25802986923E+03  0.12509000000E+03 0.  0.
         25    1    3    3    0    0 -0.14137018717E+02  0.13214112333E+02 -0.19311544071E+03  0.23090160156E+03  0.12509000000E+03 0.  0.
<mgrwt>
<rscale>  2 0.42819021E+03</rscale>
<asrwt>0</asrwt>
<pdfrwt beam="1">  1       21 0.76546919E-02 0.42819021E+03</pdfrwt>
<pdfrwt beam="2">  1       21 0.12949945E+00 0.42819021E+03</pdfrwt>
<totfact> 0.51911371E+04</totfact>
</mgrwt>
</event>
<event>
 7    0  0.4732500E-002  0.4643109E+03  0.7546771E-02  0.1023538E+00
         21   -1    0    0  502  501  0.00000000000E+00  0.00000000000E+00  0.51000593882E+03  0.51000593882E+03  0.00000000000E+00 0.  1.
         21   -1    0    0  501  502 -0.00000000000E+00 -0.00000000000E+00 -0.10567750733E+03  0.10567750733E+03  0.00000000000E+00 0.  1.
      99926    2    1    2    0    0  0.00000000000E+00  0.00000000000E+00  0.40432843149E+03  0.61568344615E+03  0.46431091453E+03 0.  0.
      99925    2    3    3    0    0  0.60798240535E+02 -0.76057193582E+02  0.15555172624E+03  0.32069449734E+03  0.26299714511E+03 0.  0.
         25    1    3    3    0    0 -0.60798240535E+02  0.76057193582E+02  0.24877670525E+03  0.29498894881E+03  0.12509000000E+03 0.  0.
         25    1    4    4    0    0  0.65378689768E+02 -0.17423293867E+02  0.78373455750E+02  0.16238180597E+03  0.12509000000E+03 0.  0.
         25    1    4    4    0    0 -0.45804492333E+01 -0.58633899715E+02  0.77178270490E+02  0.15831269136E+03  0.12509000000E+03 0.  0.
<mgrwt>
<rscale>  2 0.46431091E+03</rscale>
<asrwt>0</asrwt>
<pdfrwt beam="1">  1       21 0.75000872E-01 0.46431091E+03</pdfrwt>
<pdfrwt beam="2">  1       21 0.15540810E-01 0.46431091E+03</pdfrwt>
<totfact> 0.53666410E+04</totfact>
</mgrwt>
</event>
<event>
 7    0  0.4732500E-002  0.4549123E+03  0.7546771E-02  0.1026267E+00
         21   -1    0    0  502  501  0.00000000000E+00  0.00000000000E+00  0.91626980570E+02  0.91626980570E+02  0.00000000000E+00 0. -1.
         21   -1    0    0  501  502 -0.00000000000E+00 -0.00000000000E+00 -0.56464046038E+03  0.56464046038E+03  0.00000000000E+00 0. -1.
      99926    2    1    2    0    0  0.00000000000E+00 -0.88817841970E-15 -0.47301347981E+03  0.65626744095E+03  0.45491230140E+03 0.  0.
      99925    2    3    3    0    0  0.40231083067E+02  0.37062337929E+01 -0.44877604791E+03  0.52259905494E+03  0.26472165539E+03 0.  0.
         25    1    4    4    0    0  0.15190162040E+02  0.34598162802E+02 -0.16956232602E+03  0.21407163380E+03  0.12509000000E+03 0.  0.
         25    1    3    3    0    0 -0.40231083067E+02 -0.37062337929E+01 -0.24237431900E+02  0.13366838601E+03  0.12509000000E+03 0.  0.
         25    1    4    4    0    0  0.25040921027E+02 -0.30891929009E+02 -0.27921372189E+03  0.30852742114E+03  0.12509000000E+03 0.  0.
<mgrwt>
<rscale>  2 0.45491230E+03</rscale>
<asrwt>0</asrwt>
<pdfrwt beam="1">  1       21 0.13474556E-01 0.45491230E+03</pdfrwt>
<pdfrwt beam="2">  1       21 0.83035359E-01 0.45491230E+03</pdfrwt>
<totfact> 0.55380155E+04</totfact>
</mgrwt>
</event>
<event>
 7    0  0.4732500E-002  0.4542054E+03  0.7546771E-02  0.1026475E+00
         21   -1    0    0  502  501  0.00000000000E+00  0.00000000000E+00  0.18033917234E+03  0.18033917234E+03  0.00000000000E+00 0. -1.
         21   -1    0    0  501  502 -0.00000000000E+00 -0.00000000000E+00 -0.28599238823E+03  0.28599238823E+03  0.00000000000E+00 0. -1.
      99926    2    1    2    0    0  0.00000000000E+00  0.00000000000E+00 -0.10565321589E+03  0.46633156058E+03  0.45420537465E+03 0.  0.
      99925    2    3    3    0    0 -0.92564747953E+01 -0.11032167915E+03 -0.46628539137E+02  0.28916504065E+03  0.26303164231E+03 0.  0.
         25    1    4    4    0    0  0.22370087176E+02 -0.68119435281E+02  0.41117382305E+01  0.14423970589E+03  0.12509000000E+03 0.  0.
         25    1    4    4    0    0 -0.31626561971E+02 -0.42202243869E+02 -0.50740277367E+02  0.14492533477E+03  0.12509000000E+03 0.  0.
         25    1    3    3    0    0  0.92564747953E+01  0.11032167915E+03 -0.59024676750E+02  0.17716651992E+03  0.12509000000E+03 0.  0.
<mgrwt>
<rscale>  2 0.45420537E+03</rscale>
<asrwt>0</asrwt>
<pdfrwt beam="1">  1       21 0.26520467E-01 0.45420537E+03</pdfrwt>
<pdfrwt beam="2">  1       21 0.42057704E-01 0.45420537E+03</pdfrwt>
<totfact> 0.68138248E+04</totfact>
</mgrwt>
</event>
<event>
 7    0  0.4732500E-002  0.4645083E+03  0.7546771E-02  0.1023482E+00
         21   -1    0    0  502  501  0.00000000000E+00  0.00000000000E+00  0.46921254001E+03  0.46921254001E+03  0.00000000000E+00 0.  1.
         21   -1    0    0  501  502 -0.00000000000E+00 -0.00000000000E+00 -0.11496282989E+03  0.11496282989E+03  0.00000000000E+00 0.  1.
      99926    2    1    2    0    0  0.00000000000E+00  0.00000000000E+00  0.35424971012E+03  0.58417536990E+03  0.46450834833E+03 0.  0.
      99925    2    3    3    0    0 -0.33645257545E+02  0.11278933300E+03  0.25979410427E+03  0.38815800697E+03  0.26328734258E+03 0.  0.
         25    1    4    4    0    0  0.19689378181E+02  0.73157528332E+02  0.14351997508E+03  0.20490287189E+03  0.12509000000E+03 0.  0.
         25    1    3    3    0    0  0.33645257545E+02 -0.11278933300E+03  0.94455605847E+02  0.19601736293E+03  0.12509000000E+03 0.  0.
         25    1    4    4    0    0 -0.53334635726E+02  0.39631804670E+02  0.11627412920E+03  0.18325513507E+03  0.12509000000E+03 0.  0.
<mgrwt>
<rscale>  2 0.46450835E+03</rscale>
<asrwt>0</asrwt>
<pdfrwt beam="1">  1       21 0.69001844E-01 0.46450835E+03</pdfrwt>
<pdfrwt beam="2">  1       21 0.16906299E-01 0.46450835E+03</pdfrwt>
<totfact> 0.55381456E+04</totfact>
</mgrwt>
</event>
<event>
 7    0  0.4732500E-002  0.4606786E+03  0.7546771E-02  0.1024585E+00
         21   -1    0    0  502  501  0.00000000000E+00  0.00000000000E+00  0.22651026779E+03  0.22651026779E+03  0.00000000000E+00 0. -1.
         21   -1    0    0  501  502 -0.00000000000E+00 -0.00000000000E+00 -0.23423302519E+03  0.23423302519E+03  0.00000000000E+00 0. -1.
      99926    2    1    2    0    0  0.35527136788E-14 -0.44408920985E-15 -0.77227573991E+01  0.46074329298E+03  0.46067856586E+03 0.  0.
      99925    2    3    3    0    0 -0.29902837218E+02  0.34013087064E+01  0.10983753651E+03  0.28646283114E+03  0.26285151821E+03 0.  0.
         25    1    3    3    0    0  0.29902837218E+02 -0.34013087064E+01 -0.11756029391E+03  0.17428046184E+03  0.12509000000E+03 0.  0.
         25    1    4    4    0    0 -0.52269379884E+02 -0.65046055244E+01  0.42011796976E+02  0.14208060090E+03  0.12509000000E+03 0.  0.
         25    1    4    4    0    0  0.22366542666E+02  0.99059142308E+01  0.67825739534E+02  0.14438223025E+03  0.12509000000E+03 0.  0.
<mgrwt>
<rscale>  2 0.46067857E+03</rscale>
<asrwt>0</asrwt>
<pdfrwt beam="1">  1       21 0.33310334E-01 0.46067857E+03</pdfrwt>
<pdfrwt beam="2">  1       21 0.34446033E-01 0.46067857E+03</pdfrwt>
<totfact> 0.65125889E+04</totfact>
</mgrwt>
</event>
<event>
 7    0  0.4732500E-002  0.4547027E+03  0.7546771E-02  0.1026329E+00
         21   -1    0    0  502  501  0.00000000000E+00  0.00000000000E+00  0.11067717807E+03  0.11067717807E+03  0.00000000000E+00 0. -1.
         21   -1    0    0  501  502 -0.00000000000E+00 -0.00000000000E+00 -0.46702164759E+03  0.46702164759E+03  0.00000000000E+00 0. -1.
      99926    2    1    2    0    0  0.00000000000E+00 -0.14210854715E-13 -0.35634446952E+03  0.57769882566E+03  0.45470270750E+03 0.  0.
      99925    2    3    3    0    0 -0.72360134997E+02 -0.71926790176E+02 -0.28571886155E+03  0.40150309108E+03  0.26298291203E+03 0.  0.
         25    1    4    4    0    0 -0.52161367969E+02 -0.66519378798E+01 -0.17249653252E+03  0.21947122458E+03  0.12509000000E+03 0.  0.
         25    1    3    3    0    0  0.72360134997E+02  0.71926790176E+02 -0.70625607961E+02  0.17619573457E+03  0.12509000000E+03 0.  0.
         25    1    4    4    0    0 -0.20198767028E+02 -0.65274852296E+02 -0.11322232903E+03  0.18203186650E+03  0.12509000000E+03 0.  0.
<mgrwt>
<rscale>  2 0.45470271E+03</rscale>
<asrwt>0</asrwt>
<pdfrwt beam="1">  1       21 0.16276056E-01 0.45470271E+03</pdfrwt>
<pdfrwt beam="2">  1       21 0.68679654E-01 0.45470271E+03</pdfrwt>
<totfact> 0.60213803E+04</totfact>
</mgrwt>
</event>
<event>
 7    0  0.4732500E-002  0.4521971E+03  0.7546771E-02  0.1027069E+00
         21   -1    0    0  502  501  0.00000000000E+00  0.00000000000E+00  0.31804772981E+03  0.31804772981E+03  0.00000000000E+00 0. -1.
         21   -1    0    0  501  502 -0.00000000000E+00 -0.00000000000E+00 -0.16073236709E+03  0.16073236709E+03  0.00000000000E+00 0. -1.
      99926    2    1    2    0    0  0.00000000000E+00 -0.17763568394E-14  0.15731536272E+03  0.47878009690E+03  0.45219714489E+03 0.  0.
      99925    2    3    3    0    0 -0.10919909379E+03  0.14288597840E+02  0.89649379979E+02  0.29890569785E+03  0.26301900837E+03 0.  0.
         25    1    4    4    0    0 -0.51641807153E+02  0.47541883764E+02  0.42268221244E+02  0.14953667639E+03  0.12509000000E+03 0.  0.
         25    1    3    3    0    0  0.10919909379E+03 -0.14288597840E+02  0.67665982742E+02  0.17987439905E+03  0.12509000000E+03 0.  0.
         25    1    4    4    0    0 -0.57557286641E+02 -0.33253285923E+02  0.47381158735E+02  0.14936902146E+03  0.12509000000E+03 0.  0.
<mgrwt>
<rscale>  2 0.45219714E+03</rscale>
<asrwt>0</asrwt>
<pdfrwt beam="1">  1       21 0.46771725E-01 0.45219714E+03</pdfrwt>
<pdfrwt beam="2">  1       21 0.23637113E-01 0.45219714E+03</pdfrwt>
<totfact> 0.68295834E+04</totfact>
</mgrwt>
</event>
<event>
 7    0  0.4732500E-002  0.4545123E+03  0.7546771E-02  0.1026385E+00
         21   -1    0    0  502  501  0.00000000000E+00  0.00000000000E+00  0.10242698977E+03  0.10242698977E+03  0.00000000000E+00 0. -1.
         21   -1    0    0  501  502 -0.00000000000E+00 -0.00000000000E+00 -0.50421637171E+03  0.50421637171E+03  0.00000000000E+00 0. -1.
      99926    2    1    2    0    0  0.00000000000E+00  0.00000000000E+00 -0.40178938194E+03  0.60664336148E+03  0.45451233272E+03 0.  0.
      99925    2    3    3    0    0  0.10671636948E+03 -0.15014883232E+02 -0.29678320472E+03  0.41097109572E+03  0.26306489823E+03 0.  0.
         25    1    4    4    0    0  0.31831704047E+02  0.28138328006E+02 -0.13176584488E+03  0.18658716157E+03  0.12509000000E+03 0.  0.
         25    1    4    4    0    0  0.74884665435E+02 -0.43153211238E+02 -0.16501735983E+03  0.22438393415E+03  0.12509000000E+03 0.  0.
         25    1    3    3    0    0 -0.10671636948E+03  0.15014883232E+02 -0.10500617722E+03  0.19567226576E+03  0.12509000000E+03 0.  0.
<mgrwt>
<rscale>  2 0.45451233E+03</rscale>
<asrwt>0</asrwt>
<pdfrwt beam="1">  1       21 0.15062792E-01 0.45451233E+03</pdfrwt>
<pdfrwt beam="2">  1       21 0.74149468E-01 0.45451233E+03</pdfrwt>
<totfact> 0.58496231E+04</totfact>
</mgrwt>
</event>
<event>
 7    0  0.4732500E-002  0.4614476E+03  0.7546771E-02  0.1024362E+00
         21   -1    0    0  502  501  0.00000000000E+00  0.00000000000E+00  0.39097423103E+03  0.39097423103E+03  0.00000000000E+00 0. -1.
         21   -1    0    0  501  502 -0.00000000000E+00 -0.00000000000E+00 -0.13615595045E+03  0.13615595045E+03  0.00000000000E+00 0. -1.
      99926    2    1    2    0    0  0.00000000000E+00  0.88817841970E-15  0.25481828058E+03  0.52713018148E+03  0.46144758328E+03 0.  0.
      99925    2    3    3    0    0 -0.59605110320E+02 -0.43943064271E+01  0.27715937045E+03  0.38670685186E+03  0.26296918744E+03 0.  0.
         25    1    4    4    0    0 -0.11481673637E+02  0.75950866809E+01  0.18448107243E+03  0.22331656534E+03  0.12509000000E+03 0.  0.
         25    1    3    3    0    0  0.59605110320E+02  0.43943064271E+01 -0.22341089872E+02  0.14042332962E+03  0.12509000000E+03 0.  0.
         25    1    4    4    0    0 -0.48123436682E+02 -0.11989393108E+02  0.92678298018E+02  0.16339028652E+03  0.12509000000E+03 0.  0.
<mgrwt>
<rscale>  2 0.46144758E+03</rscale>
<asrwt>0</asrwt>
<pdfrwt beam="1">  1       21 0.57496210E-01 0.46144758E+03</pdfrwt>
<pdfrwt beam="2">  1       21 0.20022934E-01 0.46144758E+03</pdfrwt>
<totfact> 0.60261559E+04</totfact>
</mgrwt>
</event>
<event>
 7    0  0.4732500E-002  0.4321139E+03  0.7546771E-02  0.1033194E+00
         21   -1    0    0  502  501  0.00000000000E+00  0.00000000000E+00  0.44110770999E+03  0.44110770999E+03  0.00000000000E+00 0.  1.
         21   -1    0    0  501  502 -0.00000000000E+00 -0.00000000000E+00 -0.10582586133E+03  0.10582586133E+03  0.00000000000E+00 0.  1.
      99926    2    1    2    0    0  0.00000000000E+00  0.00000000000E+00  0.33528184866E+03  0.54693357132E+03  0.43211388939E+03 0.  0.
      99925    2    3    3    0    0  0.68163134957E+02 -0.33194744335E+02  0.15428445735E+03  0.31421986787E+03  0.26302533635E+03 0.  0.
         25    1    4    4    0    0 -0.98815072377E+00 -0.18187286295E+02  0.46955504513E+02  0.13484836420E+03  0.12509000000E+03 0.  0.
         25    1    3    3    0    0 -0.68163134957E+02  0.33194744335E+02  0.18099739130E+03  0.23271370346E+03  0.12509000000E+03 0.  0.
         25    1    4    4    0    0  0.69151285681E+02 -0.15007458041E+02  0.10732895284E+03  0.17937150366E+03  0.12509000000E+03 0.  0.
<mgrwt>
<rscale>  2 0.43211389E+03</rscale>
<asrwt>0</asrwt>
<pdfrwt beam="1">  1       21 0.64868780E-01 0.43211389E+03</pdfrwt>
<pdfrwt beam="2">  1       21 0.15562627E-01 0.43211389E+03</pdfrwt>
<totfact> 0.74706149E+04</totfact>
</mgrwt>
</event>
<event>
 7    0  0.4732500E-002  0.4520011E+03  0.7546771E-02  0.1027127E+00
         21   -1    0    0  502  501  0.00000000000E+00  0.00000000000E+00  0.14872191177E+03  0.14872191177E+03  0.00000000000E+00 0. -1.
         21   -1    0    0  501  502 -0.00000000000E+00 -0.00000000000E+00 -0.34343456985E+03  0.34343456985E+03  0.00000000000E+00 0. -1.
      99926    2    1    2    0    0  0.00000000000E+00  0.00000000000E+00 -0.19471265808E+03  0.49215648162E+03  0.45200108759E+03 0.  0.
      99925    2    3    3    0    0  0.30574921764E+02  0.86168905729E+02 -0.55553374625E+02  0.28389529842E+03  0.26296474455E+03 0.  0.
         25    1    4    4    0    0 -0.19277440931E+02  0.37188244607E+02 -0.52119283804E+01  0.13201991351E+03  0.12509000000E+03 0.  0.
         25    1    4    4    0    0  0.49852362695E+02  0.48980661122E+02 -0.50341446244E+02  0.15187538491E+03  0.12509000000E+03 0.  0.
         25    1    3    3    0    0 -0.30574921764E+02 -0.86168905729E+02 -0.13915928346E+03  0.20826118320E+03  0.12509000000E+03 0.  0.
<mgrwt>
<rscale>  2 0.45200109E+03</rscale>
<asrwt>0</asrwt>
<pdfrwt beam="1">  1       21 0.21870869E-01 0.45200109E+03</pdfrwt>
<pdfrwt beam="2">  1       21 0.50505085E-01 0.45200109E+03</pdfrwt>
<totfact> 0.67416022E+04</totfact>
</mgrwt>
</event>
<event>
 7    0  0.4732500E-002  0.4497838E+03  0.7546771E-02  0.1027787E+00
         21   -1    0    0  502  501  0.00000000000E+00  0.00000000000E+00  0.15718268476E+03  0.15718268476E+03  0.00000000000E+00 0. -1.
         21   -1    0    0  501  502 -0.00000000000E+00 -0.00000000000E+00 -0.32176812501E+03  0.32176812501E+03  0.00000000000E+00 0. -1.
      99926    2    1    2    0    0 -0.71054273576E-14  0.00000000000E+00 -0.16458544025E+03  0.47895080977E+03  0.44978384924E+03 0.  0.
      99925    2    3    3    0    0 -0.44802023831E+02 -0.88862049761E+02 -0.58925973036E+02  0.28733891990E+03  0.26303554772E+03 0.  0.
         25    1    4    4    0    0 -0.41860467851E+02 -0.31055948537E+02  0.45533281409E+01  0.13559134045E+03  0.12509000000E+03 0.  0.
         25    1    3    3    0    0  0.44802023831E+02  0.88862049761E+02 -0.10565946722E+03  0.19161188987E+03  0.12509000000E+03 0.  0.
         25    1    4    4    0    0 -0.29415559802E+01 -0.57806101223E+02 -0.63479301177E+02  0.15174757945E+03  0.12509000000E+03 0.  0.
<mgrwt>
<rscale>  2 0.44978385E+03</rscale>
<asrwt>0</asrwt>
<pdfrwt beam="1">  1       21 0.23115101E-01 0.44978385E+03</pdfrwt>
<pdfrwt beam="2">  1       21 0.47318841E-01 0.44978385E+03</pdfrwt>
<totfact> 0.69614606E+04</totfact>
</mgrwt>
</event>
<event>
 7    0  0.4732500E-002  0.4488455E+03  0.7546771E-02  0.1028067E+00
         21   -1    0    0  502  501  0.00000000000E+00  0.00000000000E+00  0.57656061253E+03  0.57656061253E+03  0.00000000000E+00 0.  1.
         21   -1    0    0  501  502 -0.00000000000E+00 -0.00000000000E+00 -0.87355214997E+02  0.87355214997E+02  0.00000000000E+00 0.  1.
      99926    2    1    2    0    0  0.00000000000E+00  0.00000000000E+00  0.48920539753E+03  0.66391582753E+03  0.44884552473E+03 0.  0.
      99925    2    3    3    0    0 -0.54519870189E+02  0.90710854885E+02  0.33616913853E+03  0.43970949374E+03  0.26293321157E+03 0.  0.
         25    1    4    4    0    0 -0.85211958183E+01  0.96498715848E+01  0.12642914380E+03  0.17831872393E+03  0.12509000000E+03 0.  0.
         25    1    4    4    0    0 -0.45998674370E+02  0.81060983300E+02  0.20973999473E+03  0.26139076982E+03  0.12509000000E+03 0.  0.
         25    1    3    3    0    0  0.54519870189E+02 -0.90710854885E+02  0.15303625900E+03  0.22420633378E+03  0.12509000000E+03 0.  0.
<mgrwt>
<rscale>  2 0.44884552E+03</rscale>
<asrwt>0</asrwt>
<pdfrwt beam="1">  1       21 0.84788323E-01 0.44884552E+03</pdfrwt>
<pdfrwt beam="2">  1       21 0.12846355E-01 0.44884552E+03</pdfrwt>
<totfact> 0.57652572E+04</totfact>
</mgrwt>
</event>
<event>
 7    0  0.4732500E-002  0.4388418E+03  0.7546771E-02  0.1031103E+00
         21   -1    0    0  502  501  0.00000000000E+00  0.00000000000E+00  0.22243649214E+03  0.22243649214E+03  0.00000000000E+00 0.  1.
         21   -1    0    0  501  502 -0.00000000000E+00 -0.00000000000E+00 -0.21644617375E+03  0.21644617375E+03  0.00000000000E+00 0.  1.
      99926    2    1    2    0    0  0.00000000000E+00  0.00000000000E+00  0.59903183811E+01  0.43888266589E+03  0.43884178300E+03 0.  0.
      99925    2    3    3    0    0 -0.42860838151E+01 -0.96040060763E+02 -0.13185111746E+02  0.27995730918E+03  0.26260271134E+03 0.  0.
         25    1    4    4    0    0 -0.48751952716E+01 -0.82742042231E+02  0.15730258323E+02  0.15088062238E+03  0.12509000000E+03 0.  0.
         25    1    4    4    0    0  0.58911145644E+00 -0.13298018532E+02 -0.28915370069E+02  0.12907668680E+03  0.12509000000E+03 0.  0.
         25    1    3    3    0    0  0.42860838151E+01  0.96040060763E+02  0.19175430127E+02  0.15892535671E+03  0.12509000000E+03 0.  0.
<mgrwt>
<rscale>  2 0.43884178E+03</rscale>
<asrwt>0</asrwt>
<pdfrwt beam="1">  1       21 0.32711249E-01 0.43884178E+03</pdfrwt>
<pdfrwt beam="2">  1       21 0.31830320E-01 0.43884178E+03</pdfrwt>
<totfact> 0.79510020E+04</totfact>
</mgrwt>
</event>
<event>
 7    0  0.4732500E-002  0.4583842E+03  0.7546771E-02  0.1025251E+00
         21   -1    0    0  502  501  0.00000000000E+00  0.00000000000E+00  0.62110057221E+02  0.62110057221E+02  0.00000000000E+00 0.  1.
         21   -1    0    0  501  502 -0.00000000000E+00 -0.00000000000E+00 -0.84574092261E+03  0.84574092261E+03  0.00000000000E+00 0.  1.
      99926    2    1    2    0    0  0.00000000000E+00  0.14210854715E-13 -0.78363086539E+03  0.90785097983E+03  0.45838419300E+03 0.  0.
      99925    2    3    3    0    0  0.31829121406E+02 -0.11094503700E+03 -0.52105126571E+03  0.59493334135E+03  0.26292463740E+03 0.  0.
         25    1    4    4    0    0  0.34724420848E+02 -0.18509449741E+02 -0.22188192864E+03  0.25773529733E+03  0.12509000000E+03 0.  0.
         25    1    4    4    0    0 -0.28952994414E+01 -0.92435587255E+02 -0.29916933707E+03  0.33719804403E+03  0.12509000000E+03 0.  0.
         25    1    3    3    0    0 -0.31829121406E+02  0.11094503700E+03 -0.26257959968E+03  0.31291763848E+03  0.12509000000E+03 0.  0.
<mgrwt>
<rscale>  2 0.45838419E+03</rscale>
<asrwt>0</asrwt>
<pdfrwt beam="1">  1       21 0.91338326E-02 0.45838419E+03</pdfrwt>
<pdfrwt beam="2">  1       21 0.12437366E+00 0.45838419E+03</pdfrwt>
<totfact> 0.41778114E+04</totfact>
</mgrwt>
</event>
<event>
 7    0  0.4732500E-002  0.4523110E+03  0.7546771E-02  0.1027035E+00
         21   -1    0    0  502  501  0.00000000000E+00  0.00000000000E+00  0.82705315422E+02  0.82705315422E+02  0.00000000000E+00 0.  1.
         21   -1    0    0  501  502 -0.00000000000E+00 -0.00000000000E+00 -0.61841629770E+03  0.61841629770E+03  0.00000000000E+00 0.  1.
      99926    2    1    2    0    0 -0.71054273576E-14  0.17763568394E-14 -0.53571098227E+03  0.70112161312E+03  0.45231102115E+03 0.  0.
      99925    2    3    3    0    0  0.46441501481E+02  0.21973569397E+01 -0.18247624726E+03  0.32351874295E+03  0.26306872636E+03 0.  0.
         25    1    3    3    0    0 -0.46441501481E+02 -0.21973569397E+01 -0.35323473501E+03  0.37760287016E+03  0.12509000000E+03 0.  0.
         25    1    4    4    0    0  0.79376852092E+01  0.38853535200E+02 -0.88989524705E+02  0.15855361128E+03  0.12509000000E+03 0.  0.
         25    1    4    4    0    0  0.38503816272E+02 -0.36656178261E+02 -0.93486722557E+02  0.16496513167E+03  0.12509000000E+03 0.  0.
<mgrwt>
<rscale>  2 0.45231102E+03</rscale>
<asrwt>0</asrwt>
<pdfrwt beam="1">  1       21 0.12162547E-01 0.45231102E+03</pdfrwt>
<pdfrwt beam="2">  1       21 0.90943569E-01 0.45231102E+03</pdfrwt>
<totfact> 0.53975230E+04</totfact>
</mgrwt>
</event>
<event>
 7    0  0.4732500E-002  0.4545278E+03  0.7546771E-02  0.1026380E+00
         21   -1    0    0  502  501  0.00000000000E+00  0.00000000000E+00  0.94029486112E+02  0.94029486112E+02  0.00000000000E+00 0.  1.
         21   -1    0    0  501  502 -0.00000000000E+00 -0.00000000000E+00 -0.54928380840E+03  0.54928380840E+03  0.00000000000E+00 0.  1.
      99926    2    1    2    0    0  0.00000000000E+00  0.00000000000E+00 -0.45525432229E+03  0.64331329451E+03  0.45452777356E+03 0.  0.
      99925    2    3    3    0    0 -0.83278544981E+02  0.44688630060E+02 -0.37355615864E+03  0.46652390639E+03  0.26299802634E+03 0.  0.
         25    1    4    4    0    0 -0.41930936409E+02 -0.55698369308E+01 -0.23057096305E+03  0.26570604738E+03  0.12509000000E+03 0.  0.
         25    1    3    3    0    0  0.83278544981E+02 -0.44688630060E+02 -0.81698163649E+02  0.17678938813E+03  0.12509000000E+03 0.  0.
         25    1    4    4    0    0 -0.41347608572E+02  0.50258466990E+02 -0.14298519559E+03  0.20081785901E+03  0.12509000000E+03 0.  0.
<mgrwt>
<rscale>  2 0.45452777E+03</rscale>
<asrwt>0</asrwt>
<pdfrwt beam="1">  1       21 0.13827866E-01 0.45452777E+03</pdfrwt>
<pdfrwt beam="2">  1       21 0.80777030E-01 0.45452777E+03</pdfrwt>
<totfact> 0.56297844E+04</totfact>
</mgrwt>
</event>
<event>
 7    0  0.4732500E-002  0.4558324E+03  0.7546771E-02  0.1025997E+00
         21   -1    0    0  502  501  0.00000000000E+00  0.00000000000E+00  0.56298077099E+03  0.56298077099E+03  0.00000000000E+00 0.  1.
         21   -1    0    0  501  502 -0.00000000000E+00 -0.00000000000E+00 -0.92269201554E+02  0.92269201554E+02  0.00000000000E+00 0.  1.
      99926    2    1    2    0    0  0.00000000000E+00  0.00000000000E+00  0.47071156943E+03  0.65524997254E+03  0.45583236493E+03 0.  0.
      99925    2    3    3    0    0  0.87716003646E+02  0.72674714209E+02  0.30512400715E+03  0.41851708453E+03  0.26283108440E+03 0.  0.
         25    1    4    4    0    0  0.55324237879E+02 -0.25058834671E+01  0.13887377454E+03  0.19493712859E+03  0.12509000000E+03 0.  0.
         25    1    3    3    0    0 -0.87716003646E+02 -0.72674714209E+02  0.16558756229E+03  0.23673288801E+03  0.12509000000E+03 0.  0.
         25    1    4    4    0    0  0.32391765767E+02  0.75180597676E+02  0.16625023261E+03  0.22357995594E+03  0.12509000000E+03 0.  0.
<mgrwt>
<rscale>  2 0.45583236E+03</rscale>
<asrwt>0</asrwt>
<pdfrwt beam="1">  1       21 0.82791288E-01 0.45583236E+03</pdfrwt>
<pdfrwt beam="2">  1       21 0.13569001E-01 0.45583236E+03</pdfrwt>
<totfact> 0.55037818E+04</totfact>
</mgrwt>
</event>
<event>
 7    0  0.4732500E-002  0.4559418E+03  0.7546771E-02  0.1025965E+00
         21   -1    0    0  502  501  0.00000000000E+00  0.00000000000E+00  0.32027988483E+03  0.32027988483E+03  0.00000000000E+00 0. -1.
         21   -1    0    0  501  502 -0.00000000000E+00 -0.00000000000E+00 -0.16226660366E+03  0.16226660366E+03  0.00000000000E+00 0. -1.
      99926    2    1    2    0    0  0.00000000000E+00  0.14210854715E-13  0.15801328116E+03  0.48254648849E+03  0.45594179073E+03 0.  0.
      99925    2    3    3    0    0  0.83751435558E+02 -0.77113931218E+02  0.94567021529E+02  0.30189821890E+03  0.26313257432E+03 0.  0.
         25    1    4    4    0    0  0.26090449198E+02 -0.73291464800E+02  0.64775434541E+02  0.16092145715E+03  0.12509000000E+03 0.  0.
         25    1    4    4    0    0  0.57660986360E+02 -0.38224664179E+01  0.29791586988E+02  0.14097676175E+03  0.12509000000E+03 0.  0.
         25    1    3    3    0    0 -0.83751435558E+02  0.77113931218E+02  0.63446259636E+02  0.18064826959E+03  0.12509000000E+03 0.  0.
<mgrwt>
<rscale>  2 0.45594179E+03</rscale>
<asrwt>0</asrwt>
<pdfrwt beam="1">  1       21 0.47099983E-01 0.45594179E+03</pdfrwt>
<pdfrwt beam="2">  1       21 0.23862736E-01 0.45594179E+03</pdfrwt>
<totfact> 0.66020260E+04</totfact>
</mgrwt>
</event>
<event>
 7    0  0.4732500E-002  0.4514921E+03  0.7546771E-02  0.1027278E+00
         21   -1    0    0  502  501  0.00000000000E+00  0.00000000000E+00  0.80367671087E+03  0.80367671087E+03  0.00000000000E+00 0.  1.
         21   -1    0    0  501  502 -0.00000000000E+00 -0.00000000000E+00 -0.63410171030E+02  0.63410171030E+02  0.00000000000E+00 0.  1.
      99926    2    1    2    0    0  0.00000000000E+00  0.00000000000E+00  0.74026653984E+03  0.86708688190E+03  0.45149209379E+03 0.  0.
      99925    2    3    3    0    0 -0.37864996898E+02  0.92623168779E+02  0.55474668409E+03  0.62197887639E+03  0.26287074730E+03 0.  0.
         25    1    4    4    0    0  0.19737331973E+02  0.31887025563E+02  0.24703097879E+03  0.27942468978E+03  0.12509000000E+03 0.  0.
         25    1    4    4    0    0 -0.57602328871E+02  0.60736143216E+02  0.30771570530E+03  0.34255418662E+03  0.12509000000E+03 0.  0.
         25    1    3    3    0    0  0.37864996898E+02 -0.92623168779E+02  0.18551985575E+03  0.24510800550E+03  0.12509000000E+03 0.  0.
<mgrwt>
<rscale>  2 0.45149209E+03</rscale>
<asrwt>0</asrwt>
<pdfrwt beam="1">  1       21 0.11818775E+00 0.45149209E+03</pdfrwt>
<pdfrwt beam="2">  1       21 0.93250256E-02 0.45149209E+03</pdfrwt>
<totfact> 0.45935055E+04</totfact>
</mgrwt>
</event>
<event>
 7    0  0.4732500E-002  0.4516560E+03  0.7546771E-02  0.1027229E+00
         21   -1    0    0  502  501  0.00000000000E+00  0.00000000000E+00  0.10238194331E+03  0.10238194331E+03  0.00000000000E+00 0. -1.
         21   -1    0    0  501  502 -0.00000000000E+00 -0.00000000000E+00 -0.49811794407E+03  0.49811794407E+03  0.00000000000E+00 0. -1.
      99926    2    1    2    0    0  0.00000000000E+00  0.00000000000E+00 -0.39573600076E+03  0.60049988739E+03  0.45165598906E+03 0.  0.
      99925    2    3    3    0    0 -0.13428291804E+02 -0.10915040085E+03 -0.25606108074E+03  0.38312757911E+03  0.26291697506E+03 0.  0.
         25    1    4    4    0    0 -0.29109309063E+02 -0.91496776475E+02 -0.14165692722E+03  0.21197453882E+03  0.12509000000E+03 0.  0.
         25    1    4    4    0    0  0.15681017259E+02 -0.17653624371E+02 -0.11440415352E+03  0.17115304028E+03  0.12509000000E+03 0.  0.
         25    1    3    3    0    0  0.13428291804E+02  0.10915040085E+03 -0.13967492002E+03  0.21737230828E+03  0.12509000000E+03 0.  0.
<mgrwt>
<rscale>  2 0.45165599E+03</rscale>
<asrwt>0</asrwt>
<pdfrwt beam="1">  1       21 0.15056168E-01 0.45165599E+03</pdfrwt>
<pdfrwt beam="2">  1       21 0.73252641E-01 0.45165599E+03</pdfrwt>
<totfact> 0.60222961E+04</totfact>
</mgrwt>
</event>
<event>
 7    0  0.4732500E-002  0.4568434E+03  0.7546771E-02  0.1025701E+00
         21   -1    0    0  502  501  0.00000000000E+00  0.00000000000E+00  0.55836931359E+02  0.55836931359E+02  0.00000000000E+00 0.  1.
         21   -1    0    0  501  502 -0.00000000000E+00 -0.00000000000E+00 -0.93444392097E+03  0.93444392097E+03  0.00000000000E+00 0.  1.
      99926    2    1    2    0    0  0.00000000000E+00  0.00000000000E+00 -0.87860698961E+03  0.99028085233E+03  0.45684343521E+03 0.  0.
      99925    2    3    3    0    0 -0.69237141267E+02  0.45650444609E+02 -0.72428881838E+03  0.77501508427E+03  0.26301396085E+03 0.  0.
         25    1    4    4    0    0 -0.35872437851E+01  0.49158218716E+02 -0.35709067608E+03  0.38156343880E+03  0.12509000000E+03 0.  0.
         25    1    3    3    0    0  0.69237141267E+02 -0.45650444609E+02 -0.15431817123E+03  0.21526576806E+03  0.12509000000E+03 0.  0.
         25    1    4    4    0    0 -0.65649897482E+02 -0.35077741077E+01 -0.36719814229E+03  0.39345164547E+03  0.12509000000E+03 0.  0.
<mgrwt>
<rscale>  2 0.45684344E+03</rscale>
<asrwt>0</asrwt>
<pdfrwt beam="1">  1       21 0.82113143E-02 0.45684344E+03</pdfrwt>
<pdfrwt beam="2">  1       21 0.13741821E+00 0.45684344E+03</pdfrwt>
<totfact> 0.38982579E+04</totfact>
</mgrwt>
</event>
<event>
 7    0  0.4732500E-002  0.4507163E+03  0.7546771E-02  0.1027509E+00
         21   -1    0    0  502  501  0.00000000000E+00  0.00000000000E+00  0.77453147446E+02  0.77453147446E+02  0.00000000000E+00 0. -1.
         21   -1    0    0  501  502 -0.00000000000E+00 -0.00000000000E+00 -0.65570346940E+03  0.65570346940E+03  0.00000000000E+00 0. -1.
      99926    2    1    2    0    0  0.00000000000E+00  0.00000000000E+00 -0.57825032196E+03  0.73315661685E+03  0.45071630765E+03 0.  0.
      99925    2    3    3    0    0  0.20717766237E+02  0.51242726924E+02 -0.51828200954E+03  0.58382895868E+03  0.26303035695E+03 0.  0.
         25    1    3    3    0    0 -0.20717766237E+02 -0.51242726924E+02 -0.59968312418E+02  0.14932765817E+03  0.12509000000E+03 0.  0.
         25    1    4    4    0    0 -0.18679533704E+02  0.14033790429E+02 -0.30766524592E+03  0.33294336440E+03  0.12509000000E+03 0.  0.
         25    1    4    4    0    0  0.39397299941E+02  0.37208936494E+02 -0.21061676362E+03  0.25088559428E+03  0.12509000000E+03 0.  0.
<mgrwt>
<rscale>  2 0.45071631E+03</rscale>
<asrwt>0</asrwt>
<pdfrwt beam="1">  1       21 0.11390168E-01 0.45071631E+03</pdfrwt>
<pdfrwt beam="2">  1       21 0.96426987E-01 0.45071631E+03</pdfrwt>
<totfact> 0.52898834E+04</totfact>
</mgrwt>
</event>
<event>
 7    0  0.4732500E-002  0.4531602E+03  0.7546771E-02  0.1026784E+00
         21   -1    0    0  502  501  0.00000000000E+00  0.00000000000E+00  0.59981754464E+03  0.59981754464E+03  0.00000000000E+00 0. -1.
         21   -1    0    0  501  502 -0.00000000000E+00 -0.00000000000E+00 -0.85590282179E+02  0.85590282179E+02  0.00000000000E+00 0. -1.
      99926    2    1    2    0    0  0.35527136788E-14  0.00000000000E+00  0.51422726246E+03  0.68540782682E+03  0.45316024937E+03 0.  0.
      99925    2    3    3    0    0 -0.12501712789E+02 -0.11044796942E+03  0.33499612612E+03  0.44020106691E+03  0.26305803166E+03 0.  0.
         25    1    4    4    0    0  0.28247157007E+02 -0.77553569468E+02  0.17000197100E+03  0.22662885134E+03  0.12509000000E+03 0.  0.
         25    1    4    4    0    0 -0.40748869796E+02 -0.32894399956E+02  0.16499415511E+03  0.21357221556E+03  0.12509000000E+03 0.  0.
         25    1    3    3    0    0  0.12501712789E+02  0.11044796942E+03  0.17923113635E+03  0.24520675992E+03  0.12509000000E+03 0.  0.
<mgrwt>
<rscale>  2 0.45316025E+03</rscale>
<asrwt>0</asrwt>
<pdfrwt beam="1">  1       21 0.88208460E-01 0.45316025E+03</pdfrwt>
<pdfrwt beam="2">  1       21 0.12586806E-01 0.45316025E+03</pdfrwt>
<totfact> 0.54487551E+04</totfact>
</mgrwt>
</event>
<event>
 7    0  0.4732500E-002  0.4577784E+03  0.7546771E-02  0.1025428E+00
         21   -1    0    0  502  501  0.00000000000E+00  0.00000000000E+00  0.47845476448E+02  0.47845476448E+02  0.00000000000E+00 0.  1.
         21   -1    0    0  501  502 -0.00000000000E+00 -0.00000000000E+00 -0.10949889946E+04  0.10949889946E+04  0.00000000000E+00 0.  1.
      99926    2    1    2    0    0  0.00000000000E+00  0.00000000000E+00 -0.10471435182E+04  0.11428344711E+04  0.45777841869E+03 0.  0.
      99925    2    3    3    0    0 -0.20086099179E+02 -0.56248761712E+02 -0.90476909915E+03  0.94412524163E+03  0.26305507889E+03 0.  0.
         25    1    4    4    0    0 -0.15795437628E+02 -0.20290703681E+02 -0.31014878836E+03  0.33541166874E+03  0.12509000000E+03 0.  0.
         25    1    3    3    0    0  0.20086099179E+02  0.56248761712E+02 -0.14237441903E+03  0.19870922945E+03  0.12509000000E+03 0.  0.
         25    1    4    4    0    0 -0.42906615508E+01 -0.35958058031E+02 -0.59462031078E+03  0.60871357288E+03  0.12509000000E+03 0.  0.
<mgrwt>
<rscale>  2 0.45777842E+03</rscale>
<asrwt>0</asrwt>
<pdfrwt beam="1">  1       21 0.70360990E-02 0.45777842E+03</pdfrwt>
<pdfrwt beam="2">  1       21 0.16102780E+00 0.45777842E+03</pdfrwt>
<totfact> 0.33295604E+04</totfact>
</mgrwt>
</event>
<event>
 7    0  0.4732500E-002  0.4560227E+03  0.7546771E-02  0.1025941E+00
         21   -1    0    0  502  501  0.00000000000E+00  0.00000000000E+00  0.14152013130E+03  0.14152013130E+03  0.00000000000E+00 0.  1.
         21   -1    0    0  501  502 -0.00000000000E+00 -0.00000000000E+00 -0.36736235818E+03  0.36736235818E+03  0.00000000000E+00 0.  1.
      99926    2    1    2    0    0  0.14210854715E-13  0.00000000000E+00 -0.22584222688E+03  0.50888248949E+03  0.45602267122E+03 0.  0.
      99925    2    3    3    0    0 -0.89285708639E+02  0.56602690809E+02 -0.19002746071E+03  0.34123402409E+03  0.26297228181E+03 0.  0.
         25    1    3    3    0    0  0.89285708639E+02 -0.56602690809E+02 -0.35814766167E+02  0.16764846540E+03  0.12509000000E+03 0.  0.
         25    1    4    4    0    0 -0.43186904975E+02 -0.12916352588E+02 -0.93942261152E+02  0.16280232632E+03  0.12509000000E+03 0.  0.
         25    1    4    4    0    0 -0.46098803663E+02  0.69519043397E+02 -0.96085199559E+02  0.17843169777E+03  0.12509000000E+03 0.  0.
<mgrwt>
<rscale>  2 0.45602267E+03</rscale>
<asrwt>0</asrwt>
<pdfrwt beam="1">  1       21 0.20811784E-01 0.45602267E+03</pdfrwt>
<pdfrwt beam="2">  1       21 0.54023876E-01 0.45602267E+03</pdfrwt>
<totfact> 0.64128945E+04</totfact>
</mgrwt>
</event>
<event>
 7    0  0.4732500E-002  0.4502053E+03  0.7546771E-02  0.1027661E+00
         21   -1    0    0  502  501  0.00000000000E+00  0.00000000000E+00  0.13129538166E+03  0.13129538166E+03  0.00000000000E+00 0. -1.
         21   -1    0    0  501  502 -0.00000000000E+00 -0.00000000000E+00 -0.38593292305E+03  0.38593292305E+03  0.00000000000E+00 0. -1.
      99926    2    1    2    0    0 -0.14210854715E-13 -0.88817841970E-15 -0.25463754139E+03  0.51722830472E+03  0.45020533284E+03 0.  0.
      99925    2    3    3    0    0 -0.89832319571E+02 -0.72153759653E+01 -0.91283339824E+02  0.29260860264E+03  0.26299284957E+03 0.  0.
         25    1    4    4    0    0 -0.70689775114E+01  0.14096195011E+02 -0.49558313394E+02  0.13547032030E+03  0.12509000000E+03 0.  0.
         25    1    3    3    0    0  0.89832319571E+02  0.72153759653E+01 -0.16335420157E+03  0.22461970207E+03  0.12509000000E+03 0.  0.
         25    1    4    4    0    0 -0.82763342059E+02 -0.21311570976E+02 -0.41725026430E+02  0.15713828234E+03  0.12509000000E+03 0.  0.
<mgrwt>
<rscale>  2 0.45020533E+03</rscale>
<asrwt>0</asrwt>
<pdfrwt beam="1">  1       21 0.19308145E-01 0.45020533E+03</pdfrwt>
<pdfrwt beam="2">  1       21 0.56754841E-01 0.45020533E+03</pdfrwt>
<totfact> 0.66573099E+04</totfact>
</mgrwt>
</event>
<event>
 7    0  0.4732500E-002  0.4555232E+03  0.7546771E-02  0.1026088E+00
         21   -1    0    0  502  501  0.00000000000E+00  0.00000000000E+00  0.66735278015E+03  0.66735278015E+03  0.00000000000E+00 0. -1.
         21   -1    0    0  501  502 -0.00000000000E+00 -0.00000000000E+00 -0.77733015233E+02  0.77733015233E+02  0.00000000000E+00 0. -1.
      99926    2    1    2    0    0 -0.14210854715E-13  0.00000000000E+00  0.58961976492E+03  0.74508579538E+03  0.45552318854E+03 0.  0.
      99925    2    3    3    0    0  0.10656121345E+03 -0.16346512431E+02  0.43002645588E+03  0.51543381288E+03  0.26291968739E+03 0.  0.
         25    1    3    3    0    0 -0.10656121345E+03  0.16346512431E+02  0.15959330904E+03  0.22965198251E+03  0.12509000000E+03 0.  0.
         25    1    4    4    0    0  0.84836785684E+02 -0.19738623358E+02  0.18729874680E+03  0.24148544907E+03  0.12509000000E+03 0.  0.
         25    1    4    4    0    0  0.21724427767E+02  0.33921109269E+01  0.24272770908E+03  0.27394836381E+03  0.12509000000E+03 0.  0.
<mgrwt>
<rscale>  2 0.45552319E+03</rscale>
<asrwt>0</asrwt>
<pdfrwt beam="1">  1       21 0.98140112E-01 0.45552319E+03</pdfrwt>
<pdfrwt beam="2">  1       21 0.11431326E-01 0.45552319E+03</pdfrwt>
<totfact> 0.50315258E+04</totfact>
</mgrwt>
</event>
<event>
 7    0  0.4732500E-002  0.4568691E+03  0.7546771E-02  0.1025693E+00
         21   -1    0    0  502  501  0.00000000000E+00  0.00000000000E+00  0.21718073129E+03  0.21718073129E+03  0.00000000000E+00 0.  1.
         21   -1    0    0  501  502 -0.00000000000E+00 -0.00000000000E+00 -0.24027147738E+03  0.24027147738E+03  0.00000000000E+00 0.  1.
      99926    2    1    2    0    0 -0.71054273576E-14  0.00000000000E+00 -0.23090746099E+02  0.45745220867E+03  0.45686906293E+03 0.  0.
      99925    2    3    3    0    0 -0.29849088196E+02 -0.10313509308E+03 -0.55567455163E+02  0.28943417326E+03  0.26297639264E+03 0.  0.
         25    1    4    4    0    0  0.23190939565E+02 -0.56010122004E+02 -0.13842618923E+02  0.13969280455E+03  0.12509000000E+03 0.  0.
         25    1    3    3    0    0  0.29849088196E+02  0.10313509308E+03  0.32476709064E+02  0.16801803541E+03  0.12509000000E+03 0.  0.
         25    1    4    4    0    0 -0.53040027761E+02 -0.47124971078E+02 -0.41724836240E+02  0.14974136871E+03  0.12509000000E+03 0.  0.
<mgrwt>
<rscale>  2 0.45686906E+03</rscale>
<asrwt>0</asrwt>
<pdfrwt beam="1">  1       21 0.31938343E-01 0.45686906E+03</pdfrwt>
<pdfrwt beam="2">  1       21 0.35334041E-01 0.45686906E+03</pdfrwt>
<totfact> 0.67356442E+04</totfact>
</mgrwt>
</event>
<event>
 7    0  0.4732500E-002  0.4855047E+03  0.7546771E-02  0.1017633E+00
         21   -1    0    0  502  501  0.00000000000E+00  0.00000000000E+00  0.73074857799E+02  0.73074857799E+02  0.00000000000E+00 0.  1.
         21   -1    0    0  501  502 -0.00000000000E+00 -0.00000000000E+00 -0.80641542149E+03  0.80641542149E+03  0.00000000000E+00 0.  1.
      99926    2    1    2    0    0  0.35527136788E-14  0.00000000000E+00 -0.73334056369E+03  0.87949027929E+03  0.48550465395E+03 0.  0.
      99925    2    3    3    0    0 -0.11650356978E+02 -0.13885088717E+03 -0.42060385414E+03  0.51498094156E+03  0.26245469775E+03 0.  0.
         25    1    4    4    0    0  0.24551079886E+02 -0.87198481623E+02 -0.25438204262E+03  0.29759714788E+03  0.12509000000E+03 0.  0.
         25    1    4    4    0    0 -0.36201436865E+02 -0.51652405552E+02 -0.16622181152E+03  0.21738379368E+03  0.12509000000E+03 0.  0.
         25    1    3    3    0    0  0.11650356978E+02  0.13885088717E+03 -0.31273670955E+03  0.36450933772E+03  0.12509000000E+03 0.  0.
<mgrwt>
<rscale>  2 0.48550465E+03</rscale>
<asrwt>0</asrwt>
<pdfrwt beam="1">  1       21 0.10746302E-01 0.48550465E+03</pdfrwt>
<pdfrwt beam="2">  1       21 0.11859051E+00 0.48550465E+03</pdfrwt>
<totfact> 0.34992306E+04</totfact>
</mgrwt>
</event>
<event>
 7    0  0.4732500E-002  0.4555214E+03  0.7546771E-02  0.1026088E+00
         21   -1    0    0  502  501  0.00000000000E+00  0.00000000000E+00  0.68444133573E+02  0.68444133573E+02  0.00000000000E+00 0.  1.
         21   -1    0    0  501  502 -0.00000000000E+00 -0.00000000000E+00 -0.75791655180E+03  0.75791655180E+03  0.00000000000E+00 0.  1.
      99926    2    1    2    0    0  0.00000000000E+00  0.71054273576E-14 -0.68947241823E+03  0.82636068537E+03  0.45552142302E+03 0.  0.
      99925    2    3    3    0    0 -0.10051428069E+03  0.49436940799E+02 -0.46855383124E+03  0.54887255605E+03  0.26300429327E+03 0.  0.
         25    1    3    3    0    0  0.10051428069E+03 -0.49436940799E+02 -0.22091858698E+03  0.27748812932E+03  0.12509000000E+03 0.  0.
         25    1    4    4    0    0 -0.40215853042E+02  0.21105777234E+01 -0.15872800449E+03  0.20606760270E+03  0.12509000000E+03 0.  0.
         25    1    4    4    0    0 -0.60298427646E+02  0.47326363076E+02 -0.30982582675E+03  0.34280495335E+03  0.12509000000E+03 0.  0.
<mgrwt>
<rscale>  2 0.45552142E+03</rscale>
<asrwt>0</asrwt>
<pdfrwt beam="1">  1       21 0.10065314E-01 0.45552142E+03</pdfrwt>
<pdfrwt beam="2">  1       21 0.11145831E+00 0.45552142E+03</pdfrwt>
<totfact> 0.46326243E+04</totfact>
</mgrwt>
</event>
<event>
 7    0  0.4732500E-002  0.4743089E+03  0.7546771E-02  0.1020711E+00
         21   -1    0    0  502  501  0.00000000000E+00  0.00000000000E+00  0.10642905511E+04  0.10642905511E+04  0.00000000000E+00 0.  1.
         21   -1    0    0  501  502 -0.00000000000E+00 -0.00000000000E+00 -0.52844815663E+02  0.52844815663E+02  0.00000000000E+00 0.  1.
      99926    2    1    2    0    0  0.00000000000E+00  0.00000000000E+00  0.10114457354E+04  0.11171353668E+04  0.47430892036E+03 0.  0.
      99925    2    3    3    0    0 -0.64018358726E+02 -0.51911688410E+02  0.86435032176E+03  0.90718836756E+03  0.26286133582E+03 0.  0.
         25    1    3    3    0    0  0.64018358726E+02  0.51911688410E+02  0.14709541368E+03  0.20994699920E+03  0.12509000000E+03 0.  0.
         25    1    4    4    0    0 -0.10794588002E+02 -0.13108753876E+02  0.30161970307E+03  0.32697142985E+03  0.12509000000E+03 0.  0.
         25    1    4    4    0    0 -0.53223770723E+02 -0.38802934534E+02  0.56273061869E+03  0.58021693771E+03  0.12509000000E+03 0.  0.
<mgrwt>
<rscale>  2 0.47430892E+03</rscale>
<asrwt>0</asrwt>
<pdfrwt beam="1">  1       21 0.15651330E+00 0.47430892E+03</pdfrwt>
<pdfrwt beam="2">  1       21 0.77712971E-02 0.47430892E+03</pdfrwt>
<totfact> 0.30104830E+04</totfact>
</mgrwt>
</event>
<event>
 7    0  0.4732500E-002  0.4514208E+03  0.7546771E-02  0.1027299E+00
         21   -1    0    0  502  501  0.00000000000E+00  0.00000000000E+00  0.14595920728E+03  0.14595920728E+03  0.00000000000E+00 0. -1.
         21   -1    0    0  501  502 -0.00000000000E+00 -0.00000000000E+00 -0.34903708593E+03  0.34903708593E+03  0.00000000000E+00 0. -1.
      99926    2    1    2    0    0  0.00000000000E+00  0.00000000000E+00 -0.20307787864E+03  0.49499629321E+03  0.45142076325E+03 0.  0.
      99925    2    3    3    0    0  0.89031730355E+02 -0.55407933698E+02 -0.16398361897E+03  0.32714946611E+03  0.26294383005E+03 0.  0.
         25    1    3    3    0    0 -0.89031730355E+02  0.55407933698E+02 -0.39094259677E+02  0.16784682710E+03  0.12509000000E+03 0.  0.
         25    1    4    4    0    0  0.48545785385E+02 -0.79070313854E+01 -0.12111080387E+03  0.18092691712E+03  0.12509000000E+03 0.  0.
         25    1    4    4    0    0  0.40485944970E+02 -0.47500902313E+02 -0.42872815099E+02  0.14622254900E+03  0.12509000000E+03 0.  0.
<mgrwt>
<rscale>  2 0.45142076E+03</rscale>
<asrwt>0</asrwt>
<pdfrwt beam="1">  1       21 0.21464589E-01 0.45142076E+03</pdfrwt>
<pdfrwt beam="2">  1       21 0.51328984E-01 0.45142076E+03</pdfrwt>
<totfact> 0.67521853E+04</totfact>
</mgrwt>
</event>
<event>
 7    0  0.4732500E-002  0.4470549E+03  0.7546771E-02  0.1028604E+00
         21   -1    0    0  502  501  0.00000000000E+00  0.00000000000E+00  0.88551158214E+02  0.88551158214E+02  0.00000000000E+00 0.  1.
         21   -1    0    0  501  502 -0.00000000000E+00 -0.00000000000E+00 -0.56424474346E+03  0.56424474346E+03  0.00000000000E+00 0.  1.
      99926    2    1    2    0    0  0.88817841970E-15  0.00000000000E+00 -0.47569358525E+03  0.65279590168E+03  0.44705492079E+03 0.  0.
      99925    2    3    3    0    0  0.33537304824E+01 -0.44859112559E+02 -0.44111883473E+03  0.51544049057E+03  0.26281074079E+03 0.  0.
         25    1    3    3    0    0 -0.33537304824E+01  0.44859112559E+02 -0.34574750517E+02  0.13735541111E+03  0.12509000000E+03 0.  0.
         25    1    4    4    0    0  0.22062664476E+02 -0.44371425878E+02 -0.27962221209E+03  0.31030899792E+03  0.12509000000E+03 0.  0.
         25    1    4    4    0    0 -0.18708933994E+02 -0.48768668110E+00 -0.16149662265E+03  0.20513149265E+03  0.12509000000E+03 0.  0.
<mgrwt>
<rscale>  2 0.44705492E+03</rscale>
<asrwt>0</asrwt>
<pdfrwt beam="1">  1       21 0.13022229E-01 0.44705492E+03</pdfrwt>
<pdfrwt beam="2">  1       21 0.82977169E-01 0.44705492E+03</pdfrwt>
<totfact> 0.59162022E+04</totfact>
</mgrwt>
</event>
<event>
 7    0  0.4732500E-002  0.4565909E+03  0.7546771E-02  0.1025775E+00
         21   -1    0    0  502  501  0.00000000000E+00  0.00000000000E+00  0.27887399502E+03  0.27887399502E+03  0.00000000000E+00 0. -1.
         21   -1    0    0  501  502 -0.00000000000E+00 -0.00000000000E+00 -0.18689022007E+03  0.18689022007E+03  0.00000000000E+00 0. -1.
      99926    2    1    2    0    0  0.14210854715E-13  0.17763568394E-14  0.91983774942E+02  0.46576421509E+03  0.45659094297E+03 0.  0.
      99925    2    3    3    0    0  0.98294207405E+02 -0.71854891628E+01  0.11732017577E+03  0.30451030422E+03  0.26315227392E+03 0.  0.
         25    1    4    4    0    0  0.70802261343E+02  0.14196479758E+02  0.94680966257E+02  0.17270348497E+03  0.12509000000E+03 0.  0.
         25    1    3    3    0    0 -0.98294207405E+02  0.71854891628E+01 -0.25336400831E+02  0.16125391087E+03  0.12509000000E+03 0.  0.
         25    1    4    4    0    0  0.27491946062E+02 -0.21381968920E+02  0.22639209516E+02  0.13180681925E+03  0.12509000000E+03 0.  0.
<mgrwt>
<rscale>  2 0.45659094E+03</rscale>
<asrwt>0</asrwt>
<pdfrwt beam="1">  1       21 0.41010882E-01 0.45659094E+03</pdfrwt>
<pdfrwt beam="2">  1       21 0.27483856E-01 0.45659094E+03</pdfrwt>
<totfact> 0.66903435E+04</totfact>
</mgrwt>
</event>
<event>
 7    0  0.4732500E-002  0.4550397E+03  0.7546771E-02  0.1026230E+00
         21   -1    0    0  502  501  0.00000000000E+00  0.00000000000E+00  0.44248395274E+02  0.44248395274E+02  0.00000000000E+00 0.  1.
         21   -1    0    0  501  502 -0.00000000000E+00 -0.00000000000E+00 -0.11698793134E+04  0.11698793134E+04  0.00000000000E+00 0.  1.
      99926    2    1    2    0    0  0.00000000000E+00  0.71054273576E-14 -0.11256309182E+04  0.12141277087E+04  0.45503970062E+03 0.  0.
      99925    2    3    3    0    0  0.91084496098E+02  0.45289896815E+02 -0.84096305640E+03  0.88697199685E+03  0.26296939134E+03 0.  0.
         25    1    3    3    0    0 -0.91084496098E+02 -0.45289896815E+02 -0.28466786177E+03  0.32715571187E+03  0.12509000000E+03 0.  0.
         25    1    4    4    0    0  0.64316986956E+02 -0.45226657001E+01 -0.49953371865E+03  0.51897839404E+03  0.12509000000E+03 0.  0.
         25    1    4    4    0    0  0.26767509142E+02  0.49812562515E+02 -0.34142933775E+03  0.36799360280E+03  0.12509000000E+03 0.  0.
<mgrwt>
<rscale>  2 0.45503970E+03</rscale>
<asrwt>0</asrwt>
<pdfrwt beam="1">  1       21 0.65071176E-02 0.45503970E+03</pdfrwt>
<pdfrwt beam="2">  1       21 0.17204106E+00 0.45503970E+03</pdfrwt>
<totfact> 0.31701557E+04</totfact>
</mgrwt>
</event>
<event>
 7    0  0.4732500E-002  0.4547385E+03  0.7546771E-02  0.1026318E+00
         21   -1    0    0  502  501  0.00000000000E+00  0.00000000000E+00  0.27323587751E+03  0.27323587751E+03  0.00000000000E+00 0. -1.
         21   -1    0    0  501  502 -0.00000000000E+00 -0.00000000000E+00 -0.18920201948E+03  0.18920201948E+03  0.00000000000E+00 0. -1.
      99926    2    1    2    0    0  0.14210854715E-13 -0.35527136788E-14  0.84033858031E+02  0.46243789698E+03  0.45473851747E+03 0.  0.
      99925    2    3    3    0    0 -0.84302230620E+02  0.25864201170E+02  0.12477200363E+03  0.30406199100E+03  0.26288746355E+03 0.  0.
         25    1    4    4    0    0 -0.59526379976E+02  0.26530432713E+02  0.10309893751E+03  0.17471162751E+03  0.12509000000E+03 0.  0.
         25    1    3    3    0    0  0.84302230620E+02 -0.25864201170E+02 -0.40738145596E+02  0.15837590598E+03  0.12509000000E+03 0.  0.
         25    1    4    4    0    0 -0.24775850644E+02 -0.66623154233E+00  0.21673066122E+02  0.12935036349E+03  0.12509000000E+03 0.  0.
<mgrwt>
<rscale>  2 0.45473852E+03</rscale>
<asrwt>0</asrwt>
<pdfrwt beam="1">  1       21 0.40181747E-01 0.45473852E+03</pdfrwt>
<pdfrwt beam="2">  1       21 0.27823826E-01 0.45473852E+03</pdfrwt>
<totfact> 0.68142288E+04</totfact>
</mgrwt>
</event>
<event>
 7    0  0.4732500E-002  0.4483011E+03  0.7546771E-02  0.1028230E+00
         21   -1    0    0  502  501  0.00000000000E+00  0.00000000000E+00  0.20709145088E+04  0.20709145088E+04  0.00000000000E+00 0. -1.
         21   -1    0    0  501  502 -0.00000000000E+00 -0.00000000000E+00 -0.24261485418E+02  0.24261485418E+02  0.00000000000E+00 0. -1.
      99926    2    1    2    0    0  0.17763568394E-14  0.00000000000E+00  0.20466530234E+04  0.20951759942E+04  0.44830106918E+03 0.  0.
      99925    2    3    3    0    0  0.98811804919E+01 -0.97511964901E+02  0.14945552640E+04  0.15206625783E+04  0.26289355059E+03 0.  0.
         25    1    3    3    0    0 -0.98811804919E+01  0.97511964901E+02  0.55209775941E+03  0.57451341592E+03  0.12509000000E+03 0.  0.
         25    1    4    4    0    0  0.37728236810E+02 -0.38625249575E+02  0.85075096336E+03  0.86159157350E+03  0.12509000000E+03 0.  0.
         25    1    4    4    0    0 -0.27847056318E+02 -0.58886715326E+02  0.64380430059E+03  0.65907100479E+03  0.12509000000E+03 0.  0.
<mgrwt>
<rscale>  2 0.44830107E+03</rscale>
<asrwt>0</asrwt>
<pdfrwt beam="1">  1       21 0.30454613E+00 0.44830107E+03</pdfrwt>
<pdfrwt beam="2">  1       21 0.35678669E-02 0.44830107E+03</pdfrwt>
<totfact> 0.12874135E+04</totfact>
</mgrwt>
</event>
<event>
 7    0  0.4732500E-002  0.4599251E+03  0.7546771E-02  0.1024803E+00
         21   -1    0    0  502  501  0.00000000000E+00  0.00000000000E+00  0.27843684764E+02  0.27843684764E+02  0.00000000000E+00 0. -1.
         21   -1    0    0  501  502 -0.00000000000E+00 -0.00000000000E+00 -0.18992736636E+04  0.18992736636E+04  0.00000000000E+00 0. -1.
      99926    2    1    2    0    0  0.00000000000E+00  0.00000000000E+00 -0.18714299788E+04  0.19271173484E+04  0.45992511204E+03 0.  0.
      99925    2    3    3    0    0  0.23063433643E+02  0.26856341846E+02 -0.70201796916E+03  0.75050137807E+03  0.26300171938E+03 0.  0.
         25    1    4    4    0    0  0.16155681789E+01  0.42771049929E+02 -0.28229276073E+03  0.31171891767E+03  0.12509000000E+03 0.  0.
         25    1    4    4    0    0  0.21447865464E+02 -0.15914708083E+02 -0.41972520843E+03  0.43878246041E+03  0.12509000000E+03 0.  0.
         25    1    3    3    0    0 -0.23063433643E+02 -0.26856341846E+02 -0.11694120097E+04  0.11766159703E+04  0.12509000000E+03 0.  0.
<mgrwt>
<rscale>  2 0.45992511E+03</rscale>
<asrwt>0</asrwt>
<pdfrwt beam="1">  1       21 0.40946585E-02 0.45992511E+03</pdfrwt>
<pdfrwt beam="2">  1       21 0.27930502E+00 0.45992511E+03</pdfrwt>
<totfact> 0.14378908E+04</totfact>
</mgrwt>
</event>
<event>
 7    0  0.4732500E-002  0.4745820E+03  0.7546771E-02  0.1020635E+00
         21   -1    0    0  502  501  0.00000000000E+00  0.00000000000E+00  0.56901013299E+02  0.56901013299E+02  0.00000000000E+00 0. -1.
         21   -1    0    0  501  502 -0.00000000000E+00 -0.00000000000E+00 -0.98956097529E+03  0.98956097529E+03  0.00000000000E+00 0. -1.
      99926    2    1    2    0    0 -0.35527136788E-14  0.14210854715E-13 -0.93265996199E+03  0.10464619886E+04  0.47458201489E+03 0.  0.
      99925    2    3    3    0    0  0.22467519040E+02 -0.12307427967E+03 -0.49363105511E+03  0.57312705759E+03  0.26296565906E+03 0.  0.
         25    1    3    3    0    0 -0.22467519040E+02  0.12307427967E+03 -0.43902890688E+03  0.47333493100E+03  0.12509000000E+03 0.  0.
         25    1    4    4    0    0 -0.12776053965E+02 -0.25637816501E+02 -0.20211046829E+03  0.23940901128E+03  0.12509000000E+03 0.  0.
         25    1    4    4    0    0  0.35243573005E+02 -0.97436463165E+02 -0.29152058683E+03  0.33371804631E+03  0.12509000000E+03 0.  0.
<mgrwt>
<rscale>  2 0.47458201E+03</rscale>
<asrwt>0</asrwt>
<pdfrwt beam="1">  1       21 0.83677959E-02 0.47458201E+03</pdfrwt>
<pdfrwt beam="2">  1       21 0.14552368E+00 0.47458201E+03</pdfrwt>
<totfact> 0.32197187E+04</totfact>
</mgrwt>
</event>
<event>
 7    0  0.4732500E-002  0.4536661E+03  0.7546771E-02  0.1026634E+00
         21   -1    0    0  502  501  0.00000000000E+00  0.00000000000E+00  0.59501795007E+02  0.59501795007E+02  0.00000000000E+00 0. -1.
         21   -1    0    0  501  502 -0.00000000000E+00 -0.00000000000E+00 -0.86473411846E+03  0.86473411846E+03  0.00000000000E+00 0. -1.
      99926    2    1    2    0    0  0.00000000000E+00  0.14210854715E-13 -0.80523232345E+03  0.92423591346E+03  0.45366609859E+03 0.  0.
      99925    2    3    3    0    0  0.38158080021E+02  0.71794858666E+02 -0.35204940557E+03  0.44712711459E+03  0.26338817711E+03 0.  0.
         25    1    3    3    0    0 -0.38158080021E+02 -0.71794858666E+02 -0.45318291789E+03  0.47710879888E+03  0.12509000000E+03 0.  0.
         25    1    4    4    0    0  0.13764817795E+02  0.24242709067E+01 -0.12302720246E+03  0.17600723832E+03  0.12509000000E+03 0.  0.
         25    1    4    4    0    0  0.24393262226E+02  0.69370587759E+02 -0.22902220311E+03  0.27111987626E+03  0.12509000000E+03 0.  0.
<mgrwt>
<rscale>  2 0.45366610E+03</rscale>
<asrwt>0</asrwt>
<pdfrwt beam="1">  1       21 0.87502640E-02 0.45366610E+03</pdfrwt>
<pdfrwt beam="2">  1       21 0.12716678E+00 0.45366610E+03</pdfrwt>
<totfact> 0.42645336E+04</totfact>
</mgrwt>
</event>
<event>
 7    0  0.4732500E-002  0.4571857E+03  0.7546771E-02  0.1025601E+00
         21   -1    0    0  502  501  0.00000000000E+00  0.00000000000E+00  0.38079615867E+03  0.38079615867E+03  0.00000000000E+00 0. -1.
         21   -1    0    0  501  502 -0.00000000000E+00 -0.00000000000E+00 -0.13722482665E+03  0.13722482665E+03  0.00000000000E+00 0. -1.
      99926    2    1    2    0    0  0.00000000000E+00  0.00000000000E+00  0.24357133203E+03  0.51802098532E+03  0.45718568159E+03 0.  0.
      99925    2    3    3    0    0 -0.60462924891E+02 -0.78709684176E+02  0.86027669325E+02  0.29370314513E+03  0.26269716006E+03 0.  0.
         25    1    3    3    0    0  0.60462924891E+02  0.78709684176E+02  0.15754366270E+03  0.22431784019E+03  0.12509000000E+03 0.  0.
         25    1    4    4    0    0 -0.20623484891E+02 -0.92874307370E+01  0.11759221662E+02  0.12766116047E+03  0.12509000000E+03 0.  0.
         25    1    4    4    0    0 -0.39839439999E+02 -0.69422253439E+02  0.74268447663E+02  0.16604198466E+03  0.12509000000E+03 0.  0.
<mgrwt>
<rscale>  2 0.45718568E+03</rscale>
<asrwt>0</asrwt>
<pdfrwt beam="1">  1       21 0.55999435E-01 0.45718568E+03</pdfrwt>
<pdfrwt beam="2">  1       21 0.20180122E-01 0.45718568E+03</pdfrwt>
<totfact> 0.62923941E+04</totfact>
</mgrwt>
</event>
<event>
 7    0  0.4732500E-002  0.4509289E+03  0.7546771E-02  0.1027445E+00
         21   -1    0    0  502  501  0.00000000000E+00  0.00000000000E+00  0.46038626402E+03  0.46038626402E+03  0.00000000000E+00 0.  1.
         21   -1    0    0  501  502 -0.00000000000E+00 -0.00000000000E+00 -0.11041647332E+03  0.11041647332E+03  0.00000000000E+00 0.  1.
      99926    2    1    2    0    0  0.17763568394E-14  0.00000000000E+00  0.34996979070E+03  0.57080273734E+03  0.45092894179E+03 0.  0.
      99925    2    3    3    0    0 -0.10488669760E+02  0.10870708298E+03  0.22728242476E+03  0.36433981102E+03  0.26298090274E+03 0.  0.
         25    1    4    4    0    0 -0.16210086315E+02  0.96139568135E+02  0.11826425259E+03  0.19783711734E+03  0.12509000000E+03 0.  0.
         25    1    3    3    0    0  0.10488669760E+02 -0.10870708298E+03  0.12268736594E+03  0.20646292632E+03  0.12509000000E+03 0.  0.
         25    1    4    4    0    0  0.57214165552E+01  0.12567514840E+02  0.10901817217E+03  0.16650269367E+03  0.12509000000E+03 0.  0.
<mgrwt>
<rscale>  2 0.45092894E+03</rscale>
<asrwt>0</asrwt>
<pdfrwt beam="1">  1       21 0.67703862E-01 0.45092894E+03</pdfrwt>
<pdfrwt beam="2">  1       21 0.16237717E-01 0.45092894E+03</pdfrwt>
<totfact> 0.62500270E+04</totfact>
</mgrwt>
</event>
<event>
 7    0  0.4732500E-002  0.4518232E+03  0.7546771E-02  0.1027180E+00
         21   -1    0    0  502  501  0.00000000000E+00  0.00000000000E+00  0.10962539277E+03  0.10962539277E+03  0.00000000000E+00 0.  1.
         21   -1    0    0  501  502 -0.00000000000E+00 -0.00000000000E+00 -0.46554951595E+03  0.46554951595E+03  0.00000000000E+00 0.  1.
      99926    2    1    2    0    0 -0.14210854715E-13  0.00000000000E+00 -0.35592412318E+03  0.57517490871E+03  0.45182318904E+03 0.  0.
      99925    2    3    3    0    0  0.97873672703E+02  0.41449742079E+02 -0.26101763058E+03  0.38556455202E+03  0.26312066315E+03 0.  0.
         25    1    4    4    0    0  0.91505626637E+01  0.15348353808E+02 -0.95289549544E+02  0.15826215945E+03  0.12509000000E+03 0.  0.
         25    1    3    3    0    0 -0.97873672703E+02 -0.41449742079E+02 -0.94906492603E+02  0.18961035669E+03  0.12509000000E+03 0.  0.
         25    1    4    4    0    0  0.88723110039E+02  0.26101388271E+02 -0.16572808103E+03  0.22730239257E+03  0.12509000000E+03 0.  0.
<mgrwt>
<rscale>  2 0.45182319E+03</rscale>
<asrwt>0</asrwt>
<pdfrwt beam="1">  1       21 0.16121381E-01 0.45182319E+03</pdfrwt>
<pdfrwt beam="2">  1       21 0.68463165E-01 0.45182319E+03</pdfrwt>
<totfact> 0.61769917E+04</totfact>
</mgrwt>
</event>
<event>
 7    0  0.4732500E-002  0.4100525E+03  0.7546771E-02  0.1040353E+00
         21   -1    0    0  502  501  0.00000000000E+00  0.00000000000E+00  0.59102856882E+03  0.59102856882E+03  0.00000000000E+00 0.  1.
         21   -1    0    0  501  502 -0.00000000000E+00 -0.00000000000E+00 -0.71123055293E+02  0.71123055293E+02  0.00000000000E+00 0.  1.
      99926    2    1    2    0    0 -0.71054273576E-14  0.00000000000E+00  0.51990551353E+03  0.66215162411E+03  0.41005247264E+03 0.  0.
      99925    2    3    3    0    0 -0.57621411134E+02  0.23567612032E+02  0.33838325556E+03  0.43308067965E+03  0.26302088907E+03 0.  0.
         25    1    4    4    0    0  0.43714741047E+00  0.38745774045E+02  0.17867728664E+03  0.22152766637E+03  0.12509000000E+03 0.  0.
         25    1    3    3    0    0  0.57621411134E+02 -0.23567612032E+02  0.18152225797E+03  0.22907094446E+03  0.12509000000E+03 0.  0.
         25    1    4    4    0    0 -0.58058558544E+02 -0.15178162014E+02  0.15970596891E+03  0.21155301328E+03  0.12509000000E+03 0.  0.
<mgrwt>
<rscale>  2 0.41005247E+03</rscale>
<asrwt>0</asrwt>
<pdfrwt beam="1">  1       21 0.86915963E-01 0.41005247E+03</pdfrwt>
<pdfrwt beam="2">  1       21 0.10459273E-01 0.41005247E+03</pdfrwt>
<totfact> 0.79697021E+04</totfact>
</mgrwt>
</event>
<event>
 7    0  0.4732500E-002  0.4467257E+03  0.7546771E-02  0.1028703E+00
         21   -1    0    0  502  501  0.00000000000E+00  0.00000000000E+00  0.41843877190E+03  0.41843877190E+03  0.00000000000E+00 0.  1.
         21   -1    0    0  501  502 -0.00000000000E+00 -0.00000000000E+00 -0.11923121524E+03  0.11923121524E+03  0.00000000000E+00 0.  1.
      99926    2    1    2    0    0  0.00000000000E+00  0.71054273576E-14  0.29920755665E+03  0.53766998714E+03  0.44672570232E+03 0.  0.
      99925    2    3    3    0    0  0.26881904606E+02 -0.58051810974E+02  0.29028855817E+03  0.39688750888E+03  0.26298212514E+03 0.  0.
         25    1    4    4    0    0  0.15369279378E+02 -0.15313143882E+00  0.18123484658E+03  0.22074830897E+03  0.12509000000E+03 0.  0.
         25    1    3    3    0    0 -0.26881904606E+02  0.58051810974E+02  0.89189984841E+01  0.14078247827E+03  0.12509000000E+03 0.  0.
         25    1    4    4    0    0  0.11512625228E+02 -0.57898679535E+02  0.10905371159E+03  0.17613919990E+03  0.12509000000E+03 0.  0.
<mgrwt>
<rscale>  2 0.44672570E+03</rscale>
<asrwt>0</asrwt>
<pdfrwt beam="1">  1       21 0.61535113E-01 0.44672570E+03</pdfrwt>
<pdfrwt beam="2">  1       21 0.17534002E-01 0.44672570E+03</pdfrwt>
<totfact> 0.66967529E+04</totfact>
</mgrwt>
</event>
<event>
 7    0  0.4732500E-002  0.4526446E+03  0.7546771E-02  0.1026936E+00
         21   -1    0    0  502  501  0.00000000000E+00  0.00000000000E+00  0.17811275347E+03  0.17811275347E+03  0.00000000000E+00 0.  1.
         21   -1    0    0  501  502 -0.00000000000E+00 -0.00000000000E+00 -0.28758061258E+03  0.28758061258E+03  0.00000000000E+00 0.  1.
      99926    2    1    2    0    0 -0.71054273576E-14  0.14210854715E-13 -0.10946785911E+03  0.46569336604E+03  0.45264456144E+03 0.  0.
      99925    2    3    3    0    0 -0.51830322028E+02  0.98144800252E+02 -0.69548076398E+02  0.29376349298E+03  0.26294727757E+03 0.  0.
         25    1    4    4    0    0 -0.57670621021E+02  0.68362870786E+02 -0.16928247293E+02  0.15470441586E+03  0.12509000000E+03 0.  0.
         25    1    4    4    0    0  0.58402989928E+01  0.29781929466E+02 -0.52619829105E+02  0.13905907712E+03  0.12509000000E+03 0.  0.
         25    1    3    3    0    0  0.51830322028E+02 -0.98144800252E+02 -0.39919782711E+02  0.17192987306E+03  0.12509000000E+03 0.  0.
<mgrwt>
<rscale>  2 0.45264456E+03</rscale>
<asrwt>0</asrwt>
<pdfrwt beam="1">  1       21 0.26193052E-01 0.45264456E+03</pdfrwt>
<pdfrwt beam="2">  1       21 0.42291267E-01 0.45264456E+03</pdfrwt>
<totfact> 0.69038443E+04</totfact>
</mgrwt>
</event>
<event>
 7    0  0.4732500E-002  0.4628148E+03  0.7546771E-02  0.1023968E+00
         21   -1    0    0  502  501  0.00000000000E+00  0.00000000000E+00  0.27209419898E+03  0.27209419898E+03  0.00000000000E+00 0. -1.
         21   -1    0    0  501  502 -0.00000000000E+00 -0.00000000000E+00 -0.19680455839E+03  0.19680455839E+03  0.00000000000E+00 0. -1.
      99926    2    1    2    0    0  0.00000000000E+00  0.14210854715E-13  0.75289640586E+02  0.46889875737E+03  0.46281477363E+03 0.  0.
      99925    2    3    3    0    0  0.79650376893E+02 -0.85590863953E+02  0.18309518907E+02  0.28844316478E+03  0.26304798478E+03 0.  0.
         25    1    3    3    0    0 -0.79650376893E+02  0.85590863953E+02  0.56980121679E+02  0.18045559259E+03  0.12509000000E+03 0.  0.
         25    1    4    4    0    0  0.15073225650E+02 -0.63096896938E+02  0.34191717692E+02  0.14500000756E+03  0.12509000000E+03 0.  0.
         25    1    4    4    0    0  0.64577151243E+02 -0.22493967015E+02 -0.15882198785E+02  0.14344315722E+03  0.12509000000E+03 0.  0.
<mgrwt>
<rscale>  2 0.46281477E+03</rscale>
<asrwt>0</asrwt>
<pdfrwt beam="1">  1       21 0.40013853E-01 0.46281477E+03</pdfrwt>
<pdfrwt beam="2">  1       21 0.28941847E-01 0.46281477E+03</pdfrwt>
<totfact> 0.63485198E+04</totfact>
</mgrwt>
</event>
<event>
 7    0  0.4732500E-002  0.4575547E+03  0.7546771E-02  0.1025493E+00
         21   -1    0    0  502  501  0.00000000000E+00  0.00000000000E+00  0.26797851592E+02  0.26797851592E+02  0.00000000000E+00 0. -1.
         21   -1    0    0  501  502 -0.00000000000E+00 -0.00000000000E+00 -0.19531073401E+04  0.19531073401E+04  0.00000000000E+00 0. -1.
      99926    2    1    2    0    0  0.00000000000E+00  0.00000000000E+00 -0.19263094885E+04  0.19799051917E+04  0.45755472085E+03 0.  0.
      99925    2    3    3    0    0 -0.16271499962E+02  0.11249412361E+03 -0.11175810368E+04  0.11537036991E+04  0.26291664474E+03 0.  0.
         25    1    4    4    0    0 -0.16134512401E+02  0.90340086699E+02 -0.71139458169E+03  0.72811497218E+03  0.12509000000E+03 0.  0.
         25    1    4    4    0    0 -0.13698756145E+00  0.22154036916E+02 -0.40618645509E+03  0.42558872696E+03  0.12509000000E+03 0.  0.
         25    1    3    3    0    0  0.16271499962E+02 -0.11249412361E+03 -0.80872845171E+03  0.82620149253E+03  0.12509000000E+03 0.  0.
<mgrwt>
<rscale>  2 0.45755472E+03</rscale>
<asrwt>0</asrwt>
<pdfrwt beam="1">  1       21 0.39408600E-02 0.45755472E+03</pdfrwt>
<pdfrwt beam="2">  1       21 0.28722171E+00 0.45755472E+03</pdfrwt>
<totfact> 0.13765656E+04</totfact>
</mgrwt>
</event>
<event>
 7    0  0.4732500E-002  0.4641344E+03  0.7546771E-02  0.1023589E+00
         21   -1    0    0  502  501  0.00000000000E+00  0.00000000000E+00  0.74693106431E+03  0.74693106431E+03  0.00000000000E+00 0. -1.
         21   -1    0    0  501  502 -0.00000000000E+00 -0.00000000000E+00 -0.72101942976E+02  0.72101942976E+02  0.00000000000E+00 0. -1.
      99926    2    1    2    0    0  0.00000000000E+00  0.00000000000E+00  0.67482912133E+03  0.81903300729E+03  0.46413438143E+03 0.  0.
      99925    2    3    3    0    0 -0.20891448105E+02  0.38819552564E+01  0.63240674597E+03  0.68524702815E+03  0.26300888781E+03 0.  0.
         25    1    3    3    0    0  0.20891448105E+02 -0.38819552564E+01  0.42422375368E+02  0.13378597913E+03  0.12509000000E+03 0.  0.
         25    1    4    4    0    0  0.29475952119E+02  0.16757172991E+01  0.28815116513E+03  0.31551583454E+03  0.12509000000E+03 0.  0.
         25    1    4    4    0    0 -0.50367400224E+02  0.22062379573E+01  0.34425558084E+03  0.36973119361E+03  0.12509000000E+03 0.  0.
<mgrwt>
<rscale>  2 0.46413438E+03</rscale>
<asrwt>0</asrwt>
<pdfrwt beam="1">  1       21 0.10984280E+00 0.46413438E+03</pdfrwt>
<pdfrwt beam="2">  1       21 0.10603227E-01 0.46413438E+03</pdfrwt>
<totfact> 0.43644613E+04</totfact>
</mgrwt>
</event>
<event>
 7    0  0.4732500E-002  0.4546970E+03  0.7546771E-02  0.1026331E+00
         21   -1    0    0  502  501  0.00000000000E+00  0.00000000000E+00  0.22423574130E+03  0.22423574130E+03  0.00000000000E+00 0.  1.
         21   -1    0    0  501  502 -0.00000000000E+00 -0.00000000000E+00 -0.23050449531E+03  0.23050449531E+03  0.00000000000E+00 0.  1.
      99926    2    1    2    0    0  0.00000000000E+00  0.71054273576E-14 -0.62687540123E+01  0.45474023661E+03  0.45469702607E+03 0.  0.
      99925    2    3    3    0    0 -0.42912597036E+02  0.38189727454E+02 -0.10109303578E+03  0.28759030756E+03  0.26303694959E+03 0.  0.
         25    1    4    4    0    0 -0.23243668178E+02  0.73402533328E+01 -0.91537138832E+02  0.15690985729E+03  0.12509000000E+03 0.  0.
         25    1    3    3    0    0  0.42912597036E+02 -0.38189727454E+02  0.94824281772E+02  0.16714992905E+03  0.12509000000E+03 0.  0.
         25    1    4    4    0    0 -0.19668928858E+02  0.30849474121E+02 -0.95558969526E+01  0.13068045027E+03  0.12509000000E+03 0.  0.
<mgrwt>
<rscale>  2 0.45469703E+03</rscale>
<asrwt>0</asrwt>
<pdfrwt beam="1">  1       21 0.32975844E-01 0.45469703E+03</pdfrwt>
<pdfrwt beam="2">  1       21 0.33897720E-01 0.45469703E+03</pdfrwt>
<totfact> 0.68730827E+04</totfact>
</mgrwt>
</event>
<event>
 7    0  0.4732500E-002  0.4587015E+03  0.7546771E-02  0.1025158E+00
         21   -1    0    0  502  501  0.00000000000E+00  0.00000000000E+00  0.15954562395E+04  0.15954562395E+04  0.00000000000E+00 0.  1.
         21   -1    0    0  501  502 -0.00000000000E+00 -0.00000000000E+00 -0.32969734490E+02  0.32969734490E+02  0.00000000000E+00 0.  1.
      99926    2    1    2    0    0  0.71054273576E-14  0.14210854715E-13  0.15624865050E+04  0.16284259740E+04  0.45870150907E+03 0.  0.
      99925    2    3    3    0    0  0.48527115129E+02  0.75948372022E+02  0.71725075919E+03  0.76924379876E+03  0.26299112963E+03 0.  0.
         25    1    4    4    0    0  0.24438321816E+02  0.32324473218E+02  0.46588240770E+03  0.48408266757E+03  0.12509000000E+03 0.  0.
         25    1    3    3    0    0 -0.48527115129E+02 -0.75948372022E+02  0.84523574580E+03  0.85918217521E+03  0.12509000000E+03 0.  0.
         25    1    4    4    0    0  0.24088793313E+02  0.43623898804E+02  0.25136835149E+03  0.28516113119E+03  0.12509000000E+03 0.  0.
<mgrwt>
<rscale>  2 0.45870151E+03</rscale>
<asrwt>0</asrwt>
<pdfrwt beam="1">  1       21 0.23462587E+00 0.45870151E+03</pdfrwt>
<pdfrwt beam="2">  1       21 0.48484914E-02 0.45870151E+03</pdfrwt>
<totfact> 0.20207926E+04</totfact>
</mgrwt>
</event>
<event>
 7    0  0.4732500E-002  0.4553808E+03  0.7546771E-02  0.1026129E+00
         21   -1    0    0  502  501  0.00000000000E+00  0.00000000000E+00  0.10828377862E+04  0.10828377862E+04  0.00000000000E+00 0. -1.
         21   -1    0    0  501  502 -0.00000000000E+00 -0.00000000000E+00 -0.47876908782E+02  0.47876908782E+02  0.00000000000E+00 0. -1.
      99926    2    1    2    0    0  0.00000000000E+00  0.00000000000E+00  0.10349608774E+04  0.11307146950E+04  0.45538083366E+03 0.  0.
      99925    2    3    3    0    0 -0.26501163276E+02 -0.43570292014E+02  0.90281230217E+03  0.94173999816E+03  0.26306556060E+03 0.  0.
         25    1    3    3    0    0  0.26501163276E+02  0.43570292014E+02  0.13214857525E+03  0.18897469683E+03  0.12509000000E+03 0.  0.
         25    1    4    4    0    0 -0.52099887542E+01 -0.43892247105E+02  0.57781238473E+03  0.59284764770E+03  0.12509000000E+03 0.  0.
         25    1    4    4    0    0 -0.21291174521E+02  0.32195509130E+00  0.32499991744E+03  0.34889235045E+03  0.12509000000E+03 0.  0.
<mgrwt>
<rscale>  2 0.45538083E+03</rscale>
<asrwt>0</asrwt>
<pdfrwt beam="1">  1       21 0.15924084E+00 0.45538083E+03</pdfrwt>
<pdfrwt beam="2">  1       21 0.70407226E-02 0.45538083E+03</pdfrwt>
<totfact> 0.34330799E+04</totfact>
</mgrwt>
</event>
<event>
 7    0  0.4732500E-002  0.4485104E+03  0.7546771E-02  0.1028167E+00
         21   -1    0    0  502  501  0.00000000000E+00  0.00000000000E+00  0.65110207066E+03  0.65110207066E+03  0.00000000000E+00 0.  1.
         21   -1    0    0  501  502 -0.00000000000E+00 -0.00000000000E+00 -0.77238865717E+02  0.77238865717E+02  0.00000000000E+00 0.  1.
      99926    2    1    2    0    0  0.00000000000E+00  0.00000000000E+00  0.57386320494E+03  0.72834093637E+03  0.44851035842E+03 0.  0.
      99925    2    3    3    0    0  0.24397793205E+02 -0.84063442774E+02  0.26378558020E+03  0.38271461187E+03  0.26310782409E+03 0.  0.
         25    1    4    4    0    0  0.50264789155E+01 -0.47153474989E+02  0.77870704089E+02  0.15479040781E+03  0.12509000000E+03 0.  0.
         25    1    3    3    0    0 -0.24397793205E+02  0.84063442774E+02  0.31007762474E+03  0.34562632450E+03  0.12509000000E+03 0.  0.
         25    1    4    4    0    0  0.19371314289E+02 -0.36909967785E+02  0.18591487611E+03  0.22792420407E+03  0.12509000000E+03 0.  0.
<mgrwt>
<rscale>  2 0.44851036E+03</rscale>
<asrwt>0</asrwt>
<pdfrwt beam="1">  1       21 0.95750302E-01 0.44851036E+03</pdfrwt>
<pdfrwt beam="2">  1       21 0.11358657E-01 0.44851036E+03</pdfrwt>
<totfact> 0.54099596E+04</totfact>
</mgrwt>
</event>
<event>
 7    0  0.4732500E-002  0.4576212E+03  0.7546771E-02  0.1025473E+00
         21   -1    0    0  502  501  0.00000000000E+00  0.00000000000E+00  0.41651151491E+02  0.41651151491E+02  0.00000000000E+00 0. -1.
         21   -1    0    0  501  502 -0.00000000000E+00 -0.00000000000E+00 -0.12569708542E+04  0.12569708542E+04  0.00000000000E+00 0. -1.
      99926    2    1    2    0    0 -0.17763568394E-14  0.00000000000E+00 -0.12153197027E+04  0.12986220057E+04  0.45762116851E+03 0.  0.
      99925    2    3    3    0    0 -0.99249590085E+01  0.11203597735E+03 -0.83844404604E+03  0.88590741457E+03  0.26304555465E+03 0.  0.
         25    1    4    4    0    0  0.30515007822E+02  0.56690447978E+02 -0.47774187273E+03  0.49802588051E+03  0.12509000000E+03 0.  0.
         25    1    3    3    0    0  0.99249590085E+01 -0.11203597735E+03 -0.37687565665E+03  0.41271459110E+03  0.12509000000E+03 0.  0.
         25    1    4    4    0    0 -0.40439966831E+02  0.55345529370E+02 -0.36070217331E+03  0.38788153406E+03  0.12509000000E+03 0.  0.
<mgrwt>
<rscale>  2 0.45762117E+03</rscale>
<asrwt>0</asrwt>
<pdfrwt beam="1">  1       21 0.61251705E-02 0.45762117E+03</pdfrwt>
<pdfrwt beam="2">  1       21 0.18484862E+00 0.45762117E+03</pdfrwt>
<totfact> 0.28567925E+04</totfact>
</mgrwt>
</event>
<event>
 7    0  0.4732500E-002  0.4493674E+03  0.7546771E-02  0.1027911E+00
         21   -1    0    0  502  501  0.00000000000E+00  0.00000000000E+00  0.11962486103E+03  0.11962486103E+03  0.00000000000E+00 0.  1.
         21   -1    0    0  501  502 -0.00000000000E+00 -0.00000000000E+00 -0.42200890765E+03  0.42200890765E+03  0.00000000000E+00 0.  1.
      99926    2    1    2    0    0  0.00000000000E+00 -0.14210854715E-13 -0.30238404662E+03  0.54163376868E+03  0.44936736388E+03 0.  0.
      99925    2    3    3    0    0  0.34096093880E+02 -0.66396544654E+02 -0.28497632881E+03  0.39493141185E+03  0.26303662734E+03 0.  0.
         25    1    3    3    0    0 -0.34096093880E+02  0.66396544654E+02 -0.17407717811E+02  0.14670235683E+03  0.12509000000E+03 0.  0.
         25    1    4    4    0    0  0.24828070032E+02 -0.17060370445E+01 -0.98934922562E+02  0.16141552164E+03  0.12509000000E+03 0.  0.
         25    1    4    4    0    0  0.92680238478E+01 -0.64690507609E+02 -0.18604140625E+03  0.23351589021E+03  0.12509000000E+03 0.  0.
<mgrwt>
<rscale>  2 0.44936736E+03</rscale>
<asrwt>0</asrwt>
<pdfrwt beam="1">  1       21 0.17591891E-01 0.44936736E+03</pdfrwt>
<pdfrwt beam="2">  1       21 0.62060134E-01 0.44936736E+03</pdfrwt>
<totfact> 0.65284450E+04</totfact>
</mgrwt>
</event>
<event>
 7    0  0.4732500E-002  0.4448582E+03  0.7546771E-02  0.1029267E+00
         21   -1    0    0  502  501  0.00000000000E+00  0.00000000000E+00  0.29255867682E+03  0.29255867682E+03  0.00000000000E+00 0. -1.
         21   -1    0    0  501  502 -0.00000000000E+00 -0.00000000000E+00 -0.16911035681E+03  0.16911035681E+03  0.00000000000E+00 0. -1.
      99926    2    1    2    0    0 -0.71054273576E-14  0.14210854715E-13  0.12344832001E+03  0.46166903363E+03  0.44485818965E+03 0.  0.
      99925    2    3    3    0    0  0.44942506219E+02 -0.91345650386E+02  0.58698723936E+02  0.28787641295E+03  0.26279922419E+03 0.  0.
         25    1    4    4    0    0  0.49088270494E+02 -0.76129317822E+02  0.18526261377E+02  0.15555083347E+03  0.12509000000E+03 0.  0.
         25    1    4    4    0    0 -0.41457642756E+01 -0.15216332564E+02  0.40172462559E+02  0.13232557949E+03  0.12509000000E+03 0.  0.
         25    1    3    3    0    0 -0.44942506219E+02  0.91345650386E+02  0.64749596077E+02  0.17379262068E+03  0.12509000000E+03 0.  0.
<mgrwt>
<rscale>  2 0.44485819E+03</rscale>
<asrwt>0</asrwt>
<pdfrwt beam="1">  1       21 0.43023335E-01 0.44485819E+03</pdfrwt>
<pdfrwt beam="2">  1       21 0.24869170E-01 0.44485819E+03</pdfrwt>
<totfact> 0.73823355E+04</totfact>
</mgrwt>
</event>
<event>
 7    0  0.4732500E-002  0.4593864E+03  0.7546771E-02  0.1024959E+00
         21   -1    0    0  502  501  0.00000000000E+00  0.00000000000E+00  0.20697337690E+03  0.20697337690E+03  0.00000000000E+00 0.  1.
         21   -1    0    0  501  502 -0.00000000000E+00 -0.00000000000E+00 -0.25490704024E+03  0.25490704024E+03  0.00000000000E+00 0.  1.
      99926    2    1    2    0    0  0.35527136788E-14  0.00000000000E+00 -0.47933663341E+02  0.46188041713E+03  0.45938642084E+03 0.  0.
      99925    2    3    3    0    0 -0.29345609323E+02  0.10508047247E+03  0.11277392996E+02  0.28565179354E+03  0.26375499442E+03 0.  0.
         25    1    4    4    0    0 -0.58593065091E+01  0.38161734521E+02 -0.33342803139E+02  0.13509219102E+03  0.12509000000E+03 0.  0.
         25    1    4    4    0    0 -0.23486302814E+02  0.66918737945E+02  0.44620196134E+02  0.15055960252E+03  0.12509000000E+03 0.  0.
         25    1    3    3    0    0  0.29345609323E+02 -0.10508047247E+03 -0.59211056336E+02  0.17622862359E+03  0.12509000000E+03 0.  0.
<mgrwt>
<rscale>  2 0.45938642E+03</rscale>
<asrwt>0</asrwt>
<pdfrwt beam="1">  1       21 0.30437261E-01 0.45938642E+03</pdfrwt>
<pdfrwt beam="2">  1       21 0.37486330E-01 0.45938642E+03</pdfrwt>
<totfact> 0.65714510E+04</totfact>
</mgrwt>
</event>
<event>
 7    0  0.4732500E-002  0.4444413E+03  0.7546771E-02  0.1029393E+00
         21   -1    0    0  502  501  0.00000000000E+00  0.00000000000E+00  0.20159301034E+04  0.20159301034E+04  0.00000000000E+00 0. -1.
         21   -1    0    0  501  502 -0.00000000000E+00 -0.00000000000E+00 -0.24495898492E+02  0.24495898492E+02  0.00000000000E+00 0. -1.
      99926    2    1    2    0    0  0.00000000000E+00  0.00000000000E+00  0.19914342049E+04  0.20404260019E+04  0.44444130852E+03 0.  0.
      99925    2    3    3    0    0 -0.95864262482E+02 -0.25414316485E+02  0.11419921382E+04  0.11761140345E+04  0.26317738119E+03 0.  0.
         25    1    3    3    0    0  0.95864262482E+02  0.25414316485E+02  0.84944206668E+03  0.86431196744E+03  0.12509000000E+03 0.  0.
         25    1    4    4    0    0 -0.14457732030E+02  0.32093473960E+01  0.60844587164E+03  0.62134789992E+03  0.12509000000E+03 0.  0.
         25    1    4    4    0    0 -0.81406530453E+02 -0.28623663881E+02  0.53354626661E+03  0.55476613455E+03  0.12509000000E+03 0.  0.
<mgrwt>
<rscale>  2 0.44444131E+03</rscale>
<asrwt>0</asrwt>
<pdfrwt beam="1">  1       21 0.29646020E+00 0.44444131E+03</pdfrwt>
<pdfrwt beam="2">  1       21 0.36023394E-02 0.44444131E+03</pdfrwt>
<totfact> 0.14188799E+04</totfact>
</mgrwt>
</event>
<event>
 7    0  0.4732500E-002  0.4596867E+03  0.7546771E-02  0.1024872E+00
         21   -1    0    0  502  501  0.00000000000E+00  0.00000000000E+00  0.16239730894E+03  0.16239730894E+03  0.00000000000E+00 0.  1.
         21   -1    0    0  501  502 -0.00000000000E+00 -0.00000000000E+00 -0.32530069077E+03  0.32530069077E+03  0.00000000000E+00 0.  1.
      99926    2    1    2    0    0  0.00000000000E+00  0.00000000000E+00 -0.16290338183E+03  0.48769799971E+03  0.45968666187E+03 0.  0.
      99925    2    3    3    0    0  0.58719694047E+02 -0.46903738899E+02 -0.19801334938E+03  0.33760409206E+03  0.26290544546E+03 0.  0.
         25    1    4    4    0    0 -0.14722758027E+01 -0.31609804551E+02 -0.12651892773E+03  0.18070942010E+03  0.12509000000E+03 0.  0.
         25    1    3    3    0    0 -0.58719694047E+02  0.46903738899E+02  0.35109967543E+02  0.15009390765E+03  0.12509000000E+03 0.  0.
         25    1    4    4    0    0  0.60191969850E+02 -0.15293934348E+02 -0.71494421652E+02  0.15689467196E+03  0.12509000000E+03 0.  0.
<mgrwt>
<rscale>  2 0.45968666E+03</rscale>
<asrwt>0</asrwt>
<pdfrwt beam="1">  1       21 0.23881957E-01 0.45968666E+03</pdfrwt>
<pdfrwt beam="2">  1       21 0.47838336E-01 0.45968666E+03</pdfrwt>
<totfact> 0.63739282E+04</totfact>
</mgrwt>
</event>
<event>
 7    0  0.4732500E-002  0.4547432E+03  0.7546771E-02  0.1026317E+00
         21   -1    0    0  502  501  0.00000000000E+00  0.00000000000E+00  0.17548842747E+03  0.17548842747E+03  0.00000000000E+00 0.  1.
         21   -1    0    0  501  502 -0.00000000000E+00 -0.00000000000E+00 -0.29459403769E+03  0.29459403769E+03  0.00000000000E+00 0.  1.
      99926    2    1    2    0    0  0.00000000000E+00  0.00000000000E+00 -0.11910561022E+03  0.47008246516E+03  0.45474319969E+03 0.  0.
      99925    2    3    3    0    0 -0.71923160070E+01 -0.65846329599E+02 -0.16958382611E+03  0.31980596364E+03  0.26292529694E+03 0.  0.
         25    1    4    4    0    0 -0.28364337304E+02 -0.62013292987E+02 -0.10769644435E+03  0.17859511853E+03  0.12509000000E+03 0.  0.
         25    1    4    4    0    0  0.21172021297E+02 -0.38330366115E+01 -0.61887381757E+02  0.14121084511E+03  0.12509000000E+03 0.  0.
         25    1    3    3    0    0  0.71923160070E+01  0.65846329599E+02  0.50478215882E+02  0.15027650152E+03  0.12509000000E+03 0.  0.
<mgrwt>
<rscale>  2 0.45474320E+03</rscale>
<asrwt>0</asrwt>
<pdfrwt beam="1">  1       21 0.25807122E-01 0.45474320E+03</pdfrwt>
<pdfrwt beam="2">  1       21 0.43322652E-01 0.45474320E+03</pdfrwt>
<totfact> 0.67567122E+04</totfact>
</mgrwt>
</event>
<event>
 7    0  0.4732500E-002  0.4515657E+03  0.7546771E-02  0.1027256E+00
         21   -1    0    0  502  501  0.00000000000E+00  0.00000000000E+00  0.17257997083E+04  0.17257997083E+04  0.00000000000E+00 0.  1.
         21   -1    0    0  501  502 -0.00000000000E+00 -0.00000000000E+00 -0.29538707291E+02  0.29538707291E+02  0.00000000000E+00 0.  1.
      99926    2    1    2    0    0  0.00000000000E+00  0.00000000000E+00  0.16962610011E+04  0.17553384156E+04  0.45156568704E+03 0.  0.
      99925    2    3    3    0    0  0.95953873683E+02 -0.32779678982E+02  0.12353521886E+04  0.12671109126E+04  0.26304634898E+03 0.  0.
         25    1    4    4    0    0  0.80952896833E+02 -0.39312020745E+01  0.55963009302E+03  0.57913916719E+03  0.12509000000E+03 0.  0.
         25    1    3    3    0    0 -0.95953873683E+02  0.32779678982E+02  0.46090881248E+03  0.48822750307E+03  0.12509000000E+03 0.  0.
         25    1    4    4    0    0  0.15000976850E+02 -0.28848476908E+02  0.67572209556E+03  0.68797174538E+03  0.12509000000E+03 0.  0.
<mgrwt>
<rscale>  2 0.45156569E+03</rscale>
<asrwt>0</asrwt>
<pdfrwt beam="1">  1       21 0.25379401E+00 0.45156569E+03</pdfrwt>
<pdfrwt beam="2">  1       21 0.43439287E-02 0.45156569E+03</pdfrwt>
<totfact> 0.18625297E+04</totfact>
</mgrwt>
</event>
<event>
 7    0  0.4732500E-002  0.4544911E+03  0.7546771E-02  0.1026391E+00
         21   -1    0    0  502  501  0.00000000000E+00  0.00000000000E+00  0.35286728703E+03  0.35286728703E+03  0.00000000000E+00 0. -1.
         21   -1    0    0  501  502 -0.00000000000E+00 -0.00000000000E+00 -0.14634548100E+03  0.14634548100E+03  0.00000000000E+00 0. -1.
      99926    2    1    2    0    0 -0.14210854715E-13  0.14210854715E-13  0.20652180603E+03  0.49921276803E+03  0.45449106856E+03 0.  0.
      99925    2    3    3    0    0  0.96167866969E+02 -0.57657477292E+02  0.11727572707E+03  0.30898917844E+03  0.26296021165E+03 0.  0.
         25    1    4    4    0    0  0.29715923658E+02 -0.64734938550E+02  0.55029500385E+02  0.15410841119E+03  0.12509000000E+03 0.  0.
         25    1    4    4    0    0  0.66451943311E+02  0.70774612583E+01  0.62246226686E+02  0.15488076725E+03  0.12509000000E+03 0.  0.
         25    1    3    3    0    0 -0.96167866969E+02  0.57657477292E+02  0.89246078963E+02  0.19022358959E+03  0.12509000000E+03 0.  0.
<mgrwt>
<rscale>  2 0.45449107E+03</rscale>
<asrwt>0</asrwt>
<pdfrwt beam="1">  1       21 0.51892248E-01 0.45449107E+03</pdfrwt>
<pdfrwt beam="2">  1       21 0.21521394E-01 0.45449107E+03</pdfrwt>
<totfact> 0.65590584E+04</totfact>
</mgrwt>
</event>
<event>
 7    0  0.4732500E-002  0.4514529E+03  0.7546771E-02  0.1027290E+00
         21   -1    0    0  502  501  0.00000000000E+00  0.00000000000E+00  0.19756498421E+03  0.19756498421E+03  0.00000000000E+00 0. -1.
         21   -1    0    0  501  502 -0.00000000000E+00 -0.00000000000E+00 -0.25790218186E+03  0.25790218186E+03  0.00000000000E+00 0. -1.
      99926    2    1    2    0    0  0.00000000000E+00  0.00000000000E+00 -0.60337197652E+02  0.45546716608E+03  0.45145294545E+03 0.  0.
      99925    2    3    3    0    0 -0.86216184702E+02  0.18282476887E+01 -0.10693938679E+03  0.29654628914E+03  0.26280619506E+03 0.  0.
         25    1    3    3    0    0  0.86216184702E+02 -0.18282476887E+01  0.46602189134E+02  0.15892087694E+03  0.12509000000E+03 0.  0.
         25    1    4    4    0    0 -0.22986090671E+02 -0.34469517912E+02 -0.48630450614E+02  0.14045973393E+03  0.12509000000E+03 0.  0.
         25    1    4    4    0    0 -0.63230094031E+02  0.36297765601E+02 -0.58308936172E+02  0.15608655521E+03  0.12509000000E+03 0.  0.
<mgrwt>
<rscale>  2 0.45145295E+03</rscale>
<asrwt>0</asrwt>
<pdfrwt beam="1">  1       21 0.29053674E-01 0.45145295E+03</pdfrwt>
<pdfrwt beam="2">  1       21 0.37926791E-01 0.45145295E+03</pdfrwt>
<totfact> 0.70484987E+04</totfact>
</mgrwt>
</event>
<event>
 7    0  0.4732500E-002  0.4555938E+03  0.7546771E-02  0.1026067E+00
         21   -1    0    0  502  501  0.00000000000E+00  0.00000000000E+00  0.65640805037E+03  0.65640805037E+03  0.00000000000E+00 0.  1.
         21   -1    0    0  501  502 -0.00000000000E+00 -0.00000000000E+00 -0.79053619187E+02  0.79053619187E+02  0.00000000000E+00 0.  1.
      99926    2    1    2    0    0  0.00000000000E+00  0.00000000000E+00  0.57735443118E+03  0.73546166956E+03  0.45559381930E+03 0.  0.
      99925    2    3    3    0    0 -0.74404462471E+02 -0.59984444354E+02  0.26353797870E+03  0.38437417114E+03  0.26297733670E+03 0.  0.
         25    1    4    4    0    0 -0.16631987020E+02 -0.16511045121E+02  0.16959618092E+03  0.21203681352E+03  0.12509000000E+03 0.  0.
         25    1    4    4    0    0 -0.57772475452E+02 -0.43473399233E+02  0.93941797779E+02  0.17233735762E+03  0.12509000000E+03 0.  0.
         25    1    3    3    0    0  0.74404462471E+02  0.59984444354E+02  0.31381645248E+03  0.35108749842E+03  0.12509000000E+03 0.  0.
<mgrwt>
<rscale>  2 0.45559382E+03</rscale>
<asrwt>0</asrwt>
<pdfrwt beam="1">  1       21 0.96530593E-01 0.45559382E+03</pdfrwt>
<pdfrwt beam="2">  1       21 0.11625533E-01 0.45559382E+03</pdfrwt>
<totfact> 0.50782058E+04</totfact>
</mgrwt>
</event>
<event>
 7    0  0.4732500E-002  0.4562701E+03  0.7546771E-02  0.1025869E+00
         21   -1    0    0  502  501  0.00000000000E+00  0.00000000000E+00  0.45776375029E+03  0.45776375029E+03  0.00000000000E+00 0.  1.
         21   -1    0    0  501  502 -0.00000000000E+00 -0.00000000000E+00 -0.11369530882E+03  0.11369530882E+03  0.00000000000E+00 0.  1.
      99926    2    1    2    0    0  0.00000000000E+00  0.35527136788E-14  0.34406844147E+03  0.57145905911E+03  0.45627005580E+03 0.  0.
      99925    2    3    3    0    0  0.10536957189E+03  0.25859712929E+02  0.26168347775E+03  0.38650970988E+03  0.26294494076E+03 0.  0.
         25    1    4    4    0    0  0.28172054574E+02 -0.16327651985E+02  0.95792880741E+02  0.16088517949E+03  0.12509000000E+03 0.  0.
         25    1    4    4    0    0  0.77197517317E+02  0.42187364914E+02  0.16589059701E+03  0.22562453039E+03  0.12509000000E+03 0.  0.
         25    1    3    3    0    0 -0.10536957189E+03 -0.25859712929E+02  0.82384963726E+02  0.18494934923E+03  0.12509000000E+03 0.  0.
<mgrwt>
<rscale>  2 0.45627006E+03</rscale>
<asrwt>0</asrwt>
<pdfrwt beam="1">  1       21 0.67318198E-01 0.45627006E+03</pdfrwt>
<pdfrwt beam="2">  1       21 0.16719899E-01 0.45627006E+03</pdfrwt>
<totfact> 0.59866842E+04</totfact>
</mgrwt>
</event>
<event>
 7    0  0.4732500E-002  0.4495470E+03  0.7546771E-02  0.1027857E+00
         21   -1    0    0  502  501  0.00000000000E+00  0.00000000000E+00  0.20047012785E+03  0.20047012785E+03  0.00000000000E+00 0. -1.
         21   -1    0    0  501  502 -0.00000000000E+00 -0.00000000000E+00 -0.25202317084E+03  0.25202317084E+03  0.00000000000E+00 0. -1.
      99926    2    1    2    0    0 -0.71054273576E-14  0.00000000000E+00 -0.51553042989E+02  0.45249329870E+03  0.44954695986E+03 0.  0.
      99925    2    3    3    0    0  0.32467980678E+02 -0.99848004438E+02 -0.77158894111E+01  0.28339865687E+03  0.26311873747E+03 0.  0.
         25    1    3    3    0    0 -0.32467980678E+02  0.99848004438E+02 -0.43837153578E+02  0.16909464182E+03  0.12509000000E+03 0.  0.
         25    1    4    4    0    0  0.21714233027E+02 -0.35353518986E+02  0.34204382564E+02  0.13615736156E+03  0.12509000000E+03 0.  0.
         25    1    4    4    0    0  0.10753747651E+02 -0.64494485452E+02 -0.41920271975E+02  0.14724129531E+03  0.12509000000E+03 0.  0.
<mgrwt>
<rscale>  2 0.44954696E+03</rscale>
<asrwt>0</asrwt>
<pdfrwt beam="1">  1       21 0.29480901E-01 0.44954696E+03</pdfrwt>
<pdfrwt beam="2">  1       21 0.37062231E-01 0.44954696E+03</pdfrwt>
<totfact> 0.71803179E+04</totfact>
</mgrwt>
</event>
<event>
 7    0  0.4732500E-002  0.4402332E+03  0.7546771E-02  0.1030675E+00
         21   -1    0    0  502  501  0.00000000000E+00  0.00000000000E+00  0.22598694324E+03  0.22598694324E+03  0.00000000000E+00 0. -1.
         21   -1    0    0  501  502 -0.00000000000E+00 -0.00000000000E+00 -0.21439877913E+03  0.21439877913E+03  0.00000000000E+00 0. -1.
      99926    2    1    2    0    0  0.26645352591E-14 -0.14210854715E-13  0.11588164111E+02  0.44038572236E+03  0.44023323240E+03 0.  0.
      99925    2    3    3    0    0  0.45790765172E+01  0.84145083023E+02 -0.43873601427E+02  0.27968451367E+03  0.26305355224E+03 0.  0.
         25    1    4    4    0    0 -0.36906962152E+02  0.52817002258E+02 -0.19701998960E+02  0.14208249873E+03  0.12509000000E+03 0.  0.
         25    1    4    4    0    0  0.41486038669E+02  0.31328080765E+02 -0.24171602467E+02  0.13760201494E+03  0.12509000000E+03 0.  0.
         25    1    3    3    0    0 -0.45790765172E+01 -0.84145083023E+02  0.55461765539E+02  0.16070120869E+03  0.12509000000E+03 0.  0.
<mgrwt>
<rscale>  2 0.44023323E+03</rscale>
<asrwt>0</asrwt>
<pdfrwt beam="1">  1       21 0.33233374E-01 0.44023323E+03</pdfrwt>
<pdfrwt beam="2">  1       21 0.31529232E-01 0.44023323E+03</pdfrwt>
<totfact> 0.78476694E+04</totfact>
</mgrwt>
</event>
<event>
 7    0  0.4732500E-002  0.4585010E+03  0.7546771E-02  0.1025217E+00
         21   -1    0    0  502  501  0.00000000000E+00  0.00000000000E+00  0.25392083752E+03  0.25392083752E+03  0.00000000000E+00 0.  1.
         21   -1    0    0  501  502 -0.00000000000E+00 -0.00000000000E+00 -0.20697704030E+03  0.20697704030E+03  0.00000000000E+00 0.  1.
      99926    2    1    2    0    0  0.00000000000E+00  0.71054273576E-14  0.46943797225E+02  0.46089787782E+03  0.45850096367E+03 0.  0.
      99925    2    3    3    0    0  0.10436802097E+03  0.41891262538E+02 -0.96484496750E+00  0.28599702655E+03  0.26295590238E+03 0.  0.
         25    1    4    4    0    0  0.22189456239E+02  0.17755609332E+02  0.28870985941E+02  0.13148640827E+03  0.12509000000E+03 0.  0.
         25    1    3    3    0    0 -0.10436802097E+03 -0.41891262538E+02  0.47908642192E+02  0.17490085127E+03  0.12509000000E+03 0.  0.
         25    1    4    4    0    0  0.82178564727E+02  0.24135653206E+02 -0.29835830909E+02  0.15451061828E+03  0.12509000000E+03 0.  0.
<mgrwt>
<rscale>  2 0.45850096E+03</rscale>
<asrwt>0</asrwt>
<pdfrwt beam="1">  1       21 0.37341300E-01 0.45850096E+03</pdfrwt>
<pdfrwt beam="2">  1       21 0.30437800E-01 0.45850096E+03</pdfrwt>
<totfact> 0.66245991E+04</totfact>
</mgrwt>
</event>
<event>
 7    0  0.4732500E-002  0.4472325E+03  0.7546771E-02  0.1028551E+00
         21   -1    0    0  502  501  0.00000000000E+00  0.00000000000E+00  0.35143628692E+03  0.35143628692E+03  0.00000000000E+00 0.  1.
         21   -1    0    0  501  502 -0.00000000000E+00 -0.00000000000E+00 -0.14228529862E+03  0.14228529862E+03  0.00000000000E+00 0.  1.
      99926    2    1    2    0    0 -0.71054273576E-14 -0.71054273576E-14  0.20915098829E+03  0.49372158554E+03  0.44723245424E+03 0.  0.
      99925    2    3    3    0    0  0.42785936424E+02  0.49688769264E+02  0.41037025544E+02  0.27415514293E+03  0.26301595918E+03 0.  0.
         25    1    4    4    0    0  0.39547431636E+02  0.29164579783E+02 -0.15561620618E+02  0.13529317869E+03  0.12509000000E+03 0.  0.
         25    1    3    3    0    0 -0.42785936424E+02 -0.49688769264E+02  0.16811396275E+03  0.21956644260E+03  0.12509000000E+03 0.  0.
         25    1    4    4    0    0  0.32385047879E+01  0.20524189481E+02  0.56598646162E+02  0.13886196425E+03  0.12509000000E+03 0.  0.
<mgrwt>
<rscale>  2 0.44723245E+03</rscale>
<asrwt>0</asrwt>
<pdfrwt beam="1">  1       21 0.51681807E-01 0.44723245E+03</pdfrwt>
<pdfrwt beam="2">  1       21 0.20924309E-01 0.44723245E+03</pdfrwt>
<totfact> 0.69927340E+04</totfact>
</mgrwt>
</event>
<event>
 7    0  0.4732500E-002  0.4572431E+03  0.7546771E-02  0.1025584E+00
         21   -1    0    0  502  501  0.00000000000E+00  0.00000000000E+00  0.17152624689E+03  0.17152624689E+03  0.00000000000E+00 0.  1.
         21   -1    0    0  501  502 -0.00000000000E+00 -0.00000000000E+00 -0.30472195880E+03  0.30472195880E+03  0.00000000000E+00 0.  1.
      99926    2    1    2    0    0  0.00000000000E+00  0.35527136788E-14 -0.13319571191E+03  0.47624820569E+03  0.45724310356E+03 0.  0.
      99925    2    3    3    0    0 -0.21178762813E+02  0.28391928354E+02 -0.19796819120E+03  0.33099799480E+03  0.26289470562E+03 0.  0.
         25    1    4    4    0    0 -0.35966638764E+02  0.28555653853E+02 -0.66496823230E+02  0.14892400770E+03  0.12509000000E+03 0.  0.
         25    1    3    3    0    0  0.21178762813E+02 -0.28391928354E+02  0.64772479289E+02  0.14525021089E+03  0.12509000000E+03 0.  0.
         25    1    4    4    0    0  0.14787875951E+02 -0.16372549920E+00 -0.13147136797E+03  0.18207398709E+03  0.12509000000E+03 0.  0.
<mgrwt>
<rscale>  2 0.45724310E+03</rscale>
<asrwt>0</asrwt>
<pdfrwt beam="1">  1       21 0.25224448E-01 0.45724310E+03</pdfrwt>
<pdfrwt beam="2">  1       21 0.44812053E-01 0.45724310E+03</pdfrwt>
<totfact> 0.65795210E+04</totfact>
</mgrwt>
</event>
<event>
 7    0  0.4732500E-002  0.4494562E+03  0.7546771E-02  0.1027884E+00
         21   -1    0    0  502  501  0.00000000000E+00  0.00000000000E+00  0.35433444191E+02  0.35433444191E+02  0.00000000000E+00 0. -1.
         21   -1    0    0  501  502 -0.00000000000E+00 -0.00000000000E+00 -0.14252840641E+04  0.14252840641E+04  0.00000000000E+00 0. -1.
      99926    2    1    2    0    0  0.22204460493E-14  0.00000000000E+00 -0.13898506199E+04  0.14607175083E+04  0.44945621963E+03 0.  0.
      99925    2    3    3    0    0 -0.11062332290E+01 -0.82787795056E+02 -0.65420619708E+03  0.70993440532E+03  0.26299442732E+03 0.  0.
         25    1    4    4    0    0 -0.27161194383E+02 -0.38896052837E+02 -0.40410725006E+03  0.42567688575E+03  0.12509000000E+03 0.  0.
         25    1    3    3    0    0  0.11062332290E+01  0.82787795056E+02 -0.73564442283E+03  0.75078310297E+03  0.12509000000E+03 0.  0.
         25    1    4    4    0    0  0.26054961154E+02 -0.43891742219E+02 -0.25009894702E+03  0.28425751957E+03  0.12509000000E+03 0.  0.
<mgrwt>
<rscale>  2 0.44945622E+03</rscale>
<asrwt>0</asrwt>
<pdfrwt beam="1">  1       21 0.52107993E-02 0.44945622E+03</pdfrwt>
<pdfrwt beam="2">  1       21 0.20960065E+00 0.44945622E+03</pdfrwt>
<totfact> 0.25853566E+04</totfact>
</mgrwt>
</event>
<event>
 7    0  0.4732500E-002  0.4595316E+03  0.7546771E-02  0.1024917E+00
         21   -1    0    0  502  501  0.00000000000E+00  0.00000000000E+00  0.26672809050E+02  0.26672809050E+02  0.00000000000E+00 0. -1.
         21   -1    0    0  501  502 -0.00000000000E+00 -0.00000000000E+00 -0.19792562501E+04  0.19792562501E+04  0.00000000000E+00 0. -1.
      99926    2    1    2    0    0  0.14210854715E-13  0.00000000000E+00 -0.19525834411E+04  0.20059290592E+04  0.45953160509E+03 0.  0.
      99925    2    3    3    0    0 -0.10556199958E+03  0.30260393131E+02 -0.10414454546E+04  0.10797115007E+04  0.26288640639E+03 0.  0.
         25    1    3    3    0    0  0.10556199958E+03 -0.30260393131E+02 -0.91113798649E+03  0.92621755850E+03  0.12509000000E+03 0.  0.
         25    1    4    4    0    0 -0.56891115003E+02  0.13148690687E+02 -0.37342233733E+03  0.39812213848E+03  0.12509000000E+03 0.  0.
         25    1    4    4    0    0 -0.48670884578E+02  0.17111702444E+02 -0.66802311725E+03  0.68158936219E+03  0.12509000000E+03 0.  0.
<mgrwt>
<rscale>  2 0.45953161E+03</rscale>
<asrwt>0</asrwt>
<pdfrwt beam="1">  1       21 0.39224696E-02 0.45953161E+03</pdfrwt>
<pdfrwt beam="2">  1       21 0.29106727E+00 0.45953161E+03</pdfrwt>
<totfact> 0.13144600E+04</totfact>
</mgrwt>
</event>
<event>
 7    0  0.4732500E-002  0.4347066E+03  0.7546771E-02  0.1032383E+00
         21   -1    0    0  502  501  0.00000000000E+00  0.00000000000E+00  0.18805697841E+04  0.18805697841E+04  0.00000000000E+00 0. -1.
         21   -1    0    0  501  502 -0.00000000000E+00 -0.00000000000E+00 -0.25121351056E+02  0.25121351056E+02  0.00000000000E+00 0. -1.
      99926    2    1    2    0    0  0.11241008124E-14 -0.44408920985E-15  0.18554484330E+04  0.19056911351E+04  0.43470658486E+03 0.  0.
      99925    2    3    3    0    0  0.34116834216E-01  0.18658357166E+01  0.15977152871E+04  0.16191996604E+04  0.26288765469E+03 0.  0.
         25    1    4    4    0    0 -0.26139080440E+02  0.26722594968E+02  0.69674900425E+03  0.70887518763E+03  0.12509000000E+03 0.  0.
         25    1    3    3    0    0 -0.34116834216E-01 -0.18658357166E+01  0.25773314590E+03  0.28649147475E+03  0.12509000000E+03 0.  0.
         25    1    4    4    0    0  0.26173197274E+02 -0.24856759251E+02  0.90096628288E+03  0.91032447277E+03  0.12509000000E+03 0.  0.
<mgrwt>
<rscale>  2 0.43470658E+03</rscale>
<asrwt>0</asrwt>
<pdfrwt beam="1">  1       21 0.27655428E+00 0.43470658E+03</pdfrwt>
<pdfrwt beam="2">  1       21 0.36943176E-02 0.43470658E+03</pdfrwt>
<totfact> 0.17980886E+04</totfact>
</mgrwt>
</event>
<event>
 7    0  0.4732500E-002  0.4539915E+03  0.7546771E-02  0.1026538E+00
         21   -1    0    0  502  501  0.00000000000E+00  0.00000000000E+00  0.22094881539E+03  0.22094881539E+03  0.00000000000E+00 0.  1.
         21   -1    0    0  501  502 -0.00000000000E+00 -0.00000000000E+00 -0.23320817386E+03  0.23320817386E+03  0.00000000000E+00 0.  1.
      99926    2    1    2    0    0  0.14210854715E-13 -0.17763568394E-14 -0.12259358473E+02  0.45415698925E+03  0.45399149663E+03 0.  0.
      99925    2    3    3    0    0  0.97571200101E+02 -0.13933622237E+02 -0.61374815189E+02  0.28750129295E+03  0.26301300461E+03 0.  0.
         25    1    4    4    0    0  0.67614928718E+02  0.22961168980E+02 -0.10770137112E+02  0.14443856071E+03  0.12509000000E+03 0.  0.
         25    1    3    3    0    0 -0.97571200101E+02  0.13933622237E+02  0.49115456716E+02  0.16665569629E+03  0.12509000000E+03 0.  0.
         25    1    4    4    0    0  0.29956271383E+02 -0.36894791217E+02 -0.50604678077E+02  0.14306273225E+03  0.12509000000E+03 0.  0.
<mgrwt>
<rscale>  2 0.45399150E+03</rscale>
<asrwt>0</asrwt>
<pdfrwt beam="1">  1       21 0.32492473E-01 0.45399150E+03</pdfrwt>
<pdfrwt beam="2">  1       21 0.34295320E-01 0.45399150E+03</pdfrwt>
<totfact> 0.69162465E+04</totfact>
</mgrwt>
</event>
<event>
 7    0  0.4732500E-002  0.4551315E+03  0.7546771E-02  0.1026203E+00
         21   -1    0    0  502  501  0.00000000000E+00  0.00000000000E+00  0.13969239918E+04  0.13969239918E+04  0.00000000000E+00 0.  1.
         21   -1    0    0  501  502 -0.00000000000E+00 -0.00000000000E+00 -0.37071578885E+02  0.37071578885E+02  0.00000000000E+00 0.  1.
      99926    2    1    2    0    0  0.00000000000E+00 -0.35527136788E-14  0.13598524129E+04  0.14339955707E+04  0.45513153245E+03 0.  0.
      99925    2    3    3    0    0  0.77741099965E+02 -0.31019048373E+02  0.10956593106E+04  0.11299374127E+04  0.26321734724E+03 0.  0.
         25    1    3    3    0    0 -0.77741099965E+02  0.31019048373E+02  0.26419310236E+03  0.30405815796E+03  0.12509000000E+03 0.  0.
         25    1    4    4    0    0  0.80879262451E+02 -0.10571169746E+02  0.57883502503E+03  0.59778817237E+03  0.12509000000E+03 0.  0.
         25    1    4    4    0    0 -0.31381624862E+01 -0.20447878626E+02  0.51682428554E+03  0.53214924037E+03  0.12509000000E+03 0.  0.
<mgrwt>
<rscale>  2 0.45513153E+03</rscale>
<asrwt>0</asrwt>
<pdfrwt beam="1">  1       21 0.20542996E+00 0.45513153E+03</pdfrwt>
<pdfrwt beam="2">  1       21 0.54517037E-02 0.45513153E+03</pdfrwt>
<totfact> 0.25414040E+04</totfact>
</mgrwt>
</event>
<event>
 7    0  0.4732500E-002  0.4553855E+03  0.7546771E-02  0.1026128E+00
         21   -1    0    0  502  501  0.00000000000E+00  0.00000000000E+00  0.88583395396E+03  0.88583395396E+03  0.00000000000E+00 0. -1.
         21   -1    0    0  501  502 -0.00000000000E+00 -0.00000000000E+00 -0.58525621425E+02  0.58525621425E+02  0.00000000000E+00 0. -1.
      99926    2    1    2    0    0  0.00000000000E+00  0.00000000000E+00  0.82730833253E+03  0.94435957538E+03  0.45538547467E+03 0.  0.
      99925    2    3    3    0    0 -0.73973511430E+02 -0.76708260056E+02  0.43913905161E+03  0.52283954465E+03  0.26298639746E+03 0.  0.
         25    1    4    4    0    0 -0.23464978517E+01 -0.24110141505E+02  0.23676316981E+03  0.26887006463E+03  0.12509000000E+03 0.  0.
         25    1    4    4    0    0 -0.71627013579E+02 -0.52598118551E+02  0.20237588180E+03  0.25396948003E+03  0.12509000000E+03 0.  0.
         25    1    3    3    0    0  0.73973511430E+02  0.76708260056E+02  0.38816928093E+03  0.42152003073E+03  0.12509000000E+03 0.  0.
<mgrwt>
<rscale>  2 0.45538547E+03</rscale>
<asrwt>0</asrwt>
<pdfrwt beam="1">  1       21 0.13026969E+00 0.45538547E+03</pdfrwt>
<pdfrwt beam="2">  1       21 0.86067096E-02 0.45538547E+03</pdfrwt>
<totfact> 0.41245569E+04</totfact>
</mgrwt>
</event>
<event>
 7    0  0.4732500E-002  0.4525699E+03  0.7546771E-02  0.1026958E+00
         21   -1    0    0  502  501  0.00000000000E+00  0.00000000000E+00  0.39268491165E+03  0.39268491165E+03  0.00000000000E+00 0. -1.
         21   -1    0    0  501  502 -0.00000000000E+00 -0.00000000000E+00 -0.13039688006E+03  0.13039688006E+03  0.00000000000E+00 0. -1.
      99926    2    1    2    0    0 -0.17763568394E-14  0.00000000000E+00  0.26228803159E+03  0.52308179171E+03  0.45256993858E+03 0.  0.
      99925    2    3    3    0    0  0.11726705693E+02 -0.32507648381E+02  0.28707552084E+03  0.39095991407E+03  0.26314071694E+03 0.  0.
         25    1    4    4    0    0 -0.38323885800E+01  0.62000412382E+01  0.91796962590E+02  0.15532970789E+03  0.12509000000E+03 0.  0.
         25    1    4    4    0    0  0.15559094273E+02 -0.38707689620E+02  0.19527855825E+03  0.23563020617E+03  0.12509000000E+03 0.  0.
         25    1    3    3    0    0 -0.11726705693E+02  0.32507648381E+02 -0.24787489247E+02  0.13212187765E+03  0.12509000000E+03 0.  0.
<mgrwt>
<rscale>  2 0.45256994E+03</rscale>
<asrwt>0</asrwt>
<pdfrwt beam="1">  1       21 0.57747781E-01 0.45256994E+03</pdfrwt>
<pdfrwt beam="2">  1       21 0.19176012E-01 0.45256994E+03</pdfrwt>
<totfact> 0.64918870E+04</totfact>
</mgrwt>
</event>
<event>
 7    0  0.4732500E-002  0.4576738E+03  0.7546771E-02  0.1025458E+00
         21   -1    0    0  502  501  0.00000000000E+00  0.00000000000E+00  0.40373213388E+02  0.40373213388E+02  0.00000000000E+00 0.  1.
         21   -1    0    0  501  502 -0.00000000000E+00 -0.00000000000E+00 -0.12970561823E+04  0.12970561823E+04  0.00000000000E+00 0.  1.
      99926    2    1    2    0    0  0.35527136788E-14 -0.71054273576E-14 -0.12566829689E+04  0.13374293957E+04  0.45767379660E+03 0.  0.
      99925    2    3    3    0    0 -0.27742549418E+02 -0.48360156071E+02 -0.10848600133E+04  0.11177045907E+04  0.26312344998E+03 0.  0.
         25    1    3    3    0    0  0.27742549418E+02  0.48360156071E+02 -0.17182295564E+03  0.21972480499E+03  0.12509000000E+03 0.  0.
         25    1    4    4    0    0 -0.25476667348E+02  0.12664849325E+02 -0.46203316927E+03  0.47951185240E+03  0.12509000000E+03 0.  0.
         25    1    4    4    0    0 -0.22658820700E+01 -0.61025005396E+02 -0.62282684401E+03  0.63819273831E+03  0.12509000000E+03 0.  0.
<mgrwt>
<rscale>  2 0.45767380E+03</rscale>
<asrwt>0</asrwt>
<pdfrwt beam="1">  1       21 0.59372384E-02 0.45767380E+03</pdfrwt>
<pdfrwt beam="2">  1       21 0.19074352E+00 0.45767380E+03</pdfrwt>
<totfact> 0.27471253E+04</totfact>
</mgrwt>
</event>
<event>
 7    0  0.4732500E-002  0.4542239E+03  0.7546771E-02  0.1026470E+00
         21   -1    0    0  502  501  0.00000000000E+00  0.00000000000E+00  0.34094327070E+03  0.34094327070E+03  0.00000000000E+00 0. -1.
         21   -1    0    0  501  502 -0.00000000000E+00 -0.00000000000E+00 -0.15128570850E+03  0.15128570850E+03  0.00000000000E+00 0. -1.
      99926    2    1    2    0    0  0.00000000000E+00  0.00000000000E+00  0.18965756220E+03  0.49222897920E+03  0.45422392833E+03 0.  0.
      99925    2    3    3    0    0  0.10604935828E+03 -0.35214413902E+02  0.10854488574E+03  0.30591393493E+03  0.26327708223E+03 0.  0.
         25    1    4    4    0    0  0.57324970224E+02 -0.83400598371E+01  0.96920112256E+02  0.16851327861E+03  0.12509000000E+03 0.  0.
         25    1    4    4    0    0  0.48724388060E+02 -0.26874354064E+02  0.11624773486E+02  0.13740065632E+03  0.12509000000E+03 0.  0.
         25    1    3    3    0    0 -0.10604935828E+03  0.35214413902E+02  0.81112676455E+02  0.18631504427E+03  0.12509000000E+03 0.  0.
<mgrwt>
<rscale>  2 0.45422393E+03</rscale>
<asrwt>0</asrwt>
<pdfrwt beam="1">  1       21 0.50138717E-01 0.45422393E+03</pdfrwt>
<pdfrwt beam="2">  1       21 0.22247898E-01 0.45422393E+03</pdfrwt>
<totfact> 0.66227199E+04</totfact>
</mgrwt>
</event>
<event>
 7    0  0.4732500E-002  0.4521590E+03  0.7546771E-02  0.1027080E+00
         21   -1    0    0  502  501  0.00000000000E+00  0.00000000000E+00  0.24425142847E+03  0.24425142847E+03  0.00000000000E+00 0. -1.
         21   -1    0    0  501  502 -0.00000000000E+00 -0.00000000000E+00 -0.20925954162E+03  0.20925954162E+03  0.00000000000E+00 0. -1.
      99926    2    1    2    0    0  0.17763568394E-14 -0.71054273576E-14  0.34991886850E+02  0.45351097009E+03  0.45215900726E+03 0.  0.
      99925    2    3    3    0    0  0.68126323716E+01  0.56165126095E+02  0.11655185848E+03  0.29382230292E+03  0.26371628055E+03 0.  0.
         25    1    3    3    0    0 -0.68126323716E+01 -0.56165126095E+02 -0.81559971630E+02  0.15968866717E+03  0.12509000000E+03 0.  0.
         25    1    4    4    0    0 -0.12405462956E+02 -0.10714977758E+02  0.46483058787E+02  0.13445032210E+03  0.12509000000E+03 0.  0.
         25    1    4    4    0    0  0.19218095327E+02  0.66880103852E+02  0.70068799693E+02  0.15937198082E+03  0.12509000000E+03 0.  0.
<mgrwt>
<rscale>  2 0.45215901E+03</rscale>
<asrwt>0</asrwt>
<pdfrwt beam="1">  1       21 0.35919328E-01 0.45215901E+03</pdfrwt>
<pdfrwt beam="2">  1       21 0.30773462E-01 0.45215901E+03</pdfrwt>
<totfact> 0.70233618E+04</totfact>
</mgrwt>
</event>
<event>
 7    0  0.4732500E-002  0.4486406E+03  0.7546771E-02  0.1028128E+00
         21   -1    0    0  502  501  0.00000000000E+00  0.00000000000E+00  0.26667600532E+03  0.26667600532E+03  0.00000000000E+00 0.  1.
         21   -1    0    0  501  502 -0.00000000000E+00 -0.00000000000E+00 -0.18869189815E+03  0.18869189815E+03  0.00000000000E+00 0.  1.
      99926    2    1    2    0    0  0.00000000000E+00 -0.35527136788E-14  0.77984107166E+02  0.45536790347E+03  0.44864062070E+03 0.  0.
      99925    2    3    3    0    0  0.76368957768E+02  0.20630544048E+02  0.12255750231E+03  0.30079710185E+03  0.26306029356E+03 0.  0.
         25    1    4    4    0    0  0.28589425774E+02 -0.28917784697E+02  0.66737644495E+02  0.14749581293E+03  0.12509000000E+03 0.  0.
         25    1    4    4    0    0  0.47779531994E+02  0.49548328745E+02  0.55819857816E+02  0.15330128892E+03  0.12509000000E+03 0.  0.
         25    1    3    3    0    0 -0.76368957768E+02 -0.20630544048E+02 -0.44573395144E+02  0.15457080162E+03  0.12509000000E+03 0.  0.
<mgrwt>
<rscale>  2 0.44864062E+03</rscale>
<asrwt>0</asrwt>
<pdfrwt beam="1">  1       21 0.39217060E-01 0.44864062E+03</pdfrwt>
<pdfrwt beam="2">  1       21 0.27748808E-01 0.44864062E+03</pdfrwt>
<totfact> 0.72107225E+04</totfact>
</mgrwt>
</event>
<event>
 7    0  0.4732500E-002  0.4545552E+03  0.7546771E-02  0.1026372E+00
         21   -1    0    0  502  501  0.00000000000E+00  0.00000000000E+00  0.82876859950E+02  0.82876859950E+02  0.00000000000E+00 0.  1.
         21   -1    0    0  501  502 -0.00000000000E+00 -0.00000000000E+00 -0.62327537717E+03  0.62327537717E+03  0.00000000000E+00 0.  1.
      99926    2    1    2    0    0  0.17763568394E-14 -0.17763568394E-14 -0.54039851722E+03  0.70615223712E+03  0.45455519420E+03 0.  0.
      99925    2    3    3    0    0 -0.97353994350E+01 -0.10768974865E+02 -0.51396851786E+03  0.57747900063E+03  0.26288326307E+03 0.  0.
         25    1    4    4    0    0  0.97303916410E+01  0.29305602808E+02 -0.28545041957E+03  0.31318197427E+03  0.12509000000E+03 0.  0.
         25    1    4    4    0    0 -0.19465791076E+02 -0.40074577673E+02 -0.22851809829E+03  0.26429702636E+03  0.12509000000E+03 0.  0.
         25    1    3    3    0    0  0.97353994350E+01  0.10768974865E+02 -0.26429999365E+02  0.12867323649E+03  0.12509000000E+03 0.  0.
<mgrwt>
<rscale>  2 0.45455519E+03</rscale>
<asrwt>0</asrwt>
<pdfrwt beam="1">  1       21 0.12187774E-01 0.45455519E+03</pdfrwt>
<pdfrwt beam="2">  1       21 0.91658143E-01 0.45455519E+03</pdfrwt>
<totfact> 0.52754599E+04</totfact>
</mgrwt>
</event>
<event>
 7    0  0.4732500E-002  0.4556037E+03  0.7546771E-02  0.1026064E+00
         21   -1    0    0  502  501  0.00000000000E+00  0.00000000000E+00  0.48257933241E+03  0.48257933241E+03  0.00000000000E+00 0.  1.
         21   -1    0    0  501  502 -0.00000000000E+00 -0.00000000000E+00 -0.10753397512E+03  0.10753397512E+03  0.00000000000E+00 0.  1.
      99926    2    1    2    0    0 -0.35527136788E-14  0.00000000000E+00  0.37504535729E+03  0.59011330753E+03  0.45560366076E+03 0.  0.
      99925    2    3    3    0    0  0.30620405724E+02 -0.92106768936E+02  0.31279352522E+03  0.41998375446E+03  0.26291690411E+03 0.  0.
         25    1    4    4    0    0 -0.42323211451E+01 -0.12117105008E+02  0.11663398112E+03  0.17151014672E+03  0.12509000000E+03 0.  0.
         25    1    3    3    0    0 -0.30620405724E+02  0.92106768936E+02  0.62251832074E+02  0.17012955307E+03  0.12509000000E+03 0.  0.
         25    1    4    4    0    0  0.34852726869E+02 -0.79989663928E+02  0.19615954409E+03  0.24847360774E+03  0.12509000000E+03 0.  0.
<mgrwt>
<rscale>  2 0.45560366E+03</rscale>
<asrwt>0</asrwt>
<pdfrwt beam="1">  1       21 0.70967548E-01 0.45560366E+03</pdfrwt>
<pdfrwt beam="2">  1       21 0.15813820E-01 0.45560366E+03</pdfrwt>
<totfact> 0.59008943E+04</totfact>
</mgrwt>
</event>
<event>
 7    0  0.4732500E-002  0.4573096E+03  0.7546771E-02  0.1025564E+00
         21   -1    0    0  502  501  0.00000000000E+00  0.00000000000E+00  0.50896775772E+03  0.50896775772E+03  0.00000000000E+00 0.  1.
         21   -1    0    0  501  502 -0.00000000000E+00 -0.00000000000E+00 -0.10272365232E+03  0.10272365232E+03  0.00000000000E+00 0.  1.
      99926    2    1    2    0    0  0.00000000000E+00  0.14210854715E-13  0.40624410539E+03  0.61169141004E+03  0.45730964121E+03 0.  0.
      99925    2    3    3    0    0 -0.95319707773E+02 -0.56722772673E+02  0.21092883132E+03  0.35459437774E+03  0.26256976447E+03 0.  0.
         25    1    4    4    0    0 -0.58350467390E+02  0.92231046045E+01  0.11346118183E+03  0.17891559626E+03  0.12509000000E+03 0.  0.
         25    1    4    4    0    0 -0.36969240383E+02 -0.65945877277E+02  0.97467649491E+02  0.17567878148E+03  0.12509000000E+03 0.  0.
         25    1    3    3    0    0  0.95319707773E+02  0.56722772673E+02  0.19531527408E+03  0.25709703230E+03  0.12509000000E+03 0.  0.
<mgrwt>
<rscale>  2 0.45730964E+03</rscale>
<asrwt>0</asrwt>
<pdfrwt beam="1">  1       21 0.74848199E-01 0.45730964E+03</pdfrwt>
<pdfrwt beam="2">  1       21 0.15106420E-01 0.45730964E+03</pdfrwt>
<totfact> 0.56918844E+04</totfact>
</mgrwt>
</event>
<event>
 7    0  0.4732500E-002  0.4578994E+03  0.7546771E-02  0.1025392E+00
         21   -1    0    0  502  501  0.00000000000E+00  0.00000000000E+00  0.54161722546E+03  0.54161722546E+03  0.00000000000E+00 0. -1.
         21   -1    0    0  501  502 -0.00000000000E+00 -0.00000000000E+00 -0.96780471826E+02  0.96780471826E+02  0.00000000000E+00 0. -1.
      99926    2    1    2    0    0  0.88817841970E-15  0.00000000000E+00  0.44483675363E+03  0.63839769728E+03  0.45789942402E+03 0.  0.
      99925    2    3    3    0    0  0.55530120140E+01 -0.93871772813E+02  0.37261810334E+03  0.46604402827E+03  0.26364756717E+03 0.  0.
         25    1    4    4    0    0  0.14335543881E+02 -0.57719576650E+01  0.18369681948E+03  0.22277983055E+03  0.12509000000E+03 0.  0.
         25    1    4    4    0    0 -0.87825318672E+01 -0.88099815148E+02  0.18892128386E+03  0.24326419771E+03  0.12509000000E+03 0.  0.
         25    1    3    3    0    0 -0.55530120140E+01  0.93871772813E+02  0.72218650295E+02  0.17235366902E+03  0.12509000000E+03 0.  0.
<mgrwt>
<rscale>  2 0.45789942E+03</rscale>
<asrwt>0</asrwt>
<pdfrwt beam="1">  1       21 0.79649590E-01 0.45789942E+03</pdfrwt>
<pdfrwt beam="2">  1       21 0.14232423E-01 0.45789942E+03</pdfrwt>
<totfact> 0.55103125E+04</totfact>
</mgrwt>
</event>
<event>
 7    0  0.4732500E-002  0.4539789E+03  0.7546771E-02  0.1026542E+00
         21   -1    0    0  502  501  0.00000000000E+00  0.00000000000E+00  0.25824706758E+03  0.25824706758E+03  0.00000000000E+00 0. -1.
         21   -1    0    0  501  502 -0.00000000000E+00 -0.00000000000E+00 -0.19951521639E+03  0.19951521639E+03  0.00000000000E+00 0. -1.
      99926    2    1    2    0    0  0.14210854715E-13  0.00000000000E+00  0.58731851197E+02  0.45776228397E+03  0.45397894035E+03 0.  0.
      99925    2    3    3    0    0 -0.70030222199E+02 -0.18641702527E+02  0.12317011061E+03  0.29948549328E+03  0.26318993036E+03 0.  0.
         25    1    4    4    0    0 -0.59753892205E+02  0.11840405499E+02  0.36174033816E+02  0.14375949241E+03  0.12509000000E+03 0.  0.
         25    1    3    3    0    0  0.70030222199E+02  0.18641702527E+02 -0.64438259418E+02  0.15827679069E+03  0.12509000000E+03 0.  0.
         25    1    4    4    0    0 -0.10276329994E+02 -0.30482108026E+02  0.86996076799E+02  0.15572600087E+03  0.12509000000E+03 0.  0.
<mgrwt>
<rscale>  2 0.45397894E+03</rscale>
<asrwt>0</asrwt>
<pdfrwt beam="1">  1       21 0.37977510E-01 0.45397894E+03</pdfrwt>
<pdfrwt beam="2">  1       21 0.29340473E-01 0.45397894E+03</pdfrwt>
<totfact> 0.68903298E+04</totfact>
</mgrwt>
</event>
<event>
 7    0  0.4732500E-002  0.4411374E+03  0.7546771E-02  0.1030398E+00
         21   -1    0    0  502  501  0.00000000000E+00  0.00000000000E+00  0.84975598571E+03  0.84975598571E+03  0.00000000000E+00 0. -1.
         21   -1    0    0  501  502 -0.00000000000E+00 -0.00000000000E+00 -0.57252370295E+02  0.57252370295E+02  0.00000000000E+00 0. -1.
      99926    2    1    2    0    0  0.00000000000E+00  0.00000000000E+00  0.79250361541E+03  0.90700835600E+03  0.44113736797E+03 0.  0.
      99925    2    3    3    0    0  0.42129407205E+02  0.12602517313E+02  0.32153065639E+03  0.41772648773E+03  0.26302042726E+03 0.  0.
         25    1    4    4    0    0  0.54183945603E+02  0.14732263014E+02  0.13213854327E+03  0.19042332381E+03  0.12509000000E+03 0.  0.
         25    1    3    3    0    0 -0.42129407205E+02 -0.12602517313E+02  0.47097295902E+03  0.48928186827E+03  0.12509000000E+03 0.  0.
         25    1    4    4    0    0 -0.12054538398E+02 -0.21297457001E+01  0.18939211312E+03  0.22730316391E+03  0.12509000000E+03 0.  0.
<mgrwt>
<rscale>  2 0.44113737E+03</rscale>
<asrwt>0</asrwt>
<pdfrwt beam="1">  1       21 0.12496411E+00 0.44113737E+03</pdfrwt>
<pdfrwt beam="2">  1       21 0.84194667E-02 0.44113737E+03</pdfrwt>
<totfact> 0.47922649E+04</totfact>
</mgrwt>
</event>
<event>
 7    0  0.4732500E-002  0.4765122E+03  0.7546771E-02  0.1020098E+00
         21   -1    0    0  502  501  0.00000000000E+00  0.00000000000E+00  0.22419935467E+02  0.22419935467E+02  0.00000000000E+00 0.  1.
         21   -1    0    0  501  502 -0.00000000000E+00 -0.00000000000E+00 -0.25319413055E+04  0.25319413055E+04  0.00000000000E+00 0.  1.
      99926    2    1    2    0    0  0.00000000000E+00  0.00000000000E+00 -0.25095213700E+04  0.25543612410E+04  0.47651216428E+03 0.  0.
      99925    2    3    3    0    0 -0.10582397475E+03  0.40592646316E+02 -0.11826233666E+04  0.12167692642E+04  0.26283633429E+03 0.  0.
         25    1    4    4    0    0 -0.90179312512E+02  0.17797737691E+02 -0.56087458369E+03  0.58195951285E+03  0.12509000000E+03 0.  0.
         25    1    3    3    0    0  0.10582397475E+03 -0.40592646316E+02 -0.13268980035E+04  0.13375919768E+04  0.12509000000E+03 0.  0.
         25    1    4    4    0    0 -0.15644662237E+02  0.22794908624E+02 -0.62174878287E+03  0.63480975136E+03  0.12509000000E+03 0.  0.
<mgrwt>
<rscale>  2 0.47651216E+03</rscale>
<asrwt>0</asrwt>
<pdfrwt beam="1">  1       21 0.32970512E-02 0.47651216E+03</pdfrwt>
<pdfrwt beam="2">  1       21 0.37234409E+00 0.47651216E+03</pdfrwt>
<totfact> 0.55954311E+03</totfact>
</mgrwt>
</event>
<event>
 7    0  0.4732500E-002  0.4578301E+03  0.7546771E-02  0.1025412E+00
         21   -1    0    0  502  501  0.00000000000E+00  0.00000000000E+00  0.14142973419E+03  0.14142973419E+03  0.00000000000E+00 0.  1.
         21   -1    0    0  501  502 -0.00000000000E+00 -0.00000000000E+00 -0.37051679862E+03  0.37051679862E+03  0.00000000000E+00 0.  1.
      99926    2    1    2    0    0  0.00000000000E+00  0.00000000000E+00 -0.22908706444E+03  0.51194653281E+03  0.45783006603E+03 0.  0.
      99925    2    3    3    0    0 -0.90511244350E+02 -0.16328792064E+02 -0.64953067352E+02  0.28601204694E+03  0.26291647958E+03 0.  0.
         25    1    4    4    0    0 -0.84225052497E+01 -0.74915089240E+01 -0.50740808630E+02  0.13545921549E+03  0.12509000000E+03 0.  0.
         25    1    4    4    0    0 -0.82088739100E+02 -0.88372831400E+01 -0.14212258722E+02  0.15055283145E+03  0.12509000000E+03 0.  0.
         25    1    3    3    0    0  0.90511244350E+02  0.16328792064E+02 -0.16413399709E+03  0.22593448587E+03  0.12509000000E+03 0.  0.
<mgrwt>
<rscale>  2 0.45783007E+03</rscale>
<asrwt>0</asrwt>
<pdfrwt beam="1">  1       21 0.20798491E-01 0.45783007E+03</pdfrwt>
<pdfrwt beam="2">  1       21 0.54487763E-01 0.45783007E+03</pdfrwt>
<totfact> 0.63012079E+04</totfact>
</mgrwt>
</event>
<event>
 7    0  0.4732500E-002  0.4610513E+03  0.7546771E-02  0.1024477E+00
         21   -1    0    0  502  501  0.00000000000E+00  0.00000000000E+00  0.24096085100E+03  0.24096085100E+03  0.00000000000E+00 0.  1.
         21   -1    0    0  501  502 -0.00000000000E+00 -0.00000000000E+00 -0.22054234032E+03  0.22054234032E+03  0.00000000000E+00 0.  1.
      99926    2    1    2    0    0  0.00000000000E+00  0.00000000000E+00  0.20418510676E+02  0.46150319133E+03  0.46105127700E+03 0.  0.
      99925    2    3    3    0    0  0.76059695768E+02  0.12304389031E+02 -0.77615943825E+02  0.28488287064E+03  0.26305425284E+03 0.  0.
         25    1    4    4    0    0  0.72172314460E+02  0.30598104451E+02 -0.41214413296E+02  0.15326846686E+03  0.12509000000E+03 0.  0.
         25    1    4    4    0    0  0.38873813078E+01 -0.18293715420E+02 -0.36401530529E+02  0.13161440378E+03  0.12509000000E+03 0.  0.
         25    1    3    3    0    0 -0.76059695768E+02 -0.12304389031E+02  0.98034454501E+02  0.17662032069E+03  0.12509000000E+03 0.  0.
<mgrwt>
<rscale>  2 0.46105128E+03</rscale>
<asrwt>0</asrwt>
<pdfrwt beam="1">  1       21 0.35435419E-01 0.46105128E+03</pdfrwt>
<pdfrwt beam="2">  1       21 0.32432697E-01 0.46105128E+03</pdfrwt>
<totfact> 0.64882280E+04</totfact>
</mgrwt>
</event>
<event>
 7    0  0.4732500E-002  0.4528022E+03  0.7546771E-02  0.1026890E+00
         21   -1    0    0  502  501  0.00000000000E+00  0.00000000000E+00  0.48970129491E+03  0.48970129491E+03  0.00000000000E+00 0. -1.
         21   -1    0    0  501  502 -0.00000000000E+00 -0.00000000000E+00 -0.10467084670E+03  0.10467084670E+03  0.00000000000E+00 0. -1.
      99926    2    1    2    0    0  0.14210854715E-13  0.00000000000E+00  0.38503044820E+03  0.59437214161E+03  0.45280216064E+03 0.  0.
      99925    2    3    3    0    0 -0.10442840997E+03 -0.28834614538E+02  0.27531226321E+03  0.39582160391E+03  0.26294708982E+03 0.  0.
         25    1    4    4    0    0 -0.28300789952E+02 -0.11577641218E+02  0.17587247516E+03  0.21797617326E+03  0.12509000000E+03 0.  0.
         25    1    3    3    0    0  0.10442840997E+03  0.28834614538E+02  0.10971818500E+03  0.19855053770E+03  0.12509000000E+03 0.  0.
         25    1    4    4    0    0 -0.76127620015E+02 -0.17256973319E+02  0.99439788047E+02  0.17784543065E+03  0.12509000000E+03 0.  0.
<mgrwt>
<rscale>  2 0.45280216E+03</rscale>
<asrwt>0</asrwt>
<pdfrwt beam="1">  1       21 0.72014896E-01 0.45280216E+03</pdfrwt>
<pdfrwt beam="2">  1       21 0.15392772E-01 0.45280216E+03</pdfrwt>
<totfact> 0.60062426E+04</totfact>
</mgrwt>
</event>
<event>
 7    0  0.4732500E-002  0.4499313E+03  0.7546771E-02  0.1027743E+00
         21   -1    0    0  502  501  0.00000000000E+00  0.00000000000E+00  0.45950227566E+02  0.45950227566E+02  0.00000000000E+00 0.  1.
         21   -1    0    0  501  502 -0.00000000000E+00 -0.00000000000E+00 -0.11013990658E+04  0.11013990658E+04  0.00000000000E+00 0.  1.
      99926    2    1    2    0    0  0.00000000000E+00  0.00000000000E+00 -0.10554488383E+04  0.11473492934E+04  0.44993127349E+03 0.  0.
      99925    2    3    3    0    0 -0.96506164048E+02 -0.28047480697E+02 -0.76998909710E+03  0.81988193197E+03  0.26310277811E+03 0.  0.
         25    1    4    4    0    0 -0.64731505517E+02  0.83318742637E+01 -0.48161087181E+03  0.50185269540E+03  0.12509000000E+03 0.  0.
         25    1    3    3    0    0  0.96506164048E+02  0.28047480697E+02 -0.28545974115E+03  0.32746736142E+03  0.12509000000E+03 0.  0.
         25    1    4    4    0    0 -0.31774658531E+02 -0.36379354961E+02 -0.28837822529E+03  0.31802923657E+03  0.12509000000E+03 0.  0.
<mgrwt>
<rscale>  2 0.44993127E+03</rscale>
<asrwt>0</asrwt>
<pdfrwt beam="1">  1       21 0.67573856E-02 0.44993127E+03</pdfrwt>
<pdfrwt beam="2">  1       21 0.16197047E+00 0.44993127E+03</pdfrwt>
<totfact> 0.35242803E+04</totfact>
</mgrwt>
</event>
<event>
 7    0  0.4732500E-002  0.4568304E+03  0.7546771E-02  0.1025705E+00
         21   -1    0    0  502  501  0.00000000000E+00  0.00000000000E+00  0.88516736290E+03  0.88516736290E+03  0.00000000000E+00 0.  1.
         21   -1    0    0  501  502 -0.00000000000E+00 -0.00000000000E+00 -0.58941968488E+02  0.58941968488E+02  0.00000000000E+00 0.  1.
      99926    2    1    2    0    0  0.00000000000E+00  0.00000000000E+00  0.82622539441E+03  0.94410933138E+03  0.45683041409E+03 0.  0.
      99925    2    3    3    0    0  0.45646781913E+02 -0.80003418024E+02  0.37801892590E+03  0.46974583985E+03  0.26320841574E+03 0.  0.
         25    1    4    4    0    0  0.50342828203E+02 -0.33442872136E+02  0.24249928640E+03  0.27947493278E+03  0.12509000000E+03 0.  0.
         25    1    4    4    0    0 -0.46960462908E+01 -0.46560545888E+02  0.13551963950E+03  0.19027090706E+03  0.12509000000E+03 0.  0.
         25    1    3    3    0    0 -0.45646781913E+02  0.80003418024E+02  0.44820646850E+03  0.47436349154E+03  0.12509000000E+03 0.  0.
<mgrwt>
<rscale>  2 0.45683041E+03</rscale>
<asrwt>0</asrwt>
<pdfrwt beam="1">  1       21 0.13017166E+00 0.45683041E+03</pdfrwt>
<pdfrwt beam="2">  1       21 0.86679371E-02 0.45683041E+03</pdfrwt>
<totfact> 0.40793186E+04</totfact>
</mgrwt>
</event>
<event>
 7    0  0.4732500E-002  0.4541236E+03  0.7546771E-02  0.1026499E+00
         21   -1    0    0  502  501  0.00000000000E+00  0.00000000000E+00  0.17464929334E+03  0.17464929334E+03  0.00000000000E+00 0.  1.
         21   -1    0    0  501  502 -0.00000000000E+00 -0.00000000000E+00 -0.29520333427E+03  0.29520333427E+03  0.00000000000E+00 0.  1.
      99926    2    1    2    0    0  0.00000000000E+00 -0.17763568394E-14 -0.12055404093E+03  0.46985262762E+03  0.45412356787E+03 0.  0.
      99925    2    3    3    0    0  0.44165164805E+02 -0.43813096333E+01  0.30937778477E+02  0.26844002348E+03  0.26293182085E+03 0.  0.
         25    1    3    3    0    0 -0.44165164805E+02  0.43813096333E+01 -0.15149181941E+03  0.20141260413E+03  0.12509000000E+03 0.  0.
         25    1    4    4    0    0  0.12316665940E+02  0.25666527970E+02 -0.12683102777E+02  0.12891408036E+03  0.12509000000E+03 0.  0.
         25    1    4    4    0    0  0.31848498865E+02 -0.30047837603E+02  0.43620881254E+02  0.13952594313E+03  0.12509000000E+03 0.  0.
<mgrwt>
<rscale>  2 0.45412357E+03</rscale>
<asrwt>0</asrwt>
<pdfrwt beam="1">  1       21 0.25683720E-01 0.45412357E+03</pdfrwt>
<pdfrwt beam="2">  1       21 0.43412255E-01 0.45412357E+03</pdfrwt>
<totfact> 0.67917669E+04</totfact>
</mgrwt>
</event>
<event>
 7    0  0.4732500E-002  0.4575142E+03  0.7546771E-02  0.1025505E+00
         21   -1    0    0  502  501  0.00000000000E+00  0.00000000000E+00  0.42570275909E+03  0.42570275909E+03  0.00000000000E+00 0.  1.
         21   -1    0    0  501  502 -0.00000000000E+00 -0.00000000000E+00 -0.12292568169E+03  0.12292568169E+03  0.00000000000E+00 0.  1.
      99926    2    1    2    0    0  0.00000000000E+00  0.00000000000E+00  0.30277707740E+03  0.54862844078E+03  0.45751416091E+03 0.  0.
      99925    2    3    3    0    0 -0.75981802488E+02 -0.51450247935E+02  0.10587410539E+03  0.29795205416E+03  0.26295577207E+03 0.  0.
         25    1    4    4    0    0 -0.12271040176E+02 -0.84600400165E+01  0.79002535711E+02  0.14869787979E+03  0.12509000000E+03 0.  0.
         25    1    4    4    0    0 -0.63710762312E+02 -0.42990207919E+02  0.26871569678E+02  0.14925417437E+03  0.12509000000E+03 0.  0.
         25    1    3    3    0    0  0.75981802488E+02  0.51450247935E+02  0.19690297201E+03  0.25067638662E+03  0.12509000000E+03 0.  0.
<mgrwt>
<rscale>  2 0.45751416E+03</rscale>
<asrwt>0</asrwt>
<pdfrwt beam="1">  1       21 0.62603347E-01 0.45751416E+03</pdfrwt>
<pdfrwt beam="2">  1       21 0.18077306E-01 0.45751416E+03</pdfrwt>
<totfact> 0.60739914E+04</totfact>
</mgrwt>
</event>
<event>
 7    0  0.4732500E-002  0.4521294E+03  0.7546771E-02  0.1027089E+00
         21   -1    0    0  502  501  0.00000000000E+00  0.00000000000E+00  0.14782372060E+03  0.14782372060E+03  0.00000000000E+00 0. -1.
         21   -1    0    0  501  502 -0.00000000000E+00 -0.00000000000E+00 -0.34571744502E+03  0.34571744502E+03  0.00000000000E+00 0. -1.
      99926    2    1    2    0    0 -0.35527136788E-14 -0.14210854715E-13 -0.19789372442E+03  0.49354116562E+03  0.45212935760E+03 0.  0.
      99925    2    3    3    0    0 -0.26744787094E+02 -0.82911833140E+02 -0.19887095727E+03  0.34110062379E+03  0.26307854757E+03 0.  0.
         25    1    4    4    0    0 -0.42813986027E+02 -0.66143049788E+02 -0.12749556993E+03  0.19521928411E+03  0.12509000000E+03 0.  0.
         25    1    3    3    0    0  0.26744787094E+02  0.82911833140E+02  0.97723285030E+00  0.15244054184E+03  0.12509000000E+03 0.  0.
         25    1    4    4    0    0  0.16069198933E+02 -0.16768783352E+02 -0.71375387337E+02  0.14588133968E+03  0.12509000000E+03 0.  0.
<mgrwt>
<rscale>  2 0.45212936E+03</rscale>
<asrwt>0</asrwt>
<pdfrwt beam="1">  1       21 0.21738783E-01 0.45212936E+03</pdfrwt>
<pdfrwt beam="2">  1       21 0.50840800E-01 0.45212936E+03</pdfrwt>
<totfact> 0.67246269E+04</totfact>
</mgrwt>
</event>
<event>
 7    0  0.4732500E-002  0.4508103E+03  0.7546771E-02  0.1027481E+00
         21   -1    0    0  502  501  0.00000000000E+00  0.00000000000E+00  0.19599495112E+03  0.19599495112E+03  0.00000000000E+00 0.  1.
         21   -1    0    0  501  502 -0.00000000000E+00 -0.00000000000E+00 -0.25922847055E+03  0.25922847055E+03  0.00000000000E+00 0.  1.
      99926    2    1    2    0    0 -0.17763568394E-14  0.00000000000E+00 -0.63233519430E+02  0.45522342166E+03  0.45081025460E+03 0.  0.
      99925    2    3    3    0    0  0.82303428665E+01 -0.32029211337E+02  0.65089815285E+02  0.27299281157E+03  0.26304901101E+03 0.  0.
         25    1    3    3    0    0 -0.82303428665E+01  0.32029211337E+02 -0.12832333472E+03  0.18223061009E+03  0.12509000000E+03 0.  0.
         25    1    4    4    0    0 -0.64070454226E+01 -0.22440077301E+02 -0.72165324178E+01  0.12745271178E+03  0.12509000000E+03 0.  0.
         25    1    4    4    0    0  0.14637388289E+02 -0.95891340357E+01  0.72306347703E+02  0.14554009979E+03  0.12509000000E+03 0.  0.
<mgrwt>
<rscale>  2 0.45081025E+03</rscale>
<asrwt>0</asrwt>
<pdfrwt beam="1">  1       21 0.28822787E-01 0.45081025E+03</pdfrwt>
<pdfrwt beam="2">  1       21 0.38121833E-01 0.45081025E+03</pdfrwt>
<totfact> 0.70868522E+04</totfact>
</mgrwt>
</event>
<event>
 7    0  0.4732500E-002  0.4563879E+03  0.7546771E-02  0.1025834E+00
         21   -1    0    0  502  501  0.00000000000E+00  0.00000000000E+00  0.19700813570E+03  0.19700813570E+03  0.00000000000E+00 0.  1.
         21   -1    0    0  501  502 -0.00000000000E+00 -0.00000000000E+00 -0.26431633190E+03  0.26431633190E+03  0.00000000000E+00 0.  1.
      99926    2    1    2    0    0  0.00000000000E+00  0.00000000000E+00 -0.67308196209E+02  0.46132446760E+03  0.45638785164E+03 0.  0.
      99925    2    3    3    0    0 -0.53861832872E+01 -0.98994870551E+02 -0.99942691223E+02  0.29840880313E+03  0.26311647020E+03 0.  0.
         25    1    4    4    0    0  0.53034049126E+01 -0.95993572810E+01 -0.29694794083E+02  0.12903318433E+03  0.12509000000E+03 0.  0.
         25    1    3    3    0    0  0.53861832872E+01  0.98994870551E+02  0.32634495014E+02  0.16291566447E+03  0.12509000000E+03 0.  0.
         25    1    4    4    0    0 -0.10689588200E+02 -0.89395513270E+02 -0.70247897140E+02  0.16937561879E+03  0.12509000000E+03 0.  0.
<mgrwt>
<rscale>  2 0.45638785E+03</rscale>
<asrwt>0</asrwt>
<pdfrwt beam="1">  1       21 0.28971785E-01 0.45638785E+03</pdfrwt>
<pdfrwt beam="2">  1       21 0.38870048E-01 0.45638785E+03</pdfrwt>
<totfact> 0.67335814E+04</totfact>
</mgrwt>
</event>
<event>
 7    0  0.4732500E-002  0.4590272E+03  0.7546771E-02  0.1025064E+00
         21   -1    0    0  502  501  0.00000000000E+00  0.00000000000E+00  0.77310140244E+02  0.77310140244E+02  0.00000000000E+00 0.  1.
         21   -1    0    0  501  502 -0.00000000000E+00 -0.00000000000E+00 -0.68136589358E+03  0.68136589358E+03  0.00000000000E+00 0.  1.
      99926    2    1    2    0    0  0.00000000000E+00  0.14210854715E-13 -0.60405575334E+03  0.75867603383E+03  0.45902720090E+03 0.  0.
      99925    2    3    3    0    0 -0.46409612447E+02 -0.10563849863E+03 -0.40985767391E+03  0.50046343407E+03  0.26299618145E+03 0.  0.
         25    1    4    4    0    0  0.17414924379E+01 -0.85796136778E+02 -0.21616115898E+03  0.26407795181E+03  0.12509000000E+03 0.  0.
         25    1    4    4    0    0 -0.48151104885E+02 -0.19842361852E+02 -0.19369651492E+03  0.23638548225E+03  0.12509000000E+03 0.  0.
         25    1    3    3    0    0  0.46409612447E+02  0.10563849863E+03 -0.19419807943E+03  0.25821259976E+03  0.12509000000E+03 0.  0.
<mgrwt>
<rscale>  2 0.45902720E+03</rscale>
<asrwt>0</asrwt>
<pdfrwt beam="1">  1       21 0.11369138E-01 0.45902720E+03</pdfrwt>
<pdfrwt beam="2">  1       21 0.10020087E+00 0.45902720E+03</pdfrwt>
<totfact> 0.48283117E+04</totfact>
</mgrwt>
</event>
<event>
 7    0  0.4732500E-002  0.4516014E+03  0.7546771E-02  0.1027246E+00
         21   -1    0    0  502  501  0.00000000000E+00  0.00000000000E+00  0.95726081215E+03  0.95726081215E+03  0.00000000000E+00 0.  1.
         21   -1    0    0  501  502 -0.00000000000E+00 -0.00000000000E+00 -0.53262333812E+02  0.53262333812E+02  0.00000000000E+00 0.  1.
      99926    2    1    2    0    0 -0.71054273576E-14 -0.71054273576E-14  0.90399847834E+03  0.10105231460E+04  0.45160135040E+03 0.  0.
      99925    2    3    3    0    0 -0.45390308279E+02 -0.56500972410E+02  0.38574059692E+03  0.47247911456E+03  0.26303624393E+03 0.  0.
         25    1    4    4    0    0  0.16015984910E+02 -0.20058245447E+02  0.16015418187E+03  0.20483094262E+03  0.12509000000E+03 0.  0.
         25    1    3    3    0    0  0.45390308279E+02  0.56500972410E+02  0.51825788143E+03  0.53804403140E+03  0.12509000000E+03 0.  0.
         25    1    4    4    0    0 -0.61406293189E+02 -0.36442726963E+02  0.22558641505E+03  0.26764817194E+03  0.12509000000E+03 0.  0.
<mgrwt>
<rscale>  2 0.45160135E+03</rscale>
<asrwt>0</asrwt>
<pdfrwt beam="1">  1       21 0.14077364E+00 0.45160135E+03</pdfrwt>
<pdfrwt beam="2">  1       21 0.78326967E-02 0.45160135E+03</pdfrwt>
<totfact> 0.39805921E+04</totfact>
</mgrwt>
</event>
<event>
 7    0  0.4732500E-002  0.4568917E+03  0.7546771E-02  0.1025687E+00
         21   -1    0    0  502  501  0.00000000000E+00  0.00000000000E+00  0.73832898277E+03  0.73832898277E+03  0.00000000000E+00 0. -1.
         21   -1    0    0  501  502 -0.00000000000E+00 -0.00000000000E+00 -0.70683262968E+02  0.70683262968E+02  0.00000000000E+00 0. -1.
      99926    2    1    2    0    0 -0.35527136788E-14 -0.71054273576E-14  0.66764571980E+03  0.80901224574E+03  0.45689167927E+03 0.  0.
      99925    2    3    3    0    0  0.21482736095E+02 -0.52995651337E+02  0.59591687647E+03  0.65389106061E+03  0.26303335999E+03 0.  0.
         25    1    3    3    0    0 -0.21482736095E+02  0.52995651337E+02  0.71728843333E+02  0.15512118513E+03  0.12509000000E+03 0.  0.
         25    1    4    4    0    0  0.44606234552E+02 -0.19840678719E+02  0.35313661684E+03  0.37780464124E+03  0.12509000000E+03 0.  0.
         25    1    4    4    0    0 -0.23123498457E+02 -0.33154972618E+02  0.24278025963E+03  0.27608641937E+03  0.12509000000E+03 0.  0.
<mgrwt>
<rscale>  2 0.45689168E+03</rscale>
<asrwt>0</asrwt>
<pdfrwt beam="1">  1       21 0.10857779E+00 0.45689168E+03</pdfrwt>
<pdfrwt beam="2">  1       21 0.10394598E-01 0.45689168E+03</pdfrwt>
<totfact> 0.46635834E+04</totfact>
</mgrwt>
</event>
<event>
 7    0  0.4732500E-002  0.4470525E+03  0.7546771E-02  0.1028605E+00
         21   -1    0    0  502  501  0.00000000000E+00  0.00000000000E+00  0.12349347460E+03  0.12349347460E+03  0.00000000000E+00 0. -1.
         21   -1    0    0  501  502 -0.00000000000E+00 -0.00000000000E+00 -0.40458808702E+03  0.40458808702E+03  0.00000000000E+00 0. -1.
      99926    2    1    2    0    0  0.00000000000E+00  0.00000000000E+00 -0.28109461242E+03  0.52808156162E+03  0.44705251883E+03 0.  0.
      99925    2    3    3    0    0 -0.37376289430E+02 -0.94839982098E+02 -0.21037705250E+03  0.35189958015E+03  0.26302699685E+03 0.  0.
         25    1    4    4    0    0  0.76241153773E+01 -0.14095772749E+02 -0.84469813879E+02  0.15178759996E+03  0.12509000000E+03 0.  0.
         25    1    3    3    0    0  0.37376289430E+02  0.94839982098E+02 -0.70717559917E+02  0.17618198148E+03  0.12509000000E+03 0.  0.
         25    1    4    4    0    0 -0.45000404808E+02 -0.80744209349E+02 -0.12590723863E+03  0.20011198019E+03  0.12509000000E+03 0.  0.
<mgrwt>
<rscale>  2 0.44705252E+03</rscale>
<asrwt>0</asrwt>
<pdfrwt beam="1">  1       21 0.18160805E-01 0.44705252E+03</pdfrwt>
<pdfrwt beam="2">  1       21 0.59498247E-01 0.44705252E+03</pdfrwt>
<totfact> 0.67485148E+04</totfact>
</mgrwt>
</event>
<event>
 7    0  0.4732500E-002  0.4245686E+03  0.7546771E-02  0.1035590E+00
         21   -1    0    0  502  501  0.00000000000E+00  0.00000000000E+00  0.21992343837E+03  0.21992343837E+03  0.00000000000E+00 0.  1.
         21   -1    0    0  501  502 -0.00000000000E+00 -0.00000000000E+00 -0.20491050188E+03  0.20491050188E+03  0.00000000000E+00 0.  1.
      99926    2    1    2    0    0  0.00000000000E+00  0.00000000000E+00  0.15012936485E+02  0.42483394025E+03  0.42456859108E+03 0.  0.
      99925    2    3    3    0    0 -0.69042638369E+02 -0.31533674490E+02 -0.19929676653E+02  0.27440205250E+03  0.26294112623E+03 0.  0.
         25    1    4    4    0    0 -0.23137745341E+02 -0.69526444918E+01 -0.47793415879E+02  0.13607135344E+03  0.12509000000E+03 0.  0.
         25    1    4    4    0    0 -0.45904893028E+02 -0.24581029998E+02  0.27863739226E+02  0.13833069906E+03  0.12509000000E+03 0.  0.
         25    1    3    3    0    0  0.69042638369E+02  0.31533674490E+02  0.34942613138E+02  0.15043188775E+03  0.12509000000E+03 0.  0.
<mgrwt>
<rscale>  2 0.42456859E+03</rscale>
<asrwt>0</asrwt>
<pdfrwt beam="1">  1       21 0.32341682E-01 0.42456859E+03</pdfrwt>
<pdfrwt beam="2">  1       21 0.30133897E-01 0.42456859E+03</pdfrwt>
<totfact> 0.90978490E+04</totfact>
</mgrwt>
</event>
<event>
 7    0  0.4732500E-002  0.4462212E+03  0.7546771E-02  0.1028855E+00
         21   -1    0    0  502  501  0.00000000000E+00  0.00000000000E+00  0.35612548744E+03  0.35612548744E+03  0.00000000000E+00 0. -1.
         21   -1    0    0  501  502 -0.00000000000E+00 -0.00000000000E+00 -0.13977754060E+03  0.13977754060E+03  0.00000000000E+00 0. -1.
      99926    2    1    2    0    0  0.00000000000E+00 -0.35527136788E-14  0.21634794684E+03  0.49590302804E+03  0.44622122217E+03 0.  0.
      99925    2    3    3    0    0 -0.70453528592E+02 -0.22226817542E+02  0.52470558137E+02  0.27690294188E+03  0.26165692928E+03 0.  0.
         25    1    3    3    0    0  0.70453528592E+02  0.22226817542E+02  0.16387738871E+03  0.21900008616E+03  0.12509000000E+03 0.  0.
         25    1    4    4    0    0 -0.25197811879E+02  0.11390141595E+02  0.55612999967E+02  0.13966022667E+03  0.12509000000E+03 0.  0.
         25    1    4    4    0    0 -0.45255716712E+02 -0.33616959137E+02 -0.31424418306E+01  0.13724271521E+03  0.12509000000E+03 0.  0.
<mgrwt>
<rscale>  2 0.44622122E+03</rscale>
<asrwt>0</asrwt>
<pdfrwt beam="1">  1       21 0.52371395E-01 0.44622122E+03</pdfrwt>
<pdfrwt beam="2">  1       21 0.20555521E-01 0.44622122E+03</pdfrwt>
<totfact> 0.70334403E+04</totfact>
</mgrwt>
</event>
<event>
 7    0  0.4732500E-002  0.4681770E+03  0.7546771E-02  0.1022436E+00
         21   -1    0    0  502  501  0.00000000000E+00  0.00000000000E+00  0.46536581827E+03  0.46536581827E+03  0.00000000000E+00 0.  1.
         21   -1    0    0  501  502 -0.00000000000E+00 -0.00000000000E+00 -0.11775128121E+03  0.11775128121E+03  0.00000000000E+00 0.  1.
      99926    2    1    2    0    0  0.00000000000E+00  0.35527136788E-14  0.34761453706E+03  0.58311709948E+03  0.46817698078E+03 0.  0.
      99925    2    3    3    0    0  0.10492853486E+03 -0.29096891315E+02  0.29282530285E+03  0.40845744530E+03  0.26312392541E+03 0.  0.
         25    1    4    4    0    0  0.45345171792E+02  0.26002810646E+02  0.13453889840E+03  0.19099883258E+03  0.12509000000E+03 0.  0.
         25    1    4    4    0    0  0.59583363072E+02 -0.55099701961E+02  0.15828640445E+03  0.21745861272E+03  0.12509000000E+03 0.  0.
         25    1    3    3    0    0 -0.10492853486E+03  0.29096891315E+02  0.54789234212E+02  0.17465965418E+03  0.12509000000E+03 0.  0.
<mgrwt>
<rscale>  2 0.46817698E+03</rscale>
<asrwt>0</asrwt>
<pdfrwt beam="1">  1       21 0.68436149E-01 0.46817698E+03</pdfrwt>
<pdfrwt beam="2">  1       21 0.17316365E-01 0.46817698E+03</pdfrwt>
<totfact> 0.53892449E+04</totfact>
</mgrwt>
</event>
<event>
 7    0  0.4732500E-002  0.4477453E+03  0.7546771E-02  0.1028397E+00
         21   -1    0    0  502  501  0.00000000000E+00  0.00000000000E+00  0.63292592631E+02  0.63292592631E+02  0.00000000000E+00 0.  1.
         21   -1    0    0  501  502 -0.00000000000E+00 -0.00000000000E+00 -0.79186136768E+03  0.79186136768E+03  0.00000000000E+00 0.  1.
      99926    2    1    2    0    0  0.00000000000E+00  0.00000000000E+00 -0.72856877505E+03  0.85515396031E+03  0.44774528011E+03 0.  0.
      99925    2    3    3    0    0  0.16820251022E+02  0.97855250666E+02 -0.53372724037E+03  0.60322281364E+03  0.26297228914E+03 0.  0.
         25    1    4    4    0    0  0.27224766966E+02  0.13881069782E+02 -0.21692445380E+03  0.25226493769E+03  0.12509000000E+03 0.  0.
         25    1    4    4    0    0 -0.10404515944E+02  0.83974180884E+02 -0.31680278657E+03  0.35095787594E+03  0.12509000000E+03 0.  0.
         25    1    3    3    0    0 -0.16820251022E+02 -0.97855250666E+02 -0.19484153468E+03  0.25193114667E+03  0.12509000000E+03 0.  0.
<mgrwt>
<rscale>  2 0.44774528E+03</rscale>
<asrwt>0</asrwt>
<pdfrwt beam="1">  1       21 0.93077346E-02 0.44774528E+03</pdfrwt>
<pdfrwt beam="2">  1       21 0.11645020E+00 0.44774528E+03</pdfrwt>
<totfact> 0.47876514E+04</totfact>
</mgrwt>
</event>
<event>
 7    0  0.4732500E-002  0.4571484E+03  0.7546771E-02  0.1025612E+00
         21   -1    0    0  502  501  0.00000000000E+00  0.00000000000E+00  0.31325711914E+03  0.31325711914E+03  0.00000000000E+00 0. -1.
         21   -1    0    0  501  502 -0.00000000000E+00 -0.00000000000E+00 -0.16678363245E+03  0.16678363245E+03  0.00000000000E+00 0. -1.
      99926    2    1    2    0    0 -0.22204460493E-15  0.00000000000E+00  0.14647348669E+03  0.48004075159E+03  0.45714837950E+03 0.  0.
      99925    2    3    3    0    0 -0.10793821419E+01  0.11281904337E+03  0.11625970162E+03  0.30889846423E+03  0.26300692267E+03 0.  0.
         25    1    4    4    0    0 -0.91623300049E+01  0.88281023106E+02  0.92092488363E+02  0.17890226898E+03  0.12509000000E+03 0.  0.
         25    1    4    4    0    0  0.80829478630E+01  0.24538020264E+02  0.24167213261E+02  0.12999619526E+03  0.12509000000E+03 0.  0.
         25    1    3    3    0    0  0.10793821419E+01 -0.11281904337E+03  0.30213785068E+02  0.17114228735E+03  0.12509000000E+03 0.  0.
<mgrwt>
<rscale>  2 0.45714838E+03</rscale>
<asrwt>0</asrwt>
<pdfrwt beam="1">  1       21 0.46067224E-01 0.45714838E+03</pdfrwt>
<pdfrwt beam="2">  1       21 0.24527005E-01 0.45714838E+03</pdfrwt>
<totfact> 0.65571848E+04</totfact>
</mgrwt>
</event>
<event>
 7    0  0.4732500E-002  0.4492463E+03  0.7546771E-02  0.1027947E+00
         21   -1    0    0  502  501  0.00000000000E+00  0.00000000000E+00  0.11558691420E+03  0.11558691420E+03  0.00000000000E+00 0.  1.
         21   -1    0    0  501  502 -0.00000000000E+00 -0.00000000000E+00 -0.43651619629E+03  0.43651619629E+03  0.00000000000E+00 0.  1.
      99926    2    1    2    0    0  0.00000000000E+00  0.00000000000E+00 -0.32092928210E+03  0.55210311049E+03  0.44924630272E+03 0.  0.
      99925    2    3    3    0    0 -0.35110281842E+02  0.59429962299E+02 -0.10124930557E+03  0.29005072546E+03  0.26289417862E+03 0.  0.
         25    1    3    3    0    0  0.35110281842E+02 -0.59429962299E+02 -0.21967997653E+03  0.26205238502E+03  0.12509000000E+03 0.  0.
         25    1    4    4    0    0 -0.50420194132E+02  0.19405576549E+02 -0.28769504646E+02  0.13926221625E+03  0.12509000000E+03 0.  0.
         25    1    4    4    0    0  0.15309912290E+02  0.40024385751E+02 -0.72479800923E+02  0.15078850921E+03  0.12509000000E+03 0.  0.
<mgrwt>
<rscale>  2 0.44924630E+03</rscale>
<asrwt>0</asrwt>
<pdfrwt beam="1">  1       21 0.16998076E-01 0.44924630E+03</pdfrwt>
<pdfrwt beam="2">  1       21 0.64193557E-01 0.44924630E+03</pdfrwt>
<totfact> 0.64619359E+04</totfact>
</mgrwt>
</event>
<event>
 7    0  0.4732500E-002  0.4236513E+03  0.7546771E-02  0.1035884E+00
         21   -1    0    0  502  501  0.00000000000E+00  0.00000000000E+00  0.72367888826E+03  0.72367888826E+03  0.00000000000E+00 0.  1.
         21   -1    0    0  501  502 -0.00000000000E+00 -0.00000000000E+00 -0.62002795214E+02  0.62002795214E+02  0.00000000000E+00 0.  1.
      99926    2    1    2    0    0  0.00000000000E+00  0.00000000000E+00  0.66167609305E+03  0.78568168348E+03  0.42365133735E+03 0.  0.
      99925    2    3    3    0    0 -0.62997137532E+02  0.22563369590E+02  0.51171967427E+03  0.57925450354E+03  0.26306084819E+03 0.  0.
         25    1    4    4    0    0 -0.45876369920E+02  0.31758052054E+01  0.18139249567E+03  0.22508992123E+03  0.12509000000E+03 0.  0.
         25    1    3    3    0    0  0.62997137532E+02 -0.22563369590E+02  0.14995641878E+03  0.20642717994E+03  0.12509000000E+03 0.  0.
         25    1    4    4    0    0 -0.17120767612E+02  0.19387564385E+02  0.33032717860E+03  0.35416458230E+03  0.12509000000E+03 0.  0.
<mgrwt>
<rscale>  2 0.42365134E+03</rscale>
<asrwt>0</asrwt>
<pdfrwt beam="1">  1       21 0.10642336E+00 0.42365134E+03</pdfrwt>
<pdfrwt beam="2">  1       21 0.91180585E-02 0.42365134E+03</pdfrwt>
<totfact> 0.62477701E+04</totfact>
</mgrwt>
</event>
<event>
 7    0  0.4732500E-002  0.4571248E+03  0.7546771E-02  0.1025618E+00
         21   -1    0    0  502  501  0.00000000000E+00  0.00000000000E+00  0.54631106045E+02  0.54631106045E+02  0.00000000000E+00 0. -1.
         21   -1    0    0  501  502 -0.00000000000E+00 -0.00000000000E+00 -0.95624578529E+03  0.95624578529E+03  0.00000000000E+00 0. -1.
      99926    2    1    2    0    0  0.00000000000E+00 -0.35527136788E-14 -0.90161467924E+03  0.10108768913E+04  0.45712477466E+03 0.  0.
      99925    2    3    3    0    0  0.10999847796E+03 -0.27740116095E+02 -0.60217139767E+03  0.66709939618E+03  0.26370823464E+03 0.  0.
         25    1    4    4    0    0  0.18960722556E+02  0.18513083521E+01 -0.22091348799E+03  0.25458439390E+03  0.12509000000E+03 0.  0.
         25    1    3    3    0    0 -0.10999847796E+03  0.27740116095E+02 -0.29944328157E+03  0.34377749515E+03  0.12509000000E+03 0.  0.
         25    1    4    4    0    0  0.91037755405E+02 -0.29591424447E+02 -0.38125790968E+03  0.41251500228E+03  0.12509000000E+03 0.  0.
<mgrwt>
<rscale>  2 0.45712477E+03</rscale>
<asrwt>0</asrwt>
<pdfrwt beam="1">  1       21 0.80339858E-02 0.45712477E+03</pdfrwt>
<pdfrwt beam="2">  1       21 0.14062439E+00 0.45712477E+03</pdfrwt>
<totfact> 0.38110114E+04</totfact>
</mgrwt>
</event>
<event>
 7    0  0.4732500E-002  0.4440642E+03  0.7546771E-02  0.1029507E+00
         21   -1    0    0  502  501  0.00000000000E+00  0.00000000000E+00  0.75267608685E+02  0.75267608685E+02  0.00000000000E+00 0. -1.
         21   -1    0    0  501  502 -0.00000000000E+00 -0.00000000000E+00 -0.65497312160E+03  0.65497312160E+03  0.00000000000E+00 0. -1.
      99926    2    1    2    0    0 -0.35527136788E-14  0.00000000000E+00 -0.57970551292E+03  0.73024073029E+03  0.44406423236E+03 0.  0.
      99925    2    3    3    0    0 -0.28787080686E+02  0.89076403445E+02 -0.29974223508E+03  0.40963154966E+03  0.26303858523E+03 0.  0.
         25    1    4    4    0    0 -0.29151558826E+02  0.39143977024E+02 -0.94702936933E+02  0.16431134679E+03  0.12509000000E+03 0.  0.
         25    1    3    3    0    0  0.28787080686E+02 -0.89076403445E+02 -0.27996327784E+03  0.32060918063E+03  0.12509000000E+03 0.  0.
         25    1    4    4    0    0  0.36447813966E+00  0.49932426421E+02 -0.20503929815E+03  0.24532020287E+03  0.12509000000E+03 0.  0.
<mgrwt>
<rscale>  2 0.44406423E+03</rscale>
<asrwt>0</asrwt>
<pdfrwt beam="1">  1       21 0.11068766E-01 0.44406423E+03</pdfrwt>
<pdfrwt beam="2">  1       21 0.96319580E-01 0.44406423E+03</pdfrwt>
<totfact> 0.55949931E+04</totfact>
</mgrwt>
</event>
<event>
 7    0  0.4732500E-002  0.4623195E+03  0.7546771E-02  0.1024111E+00
         21   -1    0    0  502  501  0.00000000000E+00  0.00000000000E+00  0.34406899812E+02  0.34406899812E+02  0.00000000000E+00 0. -1.
         21   -1    0    0  501  502 -0.00000000000E+00 -0.00000000000E+00 -0.15530267580E+04  0.15530267580E+04  0.00000000000E+00 0. -1.
      99926    2    1    2    0    0  0.00000000000E+00  0.00000000000E+00 -0.15186198582E+04  0.15874336578E+04  0.46231952616E+03 0.  0.
      99925    2    3    3    0    0  0.50888889714E+02  0.10536401162E+03 -0.85815669132E+03  0.90512115101E+03  0.26290708838E+03 0.  0.
         25    1    4    4    0    0  0.41622048473E+02  0.65928903522E+02 -0.34065746985E+03  0.37117924929E+03  0.12509000000E+03 0.  0.
         25    1    3    3    0    0 -0.50888889714E+02 -0.10536401162E+03 -0.66046316688E+03  0.68231250681E+03  0.12509000000E+03 0.  0.
         25    1    4    4    0    0  0.92668412410E+01  0.39435108096E+02 -0.51749922147E+03  0.53394190172E+03  0.12509000000E+03 0.  0.
<mgrwt>
<rscale>  2 0.46231953E+03</rscale>
<asrwt>0</asrwt>
<pdfrwt beam="1">  1       21 0.50598378E-02 0.46231953E+03</pdfrwt>
<pdfrwt beam="2">  1       21 0.22838631E+00 0.46231953E+03</pdfrwt>
<totfact> 0.20523603E+04</totfact>
</mgrwt>
</event>
<event>
 7    0  0.4732500E-002  0.4592705E+03  0.7546771E-02  0.1024993E+00
         21   -1    0    0  502  501  0.00000000000E+00  0.00000000000E+00  0.33576179184E+02  0.33576179184E+02  0.00000000000E+00 0. -1.
         21   -1    0    0  501  502 -0.00000000000E+00 -0.00000000000E+00 -0.15705285924E+04  0.15705285924E+04  0.00000000000E+00 0. -1.
      99926    2    1    2    0    0  0.00000000000E+00 -0.35527136788E-14 -0.15369524132E+04  0.16041047716E+04  0.45927050605E+03 0.  0.
      99925    2    3    3    0    0  0.11531878254E+03 -0.18930329373E+02 -0.92606741652E+03  0.96968790054E+03  0.26274890207E+03 0.  0.
         25    1    4    4    0    0  0.29351190051E+02 -0.39202437964E+02 -0.42001266860E+03  0.44097219117E+03  0.12509000000E+03 0.  0.
         25    1    4    4    0    0  0.85967592487E+02  0.20272108591E+02 -0.50605474791E+03  0.52871570936E+03  0.12509000000E+03 0.  0.
         25    1    3    3    0    0 -0.11531878254E+03  0.18930329373E+02 -0.61088499671E+03  0.63441687105E+03  0.12509000000E+03 0.  0.
<mgrwt>
<rscale>  2 0.45927051E+03</rscale>
<asrwt>0</asrwt>
<pdfrwt beam="1">  1       21 0.49376739E-02 0.45927051E+03</pdfrwt>
<pdfrwt beam="2">  1       21 0.23096006E+00 0.45927051E+03</pdfrwt>
<totfact> 0.20644110E+04</totfact>
</mgrwt>
</event>
<event>
 7    0  0.4732500E-002  0.4533072E+03  0.7546771E-02  0.1026740E+00
         21   -1    0    0  502  501  0.00000000000E+00  0.00000000000E+00  0.15000562095E+03  0.15000562095E+03  0.00000000000E+00 0. -1.
         21   -1    0    0  501  502 -0.00000000000E+00 -0.00000000000E+00 -0.34246622916E+03  0.34246622916E+03  0.00000000000E+00 0. -1.
      99926    2    1    2    0    0  0.00000000000E+00  0.00000000000E+00 -0.19246060821E+03  0.49247185011E+03  0.45330722192E+03 0.  0.
      99925    2    3    3    0    0 -0.55131718761E+02 -0.46011551045E+02 -0.21410308508E+03  0.34662098742E+03  0.26296275143E+03 0.  0.
         25    1    4    4    0    0 -0.51600614894E+01 -0.23832563981E+02 -0.60360182790E+02  0.14101587537E+03  0.12509000000E+03 0.  0.
         25    1    3    3    0    0  0.55131718761E+02  0.46011551045E+02  0.21642476865E+02  0.14585086269E+03  0.12509000000E+03 0.  0.
         25    1    4    4    0    0 -0.49971657271E+02 -0.22178987064E+02 -0.15374290229E+03  0.20560511205E+03  0.12509000000E+03 0.  0.
<mgrwt>
<rscale>  2 0.45330722E+03</rscale>
<asrwt>0</asrwt>
<pdfrwt beam="1">  1       21 0.22059651E-01 0.45330722E+03</pdfrwt>
<pdfrwt beam="2">  1       21 0.50362679E-01 0.45330722E+03</pdfrwt>
<totfact> 0.66694602E+04</totfact>
</mgrwt>
</event>
<event>
 7    0  0.4732500E-002  0.4598134E+03  0.7546771E-02  0.1024835E+00
         21   -1    0    0  502  501  0.00000000000E+00  0.00000000000E+00  0.21603315477E+03  0.21603315477E+03  0.00000000000E+00 0.  1.
         21   -1    0    0  501  502 -0.00000000000E+00 -0.00000000000E+00 -0.24467123282E+03  0.24467123282E+03  0.00000000000E+00 0.  1.
      99926    2    1    2    0    0  0.00000000000E+00  0.00000000000E+00 -0.28638078055E+02  0.46070438759E+03  0.45981343307E+03 0.  0.
      99925    2    3    3    0    0  0.11491762650E+03 -0.20201871282E+02 -0.33117685850E+02  0.28958527273E+03  0.26296135188E+03 0.  0.
         25    1    4    4    0    0  0.63643975100E+02  0.18539713045E+02  0.11525113102E+02  0.14203736430E+03  0.12509000000E+03 0.  0.
         25    1    4    4    0    0  0.51273651400E+02 -0.38741584327E+02 -0.44642798952E+02  0.14754790843E+03  0.12509000000E+03 0.  0.
         25    1    3    3    0    0 -0.11491762650E+03  0.20201871282E+02  0.44796077956E+01  0.17111911486E+03  0.12509000000E+03 0.  0.
<mgrwt>
<rscale>  2 0.45981343E+03</rscale>
<asrwt>0</asrwt>
<pdfrwt beam="1">  1       21 0.31769582E-01 0.45981343E+03</pdfrwt>
<pdfrwt beam="2">  1       21 0.35981063E-01 0.45981343E+03</pdfrwt>
<totfact> 0.65575074E+04</totfact>
</mgrwt>
</event>
<event>
 7    0  0.4732500E-002  0.4587231E+03  0.7546771E-02  0.1025152E+00
         21   -1    0    0  502  501  0.00000000000E+00  0.00000000000E+00  0.29772950976E+03  0.29772950976E+03  0.00000000000E+00 0. -1.
         21   -1    0    0  501  502 -0.00000000000E+00 -0.00000000000E+00 -0.17669299579E+03  0.17669299579E+03  0.00000000000E+00 0. -1.
      99926    2    1    2    0    0  0.00000000000E+00  0.00000000000E+00  0.12103651397E+03  0.47442250555E+03  0.45872309301E+03 0.  0.
      99925    2    3    3    0    0 -0.61946659843E+02 -0.62156261940E+02  0.15535319000E+03  0.31781493256E+03  0.26300366566E+03 0.  0.
         25    1    4    4    0    0  0.46575526149E+01 -0.46468758778E+02  0.89609547550E+02  0.16080552680E+03  0.12509000000E+03 0.  0.
         25    1    4    4    0    0 -0.66604212458E+02 -0.15687503162E+02  0.65743642450E+02  0.15700940575E+03  0.12509000000E+03 0.  0.
         25    1    3    3    0    0  0.61946659843E+02  0.62156261940E+02 -0.34316676029E+02  0.15660757299E+03  0.12509000000E+03 0.  0.
<mgrwt>
<rscale>  2 0.45872309E+03</rscale>
<asrwt>0</asrwt>
<pdfrwt beam="1">  1       21 0.43783751E-01 0.45872309E+03</pdfrwt>
<pdfrwt beam="2">  1       21 0.25984264E-01 0.45872309E+03</pdfrwt>
<totfact> 0.65162123E+04</totfact>
</mgrwt>
</event>
<event>
 7    0  0.4732500E-002  0.4579571E+03  0.7546771E-02  0.1025375E+00
         21   -1    0    0  502  501  0.00000000000E+00  0.00000000000E+00  0.20549328421E+03  0.20549328421E+03  0.00000000000E+00 0. -1.
         21   -1    0    0  501  502 -0.00000000000E+00 -0.00000000000E+00 -0.25514792609E+03  0.25514792609E+03  0.00000000000E+00 0. -1.
      99926    2    1    2    0    0  0.00000000000E+00 -0.14210854715E-13 -0.49654641883E+02  0.46064121030E+03  0.45795713900E+03 0.  0.
      99925    2    3    3    0    0  0.54115263039E+02  0.98639702756E+02 -0.59709090457E+02  0.29209788445E+03  0.26286450114E+03 0.  0.
         25    1    3    3    0    0 -0.54115263039E+02 -0.98639702756E+02  0.10054448575E+02  0.16854332585E+03  0.12509000000E+03 0.  0.
         25    1    4    4    0    0  0.13377830710E+02  0.84191123563E+01 -0.19455751926E+02  0.12757696575E+03  0.12509000000E+03 0.  0.
         25    1    4    4    0    0  0.40737432329E+02  0.90220590400E+02 -0.40253338532E+02  0.16452091869E+03  0.12509000000E+03 0.  0.
<mgrwt>
<rscale>  2 0.45795714E+03</rscale>
<asrwt>0</asrwt>
<pdfrwt beam="1">  1       21 0.30219601E-01 0.45795714E+03</pdfrwt>
<pdfrwt beam="2">  1       21 0.37521754E-01 0.45795714E+03</pdfrwt>
<totfact> 0.66550364E+04</totfact>
</mgrwt>
</event>
<event>
 7    0  0.4732500E-002  0.4515059E+03  0.7546771E-02  0.1027274E+00
         21   -1    0    0  502  501  0.00000000000E+00  0.00000000000E+00  0.75543001454E+02  0.75543001454E+02  0.00000000000E+00 0.  1.
         21   -1    0    0  501  502 -0.00000000000E+00 -0.00000000000E+00 -0.67464076549E+03  0.67464076549E+03  0.00000000000E+00 0.  1.
      99926    2    1    2    0    0  0.00000000000E+00  0.35527136788E-14 -0.59909776404E+03  0.75018376695E+03  0.45150587296E+03 0.  0.
      99925    2    3    3    0    0 -0.65462565877E+02  0.31537750051E+02 -0.51509968542E+03  0.58290208080E+03  0.26299652597E+03 0.  0.
         25    1    3    3    0    0  0.65462565877E+02 -0.31537750051E+02 -0.83998078621E+02  0.16728168615E+03  0.12509000000E+03 0.  0.
         25    1    4    4    0    0 -0.56355907530E+02  0.28431738400E+02 -0.20424876428E+03  0.24768814641E+03  0.12509000000E+03 0.  0.
         25    1    4    4    0    0 -0.91066583467E+01  0.31060116508E+01 -0.31085092114E+03  0.33521393439E+03  0.12509000000E+03 0.  0.
<mgrwt>
<rscale>  2 0.45150587E+03</rscale>
<asrwt>0</asrwt>
<pdfrwt beam="1">  1       21 0.11109265E-01 0.45150587E+03</pdfrwt>
<pdfrwt beam="2">  1       21 0.99211881E-01 0.45150587E+03</pdfrwt>
<totfact> 0.51665831E+04</totfact>
</mgrwt>
</event>
<event>
 7    0  0.4732500E-002  0.4545394E+03  0.7546771E-02  0.1026377E+00
         21   -1    0    0  502  501  0.00000000000E+00  0.00000000000E+00  0.72335181019E+02  0.72335181019E+02  0.00000000000E+00 0. -1.
         21   -1    0    0  501  502 -0.00000000000E+00 -0.00000000000E+00 -0.71405808900E+03  0.71405808900E+03  0.00000000000E+00 0. -1.
      99926    2    1    2    0    0  0.26645352591E-14  0.00000000000E+00 -0.64172290798E+03  0.78639327002E+03  0.45453942019E+03 0.  0.
      99925    2    3    3    0    0 -0.46464968043E+01 -0.91847606915E+02 -0.51628206030E+03  0.58679245039E+03  0.26328813346E+03 0.  0.
         25    1    4    4    0    0 -0.40927052005E+02 -0.35319258617E+02 -0.27261088802E+03  0.30477315824E+03  0.12509000000E+03 0.  0.
         25    1    3    3    0    0  0.46464968043E+01  0.91847606915E+02 -0.12544084768E+03  0.19960081962E+03  0.12509000000E+03 0.  0.
         25    1    4    4    0    0  0.36280555201E+02 -0.56528348298E+02 -0.24367117228E+03  0.28201929215E+03  0.12509000000E+03 0.  0.
<mgrwt>
<rscale>  2 0.45453942E+03</rscale>
<asrwt>0</asrwt>
<pdfrwt beam="1">  1       21 0.10637526E-01 0.45453942E+03</pdfrwt>
<pdfrwt beam="2">  1       21 0.10500855E+00 0.45453942E+03</pdfrwt>
<totfact> 0.48605489E+04</totfact>
</mgrwt>
</event>
<event>
 7    0  0.4732500E-002  0.4606278E+03  0.7546771E-02  0.1024599E+00
         21   -1    0    0  502  501  0.00000000000E+00  0.00000000000E+00  0.27749522887E+03  0.27749522887E+03  0.00000000000E+00 0.  1.
         21   -1    0    0  501  502 -0.00000000000E+00 -0.00000000000E+00 -0.19115458562E+03  0.19115458562E+03  0.00000000000E+00 0.  1.
      99926    2    1    2    0    0  0.00000000000E+00  0.00000000000E+00  0.86340643250E+02  0.46864981448E+03  0.46062776939E+03 0.  0.
      99925    2    3    3    0    0 -0.45220189282E+02 -0.70793462508E+02 -0.30829455891E+02  0.27777571963E+03  0.26296827796E+03 0.  0.
         25    1    4    4    0    0 -0.16990755417E+02 -0.31820779580E+02  0.25033891779E+02  0.13257243914E+03  0.12509000000E+03 0.  0.
         25    1    3    3    0    0  0.45220189282E+02  0.70793462508E+02  0.11717009914E+03  0.19087409485E+03  0.12509000000E+03 0.  0.
         25    1    4    4    0    0 -0.28229433865E+02 -0.38972682928E+02 -0.55863347670E+02  0.14520328049E+03  0.12509000000E+03 0.  0.
<mgrwt>
<rscale>  2 0.46062777E+03</rscale>
<asrwt>0</asrwt>
<pdfrwt beam="1">  1       21 0.40808122E-01 0.46062777E+03</pdfrwt>
<pdfrwt beam="2">  1       21 0.28110968E-01 0.46062777E+03</pdfrwt>
<totfact> 0.64601313E+04</totfact>
</mgrwt>
</event>
<event>
 7    0  0.4732500E-002  0.4564694E+03  0.7546771E-02  0.1025810E+00
         21   -1    0    0  502  501  0.00000000000E+00  0.00000000000E+00  0.25422354947E+03  0.25422354947E+03  0.00000000000E+00 0. -1.
         21   -1    0    0  501  502 -0.00000000000E+00 -0.00000000000E+00 -0.20490261884E+03  0.20490261884E+03  0.00000000000E+00 0. -1.
      99926    2    1    2    0    0  0.00000000000E+00  0.00000000000E+00  0.49320930631E+02  0.45912616832E+03  0.45646936834E+03 0.  0.
      99925    2    3    3    0    0  0.60161359867E+02  0.28792492806E+02 -0.60942035644E+02  0.27953266427E+03  0.26453011516E+03 0.  0.
         25    1    4    4    0    0  0.54514720515E+02  0.36383202357E+02 -0.61633022241E+02  0.15408351533E+03  0.12509000000E+03 0.  0.
         25    1    3    3    0    0 -0.60161359867E+02 -0.28792492806E+02  0.11026296627E+03  0.17959350404E+03  0.12509000000E+03 0.  0.
         25    1    4    4    0    0  0.56466393518E+01 -0.75907095517E+01  0.69098659785E+00  0.12544914894E+03  0.12509000000E+03 0.  0.
<mgrwt>
<rscale>  2 0.45646937E+03</rscale>
<asrwt>0</asrwt>
<pdfrwt beam="1">  1       21 0.37385816E-01 0.45646937E+03</pdfrwt>
<pdfrwt beam="2">  1       21 0.30132738E-01 0.45646937E+03</pdfrwt>
<totfact> 0.67450302E+04</totfact>
</mgrwt>
</event>
<event>
 7    0  0.4732500E-002  0.4572768E+03  0.7546771E-02  0.1025574E+00
         21   -1    0    0  502  501  0.00000000000E+00  0.00000000000E+00  0.41384859273E+03  0.41384859273E+03  0.00000000000E+00 0. -1.
         21   -1    0    0  501  502 -0.00000000000E+00 -0.00000000000E+00 -0.12631556598E+03  0.12631556598E+03  0.00000000000E+00 0. -1.
      99926    2    1    2    0    0  0.00000000000E+00  0.00000000000E+00  0.28753302675E+03  0.54016415870E+03  0.45727680553E+03 0.  0.
      99925    2    3    3    0    0 -0.46083081730E+02  0.74413230601E+02  0.26962693461E+03  0.38644650993E+03  0.26264280279E+03 0.  0.
         25    1    4    4    0    0 -0.11049329831E+02  0.33986124089E+02  0.18521375450E+03  0.22633777253E+03  0.12509000000E+03 0.  0.
         25    1    3    3    0    0  0.46083081730E+02 -0.74413230601E+02  0.17906092146E+02  0.15371764878E+03  0.12509000000E+03 0.  0.
         25    1    4    4    0    0 -0.35033751899E+02  0.40427106512E+02  0.84413180107E+02  0.16010873739E+03  0.12509000000E+03 0.  0.
<mgrwt>
<rscale>  2 0.45727681E+03</rscale>
<asrwt>0</asrwt>
<pdfrwt beam="1">  1       21 0.60860087E-01 0.45727681E+03</pdfrwt>
<pdfrwt beam="2">  1       21 0.18575819E-01 0.45727681E+03</pdfrwt>
<totfact> 0.61407221E+04</totfact>
</mgrwt>
</event>
<event>
 7    0  0.4732500E-002  0.4574735E+03  0.7546771E-02  0.1025517E+00
         21   -1    0    0  502  501  0.00000000000E+00  0.00000000000E+00  0.21367144368E+03  0.21367144368E+03  0.00000000000E+00 0.  1.
         21   -1    0    0  501  502 -0.00000000000E+00 -0.00000000000E+00 -0.24486423813E+03  0.24486423813E+03  0.00000000000E+00 0.  1.
      99926    2    1    2    0    0  0.00000000000E+00  0.00000000000E+00 -0.31192794449E+02  0.45853568181E+03  0.45747347581E+03 0.  0.
      99925    2    3    3    0    0 -0.85389964990E+02 -0.61851582636E+02 -0.66219386128E+02  0.29122927243E+03  0.26327251589E+03 0.  0.
         25    1    3    3    0    0  0.85389964990E+02  0.61851582636E+02  0.35026591680E+02  0.16730640938E+03  0.12509000000E+03 0.  0.
         25    1    4    4    0    0 -0.14199095182E+02 -0.60413198450E+02 -0.30635028919E+02  0.14295937167E+03  0.12509000000E+03 0.  0.
         25    1    4    4    0    0 -0.71190869808E+02 -0.14383841867E+01 -0.35584357209E+02  0.14826990076E+03  0.12509000000E+03 0.  0.
<mgrwt>
<rscale>  2 0.45747348E+03</rscale>
<asrwt>0</asrwt>
<pdfrwt beam="1">  1       21 0.31422271E-01 0.45747348E+03</pdfrwt>
<pdfrwt beam="2">  1       21 0.36009446E-01 0.45747348E+03</pdfrwt>
<totfact> 0.66956387E+04</totfact>
</mgrwt>
</event>
<event>
 6    0  0.4732500E-002  0.4600058E+03  0.7546771E-02  0.1024780E+00
         21   -1    0    0  502  501  0.00000000000E+00  0.00000000000E+00  0.17254447399E+03  0.17254447399E+03  0.00000000000E+00 0.  1.
         21   -1    0    0  501  502 -0.00000000000E+00 -0.00000000000E+00 -0.30659532233E+03  0.30659532233E+03  0.00000000000E+00 0.  1.
      99926    2    1    2    0    0  0.00000000000E+00  0.00000000000E+00 -0.13405084835E+03  0.47913979632E+03  0.46000577657E+03 0.  0.
         25    1    3    3    0    0  0.39159353868E+02  0.14830968658E+01  0.33736747384E+02  0.13535631051E+03  0.12509000000E+03 0.  0.
         25    1    3    3    0    0  0.48751752344E+02 -0.39378435276E+02 -0.10167913447E+03  0.17295533819E+03  0.12509000000E+03 0.  0.
         25    1    3    3    0    0 -0.87911106213E+02  0.37895338411E+02 -0.66108461263E+02  0.17082814762E+03  0.12509000000E+03 0.  0.
<mgrwt>
<rscale>  2 0.46000578E+03</rscale>
<asrwt>0</asrwt>
<pdfrwt beam="1">  1       21 0.25374188E-01 0.46000578E+03</pdfrwt>
<pdfrwt beam="2">  1       21 0.45087547E-01 0.46000578E+03</pdfrwt>
<totfact> 0.64175128E+04</totfact>
</mgrwt>
</event>
<event>
 7    0  0.4732500E-002  0.4344275E+03  0.7546771E-02  0.1032470E+00
         21   -1    0    0  502  501  0.00000000000E+00  0.00000000000E+00  0.73956980789E+02  0.73956980789E+02  0.00000000000E+00 0. -1.
         21   -1    0    0  501  502 -0.00000000000E+00 -0.00000000000E+00 -0.63796306870E+03  0.63796306870E+03  0.00000000000E+00 0. -1.
      99926    2    1    2    0    0  0.00000000000E+00  0.00000000000E+00 -0.56400608791E+03  0.71192004948E+03  0.43442754248E+03 0.  0.
      99925    2    3    3    0    0 -0.44047327771E+02 -0.81816114690E+02 -0.36455260397E+03  0.45881287049E+03  0.26263397601E+03 0.  0.
         25    1    3    3    0    0  0.44047327771E+02  0.81816114690E+02 -0.19945348394E+03  0.25310717900E+03  0.12509000000E+03 0.  0.
         25    1    4    4    0    0 -0.60809588745E+01 -0.35522225840E+02 -0.11683914285E+03  0.17492198258E+03  0.12509000000E+03 0.  0.
         25    1    4    4    0    0 -0.37966368896E+02 -0.46293888850E+02 -0.24771346112E+03  0.28389088790E+03  0.12509000000E+03 0.  0.
<mgrwt>
<rscale>  2 0.43442754E+03</rscale>
<asrwt>0</asrwt>
<pdfrwt beam="1">  1       21 0.10876027E-01 0.43442754E+03</pdfrwt>
<pdfrwt beam="2">  1       21 0.93818097E-01 0.43442754E+03</pdfrwt>
<totfact> 0.61648559E+04</totfact>
</mgrwt>
</event>
<event>
 7    0  0.4732500E-002  0.4361435E+03  0.7546771E-02  0.1031937E+00
         21   -1    0    0  502  501  0.00000000000E+00  0.00000000000E+00  0.36399031877E+03  0.36399031877E+03  0.00000000000E+00 0.  1.
         21   -1    0    0  501  502 -0.00000000000E+00 -0.00000000000E+00 -0.13064987064E+03  0.13064987064E+03  0.00000000000E+00 0.  1.
      99926    2    1    2    0    0  0.00000000000E+00 -0.14210854715E-13  0.23334044813E+03  0.49464018941E+03  0.43614349960E+03 0.  0.
      99925    2    3    3    0    0  0.31084530664E+02  0.64759221447E+02  0.80022879031E+02  0.28413178125E+03  0.26299658389E+03 0.  0.
         25    1    4    4    0    0  0.59892125194E+01  0.72566979875E+02  0.45709778164E+02  0.15178514142E+03  0.12509000000E+03 0.  0.
         25    1    4    4    0    0  0.25095318144E+02 -0.78077584286E+01  0.34313100867E+02  0.13234663983E+03  0.12509000000E+03 0.  0.
         25    1    3    3    0    0 -0.31084530664E+02 -0.64759221447E+02  0.15331756910E+03  0.21050840816E+03  0.12509000000E+03 0.  0.
<mgrwt>
<rscale>  2 0.43614350E+03</rscale>
<asrwt>0</asrwt>
<pdfrwt beam="1">  1       21 0.53527988E-01 0.43614350E+03</pdfrwt>
<pdfrwt beam="2">  1       21 0.19213216E-01 0.43614350E+03</pdfrwt>
<totfact> 0.76468511E+04</totfact>
</mgrwt>
</event>
<event>
 7    0  0.4732500E-002  0.3947310E+03  0.7546771E-02  0.1045620E+00
         21   -1    0    0  502  501  0.00000000000E+00  0.00000000000E+00  0.32624715457E+03  0.32624715457E+03  0.00000000000E+00 0.  1.
         21   -1    0    0  501  502 -0.00000000000E+00 -0.00000000000E+00 -0.11939765115E+03  0.11939765115E+03  0.00000000000E+00 0.  1.
      99926    2    1    2    0    0  0.71054273576E-14  0.54400928207E-14  0.20684950342E+03  0.44564480572E+03  0.39473101703E+03 0.  0.
      99925    2    3    3    0    0 -0.33829760611E+02  0.44152761653E+00  0.13824713382E+03  0.29902133944E+03  0.26297688830E+03 0.  0.
         25    1    4    4    0    0 -0.31861225272E+02  0.32488721880E+02  0.92157127100E+02  0.16189842155E+03  0.12509000000E+03 0.  0.
         25    1    4    4    0    0 -0.19685353389E+01 -0.32047194263E+02  0.46090006724E+02  0.13712291789E+03  0.12509000000E+03 0.  0.
         25    1    3    3    0    0  0.33829760611E+02 -0.44152761653E+00  0.68602369594E+02  0.14662346628E+03  0.12509000000E+03 0.  0.
<mgrwt>
<rscale>  2 0.39473102E+03</rscale>
<asrwt>0</asrwt>
<pdfrwt beam="1">  1       21 0.47977523E-01 0.39473102E+03</pdfrwt>
<pdfrwt beam="2">  1       21 0.17558478E-01 0.39473102E+03</pdfrwt>
<totfact> 0.11535017E+05</totfact>
</mgrwt>
</event>
<event>
 7    0  0.4732500E-002  0.4529825E+03  0.7546771E-02  0.1026836E+00
         21   -1    0    0  502  501  0.00000000000E+00  0.00000000000E+00  0.56585849589E+03  0.56585849589E+03  0.00000000000E+00 0.  1.
         21   -1    0    0  501  502 -0.00000000000E+00 -0.00000000000E+00 -0.90655684852E+02  0.90655684852E+02  0.00000000000E+00 0.  1.
      99926    2    1    2    0    0  0.00000000000E+00  0.00000000000E+00  0.47520281104E+03  0.65651418074E+03  0.45298251390E+03 0.  0.
      99925    2    3    3    0    0 -0.10400083305E+03  0.61943738053E+01  0.35651535374E+03  0.45504764714E+03  0.26288898831E+03 0.  0.
         25    1    4    4    0    0 -0.48240244991E+02  0.11379690632E+02  0.11341263798E+03  0.17597316031E+03  0.12509000000E+03 0.  0.
         25    1    4    4    0    0 -0.55760588054E+02 -0.51853168268E+01  0.24310271576E+03  0.27907448683E+03  0.12509000000E+03 0.  0.
         25    1    3    3    0    0  0.10400083305E+03 -0.61943738053E+01  0.11868745729E+03  0.20146653360E+03  0.12509000000E+03 0.  0.
<mgrwt>
<rscale>  2 0.45298251E+03</rscale>
<asrwt>0</asrwt>
<pdfrwt beam="1">  1       21 0.83214483E-01 0.45298251E+03</pdfrwt>
<pdfrwt beam="2">  1       21 0.13331719E-01 0.45298251E+03</pdfrwt>
<totfact> 0.56216844E+04</totfact>
</mgrwt>
</event>
<event>
 7    0  0.4732500E-002  0.4504364E+03  0.7546771E-02  0.1027592E+00
         21   -1    0    0  502  501  0.00000000000E+00  0.00000000000E+00  0.15088173877E+04  0.15088173877E+04  0.00000000000E+00 0.  1.
         21   -1    0    0  501  502 -0.00000000000E+00 -0.00000000000E+00 -0.33617874613E+02  0.33617874613E+02  0.00000000000E+00 0.  1.
      99926    2    1    2    0    0  0.00000000000E+00  0.17763568394E-14  0.14751995130E+04  0.15424352623E+04  0.45043638286E+03 0.  0.
      99925    2    3    3    0    0  0.42882163538E+02  0.11438960837E+02  0.59215535064E+03  0.64947152805E+03  0.26305052116E+03 0.  0.
         25    1    4    4    0    0  0.37008742808E+02  0.32472682088E+02  0.23946180140E+03  0.27461533926E+03  0.12509000000E+03 0.  0.
         25    1    4    4    0    0  0.58734207304E+01 -0.21033721250E+02  0.35269354924E+03  0.37485618879E+03  0.12509000000E+03 0.  0.
         25    1    3    3    0    0 -0.42882163538E+02 -0.11438960837E+02  0.88304416240E+03  0.89296373422E+03  0.12509000000E+03 0.  0.
<mgrwt>
<rscale>  2 0.45043638E+03</rscale>
<asrwt>0</asrwt>
<pdfrwt beam="1">  1       21 0.22188486E+00 0.45043638E+03</pdfrwt>
<pdfrwt beam="2">  1       21 0.49438061E-02 0.45043638E+03</pdfrwt>
<totfact> 0.23582881E+04</totfact>
</mgrwt>
</event>
<event>
 7    0  0.4732500E-002  0.4498171E+03  0.7546771E-02  0.1027777E+00
         21   -1    0    0  502  501  0.00000000000E+00  0.00000000000E+00  0.43810563449E+03  0.43810563449E+03  0.00000000000E+00 0. -1.
         21   -1    0    0  501  502 -0.00000000000E+00 -0.00000000000E+00 -0.11546039165E+03  0.11546039165E+03  0.00000000000E+00 0. -1.
      99926    2    1    2    0    0  0.00000000000E+00  0.71054273576E-14  0.32264524284E+03  0.55356602613E+03  0.44981706566E+03 0.  0.
      99925    2    3    3    0    0 -0.21519662164E+02  0.49442788265E+02  0.31948642121E+03  0.41731195674E+03  0.26300192154E+03 0.  0.
         25    1    4    4    0    0  0.22851597154E+02  0.95117327797E+00  0.15210910119E+03  0.19826191512E+03  0.12509000000E+03 0.  0.
         25    1    3    3    0    0  0.21519662164E+02 -0.49442788265E+02  0.31588216334E+01  0.13625406939E+03  0.12509000000E+03 0.  0.
         25    1    4    4    0    0 -0.44371259317E+02  0.48491614987E+02  0.16737732002E+03  0.21905004162E+03  0.12509000000E+03 0.  0.
<mgrwt>
<rscale>  2 0.44981707E+03</rscale>
<asrwt>0</asrwt>
<pdfrwt beam="1">  1       21 0.64427299E-01 0.44981707E+03</pdfrwt>
<pdfrwt beam="2">  1       21 0.16979469E-01 0.44981707E+03</pdfrwt>
<totfact> 0.64224635E+04</totfact>
</mgrwt>
</event>
<event>
 7    0  0.4732500E-002  0.4610155E+03  0.7546771E-02  0.1024487E+00
         21   -1    0    0  502  501  0.00000000000E+00  0.00000000000E+00  0.77617337776E+02  0.77617337776E+02  0.00000000000E+00 0. -1.
         21   -1    0    0  501  502 -0.00000000000E+00 -0.00000000000E+00 -0.68456128178E+03  0.68456128178E+03  0.00000000000E+00 0. -1.
      99926    2    1    2    0    0  0.35527136788E-14  0.00000000000E+00 -0.60694394400E+03  0.76217861955E+03  0.46101550619E+03 0.  0.
      99925    2    3    3    0    0  0.19923955064E+02 -0.42921737244E+02 -0.19993881983E+03  0.33376302843E+03  0.26302659174E+03 0.  0.
         25    1    3    3    0    0 -0.19923955064E+02  0.42921737244E+02 -0.40700512417E+03  0.42841559112E+03  0.12509000000E+03 0.  0.
         25    1    4    4    0    0  0.40695643381E+02 -0.20587373821E+02 -0.68358721339E+02  0.14966762587E+03  0.12509000000E+03 0.  0.
         25    1    4    4    0    0 -0.20771688317E+02 -0.22334363423E+02 -0.13158009849E+03  0.18409540256E+03  0.12509000000E+03 0.  0.
<mgrwt>
<rscale>  2 0.46101551E+03</rscale>
<asrwt>0</asrwt>
<pdfrwt beam="1">  1       21 0.11414315E-01 0.46101551E+03</pdfrwt>
<pdfrwt beam="2">  1       21 0.10067077E+00 0.46101551E+03</pdfrwt>
<totfact> 0.47371098E+04</totfact>
</mgrwt>
</event>
<event>
 7    0  0.4732500E-002  0.4530299E+03  0.7546771E-02  0.1026822E+00
         21   -1    0    0  502  501  0.00000000000E+00  0.00000000000E+00  0.13284218828E+03  0.13284218828E+03  0.00000000000E+00 0. -1.
         21   -1    0    0  501  502 -0.00000000000E+00 -0.00000000000E+00 -0.38624036724E+03  0.38624036724E+03  0.00000000000E+00 0. -1.
      99926    2    1    2    0    0  0.00000000000E+00 -0.66613381478E-15 -0.25339817896E+03  0.51908255552E+03  0.45302986916E+03 0.  0.
      99925    2    3    3    0    0 -0.10941530602E+03  0.18812272391E+01 -0.13590083739E+03  0.31554292404E+03  0.26291263017E+03 0.  0.
         25    1    3    3    0    0  0.10941530602E+03 -0.18812272391E+01 -0.11749734157E+03  0.20353963148E+03  0.12509000000E+03 0.  0.
         25    1    4    4    0    0 -0.56807121116E+02 -0.86982989655E+01 -0.11173774165E+03  0.17730070621E+03  0.12509000000E+03 0.  0.
         25    1    4    4    0    0 -0.52608184907E+02  0.10579526205E+02 -0.24163095735E+02  0.13824221783E+03  0.12509000000E+03 0.  0.
<mgrwt>
<rscale>  2 0.45302987E+03</rscale>
<asrwt>0</asrwt>
<pdfrwt beam="1">  1       21 0.19535616E-01 0.45302987E+03</pdfrwt>
<pdfrwt beam="2">  1       21 0.56800053E-01 0.45302987E+03</pdfrwt>
<totfact> 0.64959234E+04</totfact>
</mgrwt>
</event>
<event>
 7    0  0.4732500E-002  0.4698577E+03  0.7546771E-02  0.1021960E+00
         21   -1    0    0  502  501  0.00000000000E+00  0.00000000000E+00  0.84225466028E+03  0.84225466028E+03  0.00000000000E+00 0. -1.
         21   -1    0    0  501  502 -0.00000000000E+00 -0.00000000000E+00 -0.65528345782E+02  0.65528345782E+02  0.00000000000E+00 0. -1.
      99926    2    1    2    0    0  0.00000000000E+00  0.00000000000E+00  0.77672631449E+03  0.90778300606E+03  0.46985765766E+03 0.  0.
      99925    2    3    3    0    0  0.11590893175E+03 -0.12882070670E+02  0.38481859009E+03  0.48018506318E+03  0.26247194026E+03 0.  0.
         25    1    3    3    0    0 -0.11590893175E+03  0.12882070670E+02  0.39190772441E+03  0.42759794288E+03  0.12509000000E+03 0.  0.
         25    1    4    4    0    0  0.54404215131E+02 -0.23947950721E+01  0.25604677978E+03  0.29012586097E+03  0.12509000000E+03 0.  0.
         25    1    4    4    0    0  0.61504716616E+02 -0.10487275598E+02  0.12877181031E+03  0.19005920221E+03  0.12509000000E+03 0.  0.
<mgrwt>
<rscale>  2 0.46985766E+03</rscale>
<asrwt>0</asrwt>
<pdfrwt beam="1">  1       21 0.12386097E+00 0.46985766E+03</pdfrwt>
<pdfrwt beam="2">  1       21 0.96365219E-02 0.46985766E+03</pdfrwt>
<totfact> 0.38251650E+04</totfact>
</mgrwt>
</event>
<event>
 7    0  0.4732500E-002  0.4373305E+03  0.7546771E-02  0.1031569E+00
         21   -1    0    0  502  501  0.00000000000E+00  0.00000000000E+00  0.34388763708E+02  0.34388763708E+02  0.00000000000E+00 0.  1.
         21   -1    0    0  501  502 -0.00000000000E+00 -0.00000000000E+00 -0.13904102078E+04  0.13904102078E+04  0.00000000000E+00 0.  1.
      99926    2    1    2    0    0  0.00000000000E+00  0.00000000000E+00 -0.13560214441E+04  0.14247989715E+04  0.43733048415E+03 0.  0.
      99925    2    3    3    0    0 -0.30372068130E+02  0.88654778946E+02 -0.93058441686E+03  0.97155918443E+03  0.26297862953E+03 0.  0.
         25    1    3    3    0    0  0.30372068130E+02 -0.88654778946E+02 -0.42543702720E+03  0.45323978705E+03  0.12509000000E+03 0.  0.
         25    1    4    4    0    0 -0.41325260559E+01  0.82508928052E+02 -0.54854761503E+03  0.56866228557E+03  0.12509000000E+03 0.  0.
         25    1    4    4    0    0 -0.26239542074E+02  0.61458508940E+01 -0.38203680184E+03  0.40289689886E+03  0.12509000000E+03 0.  0.
<mgrwt>
<rscale>  2 0.43733048E+03</rscale>
<asrwt>0</asrwt>
<pdfrwt beam="1">  1       21 0.50571718E-02 0.43733048E+03</pdfrwt>
<pdfrwt beam="2">  1       21 0.20447206E+00 0.43733048E+03</pdfrwt>
<totfact> 0.29529765E+04</totfact>
</mgrwt>
</event>
<event>
 7    0  0.4732500E-002  0.4558246E+03  0.7546771E-02  0.1025999E+00
         21   -1    0    0  502  501  0.00000000000E+00  0.00000000000E+00  0.92458021870E+03  0.92458021870E+03  0.00000000000E+00 0.  1.
         21   -1    0    0  501  502 -0.00000000000E+00 -0.00000000000E+00 -0.56181188109E+02  0.56181188109E+02  0.00000000000E+00 0.  1.
      99926    2    1    2    0    0  0.00000000000E+00  0.00000000000E+00  0.86839903059E+03  0.98076140681E+03  0.45582459428E+03 0.  0.
      99925    2    3    3    0    0 -0.89283345292E+02 -0.20526112779E+02  0.69194532639E+03  0.74586514273E+03  0.26293276588E+03 0.  0.
         25    1    4    4    0    0 -0.29497010616E+02  0.24864497967E+02  0.36792059809E+03  0.39051426542E+03  0.12509000000E+03 0.  0.
         25    1    3    3    0    0  0.89283345292E+02  0.20526112779E+02  0.17645370421E+03  0.23489626408E+03  0.12509000000E+03 0.  0.
         25    1    4    4    0    0 -0.59786334676E+02 -0.45390610745E+02  0.32402472829E+03  0.35535087731E+03  0.12509000000E+03 0.  0.
<mgrwt>
<rscale>  2 0.45582459E+03</rscale>
<asrwt>0</asrwt>
<pdfrwt beam="1">  1       21 0.13596767E+00 0.45582459E+03</pdfrwt>
<pdfrwt beam="2">  1       21 0.82619400E-02 0.45582459E+03</pdfrwt>
<totfact> 0.39663226E+04</totfact>
</mgrwt>
</event>
<event>
 7    0  0.4732500E-002  0.4475501E+03  0.7546771E-02  0.1028455E+00
         21   -1    0    0  502  501  0.00000000000E+00  0.00000000000E+00  0.32400987797E+03  0.32400987797E+03  0.00000000000E+00 0.  1.
         21   -1    0    0  501  502 -0.00000000000E+00 -0.00000000000E+00 -0.15454856959E+03  0.15454856959E+03  0.00000000000E+00 0.  1.
      99926    2    1    2    0    0 -0.17763568394E-14  0.00000000000E+00  0.16946130838E+03  0.47855844755E+03  0.44755005607E+03 0.  0.
      99925    2    3    3    0    0  0.13048009195E+02 -0.58407943062E+02  0.13744898954E+02  0.27004742477E+03  0.26297328956E+03 0.  0.
         25    1    4    4    0    0 -0.22891291458E+02 -0.41279658332E+02 -0.18230446665E+02  0.13493657289E+03  0.12509000000E+03 0.  0.
         25    1    3    3    0    0 -0.13048009195E+02  0.58407943062E+02  0.15571640943E+03  0.20851102278E+03  0.12509000000E+03 0.  0.
         25    1    4    4    0    0  0.35939300652E+02 -0.17128284730E+02  0.31975345619E+02  0.13511085188E+03  0.12509000000E+03 0.  0.
<mgrwt>
<rscale>  2 0.44755006E+03</rscale>
<asrwt>0</asrwt>
<pdfrwt beam="1">  1       21 0.47648512E-01 0.44755006E+03</pdfrwt>
<pdfrwt beam="2">  1       21 0.22727731E-01 0.44755006E+03</pdfrwt>
<totfact> 0.70906568E+04</totfact>
</mgrwt>
</event>
<event>
 7    0  0.4732500E-002  0.4542712E+03  0.7546771E-02  0.1026456E+00
         21   -1    0    0  502  501  0.00000000000E+00  0.00000000000E+00  0.26390295825E+02  0.26390295825E+02  0.00000000000E+00 0.  1.
         21   -1    0    0  501  502 -0.00000000000E+00 -0.00000000000E+00 -0.19549074776E+04  0.19549074776E+04  0.00000000000E+00 0.  1.
      99926    2    1    2    0    0  0.14210854715E-13  0.00000000000E+00 -0.19285171817E+04  0.19812977734E+04  0.45427122579E+03 0.  0.
      99925    2    3    3    0    0  0.96718242937E+02 -0.52476054577E+02 -0.13156107600E+04  0.13461521643E+04  0.26303198063E+03 0.  0.
         25    1    3    3    0    0 -0.96718242937E+02  0.52476054577E+02 -0.61290642178E+03  0.63514560911E+03  0.12509000000E+03 0.  0.
         25    1    4    4    0    0  0.51521829221E+02 -0.85559454844E+01 -0.47548839333E+03  0.49443343676E+03  0.12509000000E+03 0.  0.
         25    1    4    4    0    0  0.45196413716E+02 -0.43920109093E+02 -0.84012236664E+03  0.85171872753E+03  0.12509000000E+03 0.  0.
<mgrwt>
<rscale>  2 0.45427123E+03</rscale>
<asrwt>0</asrwt>
<pdfrwt beam="1">  1       21 0.38809256E-02 0.45427123E+03</pdfrwt>
<pdfrwt beam="2">  1       21 0.28748641E+00 0.45427123E+03</pdfrwt>
<totfact> 0.14097091E+04</totfact>
</mgrwt>
</event>
<event>
 7    0  0.4732500E-002  0.4534166E+03  0.7546771E-02  0.1026708E+00
         21   -1    0    0  502  501  0.00000000000E+00  0.00000000000E+00  0.23536168176E+03  0.23536168176E+03  0.00000000000E+00 0.  1.
         21   -1    0    0  501  502 -0.00000000000E+00 -0.00000000000E+00 -0.21837306857E+03  0.21837306857E+03  0.00000000000E+00 0.  1.
      99926    2    1    2    0    0  0.17763568394E-14  0.00000000000E+00  0.16988613183E+02  0.45373475033E+03  0.45341659727E+03 0.  0.
      99925    2    3    3    0    0  0.13350411267E+02  0.10446559566E+03  0.47853058023E+02  0.28732737005E+03  0.26301294314E+03 0.  0.
         25    1    4    4    0    0 -0.68899229929E+01  0.84448544997E+02  0.49628761857E+02  0.15902688419E+03  0.12509000000E+03 0.  0.
         25    1    3    3    0    0 -0.13350411267E+02 -0.10446559566E+03 -0.30864444840E+02  0.16640738028E+03  0.12509000000E+03 0.  0.
         25    1    4    4    0    0  0.20240334260E+02  0.20017050660E+02 -0.17757038337E+01  0.12830048586E+03  0.12509000000E+03 0.  0.
<mgrwt>
<rscale>  2 0.45341660E+03</rscale>
<asrwt>0</asrwt>
<pdfrwt beam="1">  1       21 0.34612012E-01 0.45341660E+03</pdfrwt>
<pdfrwt beam="2">  1       21 0.32113686E-01 0.45341660E+03</pdfrwt>
<totfact> 0.69512668E+04</totfact>
</mgrwt>
</event>
<event>
 7    0  0.4732500E-002  0.4541599E+03  0.7546771E-02  0.1026489E+00
         21   -1    0    0  502  501  0.00000000000E+00  0.00000000000E+00  0.49690150052E+03  0.49690150052E+03  0.00000000000E+00 0. -1.
         21   -1    0    0  501  502 -0.00000000000E+00 -0.00000000000E+00 -0.10377370368E+03  0.10377370368E+03  0.00000000000E+00 0. -1.
      99926    2    1    2    0    0  0.00000000000E+00  0.00000000000E+00  0.39312779684E+03  0.60067520420E+03  0.45415992369E+03 0.  0.
      99925    2    3    3    0    0  0.67100713350E+02 -0.33751470815E+02  0.35818807107E+03  0.45064200770E+03  0.26294078674E+03 0.  0.
         25    1    3    3    0    0 -0.67100713350E+02  0.33751470815E+02  0.34939725773E+02  0.15003319650E+03  0.12509000000E+03 0.  0.
         25    1    4    4    0    0  0.30738679972E+02  0.15287475679E+02  0.21390096673E+03  0.25015935927E+03  0.12509000000E+03 0.  0.
         25    1    4    4    0    0  0.36362033378E+02 -0.49038946493E+02  0.14428710434E+03  0.20048264843E+03  0.12509000000E+03 0.  0.
<mgrwt>
<rscale>  2 0.45415992E+03</rscale>
<asrwt>0</asrwt>
<pdfrwt beam="1">  1       21 0.73073749E-01 0.45415992E+03</pdfrwt>
<pdfrwt beam="2">  1       21 0.15260839E-01 0.45415992E+03</pdfrwt>
<totfact> 0.59027547E+04</totfact>
</mgrwt>
</event>
<event>
 7    0  0.4732500E-002  0.4557535E+03  0.7546771E-02  0.1026020E+00
         21   -1    0    0  502  501  0.00000000000E+00  0.00000000000E+00  0.51611456618E+02  0.51611456618E+02  0.00000000000E+00 0.  1.
         21   -1    0    0  501  502 -0.00000000000E+00 -0.00000000000E+00 -0.10061297767E+04  0.10061297767E+04  0.00000000000E+00 0.  1.
      99926    2    1    2    0    0 -0.35527136788E-14  0.00000000000E+00 -0.95451832011E+03  0.10577412333E+04  0.45575354447E+03 0.  0.
      99925    2    3    3    0    0  0.20991893217E+02  0.10470527653E+03 -0.69223595272E+03  0.74815537634E+03  0.26294866115E+03 0.  0.
         25    1    3    3    0    0 -0.20991893217E+02 -0.10470527653E+03 -0.26228236739E+03  0.30958585701E+03  0.12509000000E+03 0.  0.
         25    1    4    4    0    0 -0.24500982714E+02  0.35690630428E+02 -0.28643692516E+03  0.31554356189E+03  0.12509000000E+03 0.  0.
         25    1    4    4    0    0  0.45492875931E+02  0.69014646098E+02 -0.40579902756E+03  0.43261181445E+03  0.12509000000E+03 0.  0.
<mgrwt>
<rscale>  2 0.45575354E+03</rscale>
<asrwt>0</asrwt>
<pdfrwt beam="1">  1       21 0.75899210E-02 0.45575354E+03</pdfrwt>
<pdfrwt beam="2">  1       21 0.14796024E+00 0.45575354E+03</pdfrwt>
<totfact> 0.36777847E+04</totfact>
</mgrwt>
</event>
<event>
 7    0  0.4732500E-002  0.4483585E+03  0.7546771E-02  0.1028213E+00
         21   -1    0    0  502  501  0.00000000000E+00  0.00000000000E+00  0.67524026488E+02  0.67524026488E+02  0.00000000000E+00 0.  1.
         21   -1    0    0  501  502 -0.00000000000E+00 -0.00000000000E+00 -0.74427350731E+03  0.74427350731E+03  0.00000000000E+00 0.  1.
      99926    2    1    2    0    0  0.00000000000E+00 -0.14210854715E-13 -0.67674948083E+03  0.81179753380E+03  0.44835853520E+03 0.  0.
      99925    2    3    3    0    0 -0.35981964679E+02  0.10010985194E+03 -0.42768328440E+03  0.51347193561E+03  0.26348387552E+03 0.  0.
         25    1    4    4    0    0 -0.33817817581E+02  0.73302807458E+02 -0.28693871612E+03  0.32326193911E+03  0.12509000000E+03 0.  0.
         25    1    3    3    0    0  0.35981964679E+02 -0.10010985194E+03 -0.24906619642E+03  0.29832559820E+03  0.12509000000E+03 0.  0.
         25    1    4    4    0    0 -0.21641470977E+01  0.26807044483E+02 -0.14074456828E+03  0.19020999650E+03  0.12509000000E+03 0.  0.
<mgrwt>
<rscale>  2 0.44835854E+03</rscale>
<asrwt>0</asrwt>
<pdfrwt beam="1">  1       21 0.99300040E-02 0.44835854E+03</pdfrwt>
<pdfrwt beam="2">  1       21 0.10945198E+00 0.44835854E+03</pdfrwt>
<totfact> 0.49741601E+04</totfact>
</mgrwt>
</event>
<event>
 7    0  0.4732500E-002  0.4528468E+03  0.7546771E-02  0.1026876E+00
         21   -1    0    0  502  501  0.00000000000E+00  0.00000000000E+00  0.43622262069E+02  0.43622262069E+02  0.00000000000E+00 0.  1.
         21   -1    0    0  501  502 -0.00000000000E+00 -0.00000000000E+00 -0.11752612824E+04  0.11752612824E+04  0.00000000000E+00 0.  1.
      99926    2    1    2    0    0  0.00000000000E+00 -0.71054273576E-14 -0.11316390203E+04  0.12188835445E+04  0.45284679820E+03 0.  0.
      99925    2    3    3    0    0  0.11440008946E+02 -0.51916236994E+02 -0.97618486243E+03  0.10123897848E+04  0.26300194159E+03 0.  0.
         25    1    3    3    0    0 -0.11440008946E+02  0.51916236994E+02 -0.15545415789E+03  0.20649375964E+03  0.12509000000E+03 0.  0.
         25    1    4    4    0    0  0.13182993986E+02  0.77400590592E+01 -0.38182189433E+03  0.40208104523E+03  0.12509000000E+03 0.  0.
         25    1    4    4    0    0 -0.17429850400E+01 -0.59656296053E+02 -0.59436296810E+03  0.61030873958E+03  0.12509000000E+03 0.  0.
<mgrwt>
<rscale>  2 0.45284680E+03</rscale>
<asrwt>0</asrwt>
<pdfrwt beam="1">  1       21 0.64150391E-02 0.45284680E+03</pdfrwt>
<pdfrwt beam="2">  1       21 0.17283253E+00 0.45284680E+03</pdfrwt>
<totfact> 0.32098019E+04</totfact>
</mgrwt>
</event>
<event>
 7    0  0.4732500E-002  0.4534146E+03  0.7546771E-02  0.1026709E+00
         21   -1    0    0  502  501  0.00000000000E+00  0.00000000000E+00  0.96923994428E+03  0.96923994428E+03  0.00000000000E+00 0.  1.
         21   -1    0    0  501  502 -0.00000000000E+00 -0.00000000000E+00 -0.53027328451E+02  0.53027328451E+02  0.00000000000E+00 0.  1.
      99926    2    1    2    0    0  0.00000000000E+00 -0.14210854715E-13  0.91621261583E+03  0.10222672727E+04  0.45341462206E+03 0.  0.
      99925    2    3    3    0    0 -0.24248840215E+02  0.78385900023E+02  0.40622444472E+03  0.49079027573E+03  0.26291527092E+03 0.  0.
         25    1    4    4    0    0 -0.12961710196E+02 -0.22326957787E+01  0.17272671947E+03  0.21367035026E+03  0.12509000000E+03 0.  0.
         25    1    4    4    0    0 -0.11287130020E+02  0.80618595802E+02  0.23349772525E+03  0.27711992547E+03  0.12509000000E+03 0.  0.
         25    1    3    3    0    0  0.24248840215E+02 -0.78385900023E+02  0.50998817111E+03  0.53147699701E+03  0.12509000000E+03 0.  0.
<mgrwt>
<rscale>  2 0.45341462E+03</rscale>
<asrwt>0</asrwt>
<pdfrwt beam="1">  1       21 0.14253527E+00 0.45341462E+03</pdfrwt>
<pdfrwt beam="2">  1       21 0.77981372E-02 0.45341462E+03</pdfrwt>
<totfact> 0.38789640E+04</totfact>
</mgrwt>
</event>
<event>
 7    0  0.4732500E-002  0.4254408E+03  0.7546771E-02  0.1035310E+00
         21   -1    0    0  502  501  0.00000000000E+00  0.00000000000E+00  0.82667243808E+02  0.82667243808E+02  0.00000000000E+00 0.  1.
         21   -1    0    0  501  502 -0.00000000000E+00 -0.00000000000E+00 -0.54737486654E+03  0.54737486654E+03  0.00000000000E+00 0.  1.
      99926    2    1    2    0    0  0.00000000000E+00  0.00000000000E+00 -0.46470762273E+03  0.63004211035E+03  0.42544081396E+03 0.  0.
      99925    2    3    3    0    0 -0.56449800343E+02 -0.16221841295E+02 -0.21537791191E+03  0.34497625674E+03  0.26300426742E+03 0.  0.
         25    1    3    3    0    0  0.56449800343E+02  0.16221841295E+02 -0.24932971082E+03  0.28506585360E+03  0.12509000000E+03 0.  0.
         25    1    4    4    0    0 -0.36326537411E+02 -0.14967015483E+02 -0.15956443558E+03  0.20652347584E+03  0.12509000000E+03 0.  0.
         25    1    4    4    0    0 -0.20123262932E+02 -0.12548258117E+01 -0.55813476337E+02  0.13845278090E+03  0.12509000000E+03 0.  0.
<mgrwt>
<rscale>  2 0.42544081E+03</rscale>
<asrwt>0</asrwt>
<pdfrwt beam="1">  1       21 0.12156948E-01 0.42544081E+03</pdfrwt>
<pdfrwt beam="2">  1       21 0.80496303E-01 0.42544081E+03</pdfrwt>
<totfact> 0.72312387E+04</totfact>
</mgrwt>
</event>
<event>
 7    0  0.4732500E-002  0.4536045E+03  0.7546771E-02  0.1026653E+00
         21   -1    0    0  502  501  0.00000000000E+00  0.00000000000E+00  0.26139058209E+03  0.26139058209E+03  0.00000000000E+00 0. -1.
         21   -1    0    0  501  502 -0.00000000000E+00 -0.00000000000E+00 -0.19679081950E+03  0.19679081950E+03  0.00000000000E+00 0. -1.
      99926    2    1    2    0    0  0.00000000000E+00  0.35527136788E-14  0.64599762590E+02  0.45818140160E+03  0.45360452758E+03 0.  0.
      99925    2    3    3    0    0 -0.84274871527E+02  0.16426127014E+02 -0.31992644546E+02  0.27832125360E+03  0.26280623905E+03 0.  0.
         25    1    4    4    0    0 -0.15406478207E+02 -0.19321991964E+02  0.80488152307E+00  0.12751021480E+03  0.12509000000E+03 0.  0.
         25    1    4    4    0    0 -0.68868393320E+02  0.35748118979E+02 -0.32797526069E+02  0.15081103880E+03  0.12509000000E+03 0.  0.
         25    1    3    3    0    0  0.84274871527E+02 -0.16426127014E+02  0.96592407136E+02  0.17986014799E+03  0.12509000000E+03 0.  0.
<mgrwt>
<rscale>  2 0.45360453E+03</rscale>
<asrwt>0</asrwt>
<pdfrwt beam="1">  1       21 0.38439792E-01 0.45360453E+03</pdfrwt>
<pdfrwt beam="2">  1       21 0.28939826E-01 0.45360453E+03</pdfrwt>
<totfact> 0.69078864E+04</totfact>
</mgrwt>
</event>
<event>
 7    0  0.4732500E-002  0.4536377E+03  0.7546771E-02  0.1026643E+00
         21   -1    0    0  502  501  0.00000000000E+00  0.00000000000E+00  0.14121747527E+03  0.14121747527E+03  0.00000000000E+00 0. -1.
         21   -1    0    0  501  502 -0.00000000000E+00 -0.00000000000E+00 -0.36430893040E+03  0.36430893040E+03  0.00000000000E+00 0. -1.
      99926    2    1    2    0    0  0.00000000000E+00  0.00000000000E+00 -0.22309145512E+03  0.50552640567E+03  0.45363768525E+03 0.  0.
      99925    2    3    3    0    0  0.75235029073E+02 -0.65806227654E+02 -0.19639782295E+03  0.34319702664E+03  0.26309945846E+03 0.  0.
         25    1    3    3    0    0 -0.75235029073E+02  0.65806227654E+02 -0.26693632176E+02  0.16232937903E+03  0.12509000000E+03 0.  0.
         25    1    4    4    0    0  0.49592087070E+02 -0.42025561318E+02 -0.14850905510E+03  0.20476320580E+03  0.12509000000E+03 0.  0.
         25    1    4    4    0    0  0.25642942003E+02 -0.23780666336E+02 -0.47888767845E+02  0.13843382084E+03  0.12509000000E+03 0.  0.
<mgrwt>
<rscale>  2 0.45363769E+03</rscale>
<asrwt>0</asrwt>
<pdfrwt beam="1">  1       21 0.20767275E-01 0.45363769E+03</pdfrwt>
<pdfrwt beam="2">  1       21 0.53574843E-01 0.45363769E+03</pdfrwt>
<totfact> 0.65590483E+04</totfact>
</mgrwt>
</event>
<event>
 7    0  0.4732500E-002  0.4677127E+03  0.7546771E-02  0.1022568E+00
         21   -1    0    0  502  501  0.00000000000E+00  0.00000000000E+00  0.68030848728E+03  0.68030848728E+03  0.00000000000E+00 0. -1.
         21   -1    0    0  501  502 -0.00000000000E+00 -0.00000000000E+00 -0.80388230172E+02  0.80388230172E+02  0.00000000000E+00 0. -1.
      99926    2    1    2    0    0  0.00000000000E+00  0.00000000000E+00  0.59992025711E+03  0.76069671745E+03  0.46771271209E+03 0.  0.
      99925    2    3    3    0    0  0.10380647364E+03  0.68413136654E+02  0.35458449772E+03  0.45854893214E+03  0.26283229616E+03 0.  0.
         25    1    4    4    0    0  0.69082193259E+02  0.21898084236E+02  0.23556609123E+03  0.27638879673E+03  0.12509000000E+03 0.  0.
         25    1    3    3    0    0 -0.10380647364E+03 -0.68413136654E+02  0.24533575939E+03  0.30214778531E+03  0.12509000000E+03 0.  0.
         25    1    4    4    0    0  0.34724280378E+02  0.46515052418E+02  0.11901840649E+03  0.18216013541E+03  0.12509000000E+03 0.  0.
<mgrwt>
<rscale>  2 0.46771271E+03</rscale>
<asrwt>0</asrwt>
<pdfrwt beam="1">  1       21 0.10004536E+00 0.46771271E+03</pdfrwt>
<pdfrwt beam="2">  1       21 0.11821799E-01 0.46771271E+03</pdfrwt>
<totfact> 0.45056027E+04</totfact>
</mgrwt>
</event>
<event>
 7    0  0.4732500E-002  0.4595495E+03  0.7546771E-02  0.1024912E+00
         21   -1    0    0  502  501  0.00000000000E+00  0.00000000000E+00  0.99231436728E+02  0.99231436728E+02  0.00000000000E+00 0.  1.
         21   -1    0    0  501  502 -0.00000000000E+00 -0.00000000000E+00 -0.53205360245E+03  0.53205360245E+03  0.00000000000E+00 0.  1.
      99926    2    1    2    0    0  0.00000000000E+00  0.00000000000E+00 -0.43282216573E+03  0.63128503918E+03  0.45954953329E+03 0.  0.
      99925    2    3    3    0    0  0.24764476813E+02  0.32119497391E+02 -0.42234008819E+03  0.49936717279E+03  0.26334669495E+03 0.  0.
         25    1    4    4    0    0 -0.24046580454E+02  0.34312454449E+02 -0.19876447449E+03  0.23855902200E+03  0.12509000000E+03 0.  0.
         25    1    4    4    0    0  0.48811057267E+02 -0.21929570577E+01 -0.22357561370E+03  0.26080815078E+03  0.12509000000E+03 0.  0.
         25    1    3    3    0    0 -0.24764476813E+02 -0.32119497391E+02 -0.10482077537E+02  0.13191786639E+03  0.12509000000E+03 0.  0.
<mgrwt>
<rscale>  2 0.45954953E+03</rscale>
<asrwt>0</asrwt>
<pdfrwt beam="1">  1       21 0.14592858E-01 0.45954953E+03</pdfrwt>
<pdfrwt beam="2">  1       21 0.78243177E-01 0.45954953E+03</pdfrwt>
<totfact> 0.54798056E+04</totfact>
</mgrwt>
</event>
<event>
 7    0  0.4732500E-002  0.4523746E+03  0.7546771E-02  0.1027016E+00
         21   -1    0    0  502  501  0.00000000000E+00  0.00000000000E+00  0.47230389344E+03  0.47230389344E+03  0.00000000000E+00 0. -1.
         21   -1    0    0  501  502 -0.00000000000E+00 -0.00000000000E+00 -0.10832157153E+03  0.10832157153E+03  0.00000000000E+00 0. -1.
      99926    2    1    2    0    0 -0.14210854715E-13 -0.71054273576E-14  0.36398232191E+03  0.58062546496E+03  0.45237462341E+03 0.  0.
      99925    2    3    3    0    0  0.10114924793E+03  0.41305814132E+02  0.25238067404E+03  0.38052604831E+03  0.26299568090E+03 0.  0.
         25    1    4    4    0    0  0.22226307700E+02  0.13456697969E+02  0.15669952321E+03  0.20218145352E+03  0.12509000000E+03 0.  0.
         25    1    4    4    0    0  0.78922940231E+02  0.27849116163E+02  0.95681150834E+02  0.17834459479E+03  0.12509000000E+03 0.  0.
         25    1    3    3    0    0 -0.10114924793E+03 -0.41305814132E+02  0.11160164787E+03  0.20009941665E+03  0.12509000000E+03 0.  0.
<mgrwt>
<rscale>  2 0.45237462E+03</rscale>
<asrwt>0</asrwt>
<pdfrwt beam="1">  1       21 0.69456454E-01 0.45237462E+03</pdfrwt>
<pdfrwt beam="2">  1       21 0.15929643E-01 0.45237462E+03</pdfrwt>
<totfact> 0.61146190E+04</totfact>
</mgrwt>
</event>
<event>
 7    0  0.4732500E-002  0.4742803E+03  0.7546771E-02  0.1020719E+00
         21   -1    0    0  502  501  0.00000000000E+00  0.00000000000E+00  0.26862179568E+03  0.26862179568E+03  0.00000000000E+00 0.  1.
         21   -1    0    0  501  502 -0.00000000000E+00 -0.00000000000E+00 -0.20934804495E+03  0.20934804495E+03  0.00000000000E+00 0.  1.
      99926    2    1    2    0    0  0.00000000000E+00 -0.14210854715E-13  0.59273750726E+02  0.47796984063E+03  0.47428028741E+03 0.  0.
      99925    2    3    3    0    0 -0.10038459962E+03  0.82792506811E+02  0.45502519544E+02  0.29694823437E+03  0.26301351217E+03 0.  0.
         25    1    3    3    0    0  0.10038459962E+03 -0.82792506811E+02  0.13771231181E+02  0.18102160626E+03  0.12509000000E+03 0.  0.
         25    1    4    4    0    0 -0.37525090856E+02  0.80511842005E+02  0.24781717352E+02  0.15540891468E+03  0.12509000000E+03 0.  0.
         25    1    4    4    0    0 -0.62859508767E+02  0.22806648063E+01  0.20720802192E+02  0.14153931969E+03  0.12509000000E+03 0.  0.
<mgrwt>
<rscale>  2 0.47428029E+03</rscale>
<asrwt>0</asrwt>
<pdfrwt beam="1">  1       21 0.39503205E-01 0.47428029E+03</pdfrwt>
<pdfrwt beam="2">  1       21 0.30786477E-01 0.47428029E+03</pdfrwt>
<totfact> 0.57523349E+04</totfact>
</mgrwt>
</event>
<event>
 7    0  0.4732500E-002  0.4481694E+03  0.7546771E-02  0.1028269E+00
         21   -1    0    0  502  501  0.00000000000E+00  0.00000000000E+00  0.75157582473E+02  0.75157582473E+02  0.00000000000E+00 0.  1.
         21   -1    0    0  501  502 -0.00000000000E+00 -0.00000000000E+00 -0.66811557598E+03  0.66811557598E+03  0.00000000000E+00 0.  1.
      99926    2    1    2    0    0  0.00000000000E+00 -0.17763568394E-14 -0.59295799351E+03  0.74327315845E+03  0.44816939433E+03 0.  0.
      99925    2    3    3    0    0  0.97065107990E+02 -0.86267657462E+01 -0.44746521244E+03  0.52807159312E+03  0.26294188492E+03 0.  0.
         25    1    3    3    0    0 -0.97065107990E+02  0.86267657462E+01 -0.14549278107E+03  0.21520156533E+03  0.12509000000E+03 0.  0.
         25    1    4    4    0    0  0.81611654914E+02 -0.10057664485E+02 -0.29011409085E+03  0.32645874569E+03  0.12509000000E+03 0.  0.
         25    1    4    4    0    0  0.15453453077E+02  0.14308987384E+01 -0.15735112159E+03  0.20161284743E+03  0.12509000000E+03 0.  0.
<mgrwt>
<rscale>  2 0.44816939E+03</rscale>
<asrwt>0</asrwt>
<pdfrwt beam="1">  1       21 0.11052586E-01 0.44816939E+03</pdfrwt>
<pdfrwt beam="2">  1       21 0.98252288E-01 0.44816939E+03</pdfrwt>
<totfact> 0.53427104E+04</totfact>
</mgrwt>
</event>
<event>
 7    0  0.4732500E-002  0.4585196E+03  0.7546771E-02  0.1025211E+00
         21   -1    0    0  502  501  0.00000000000E+00  0.00000000000E+00  0.11249856973E+03  0.11249856973E+03  0.00000000000E+00 0.  1.
         21   -1    0    0  501  502 -0.00000000000E+00 -0.00000000000E+00 -0.46720635585E+03  0.46720635585E+03  0.00000000000E+00 0.  1.
      99926    2    1    2    0    0 -0.14210854715E-13  0.71054273576E-14 -0.35470778613E+03  0.57970492558E+03  0.45851956033E+03 0.  0.
      99925    2    3    3    0    0  0.80509067352E+02 -0.45427858500E+02 -0.13291373935E+03  0.30880732954E+03  0.26296483494E+03 0.  0.
         25    1    3    3    0    0 -0.80509067352E+02  0.45427858500E+02 -0.22179404678E+03  0.27089759604E+03  0.12509000000E+03 0.  0.
         25    1    4    4    0    0  0.41797907956E+02 -0.57757423928E+02 -0.92831430031E+02  0.17131306906E+03  0.12509000000E+03 0.  0.
         25    1    4    4    0    0  0.38711159396E+02  0.12329565427E+02 -0.40082309314E+02  0.13749426048E+03  0.12509000000E+03 0.  0.
<mgrwt>
<rscale>  2 0.45851956E+03</rscale>
<asrwt>0</asrwt>
<pdfrwt beam="1">  1       21 0.16543907E-01 0.45851956E+03</pdfrwt>
<pdfrwt beam="2">  1       21 0.68706816E-01 0.45851956E+03</pdfrwt>
<totfact> 0.58305816E+04</totfact>
</mgrwt>
</event>
<event>
 7    0  0.4732500E-002  0.4531205E+03  0.7546771E-02  0.1026796E+00
         21   -1    0    0  502  501  0.00000000000E+00  0.00000000000E+00  0.34803551067E+03  0.34803551067E+03  0.00000000000E+00 0. -1.
         21   -1    0    0  501  502 -0.00000000000E+00 -0.00000000000E+00 -0.14748367937E+03  0.14748367937E+03  0.00000000000E+00 0. -1.
      99926    2    1    2    0    0 -0.24424906542E-14  0.00000000000E+00  0.20055183130E+03  0.49551919005E+03  0.45312054761E+03 0.  0.
      99925    2    3    3    0    0 -0.12644325924E+01 -0.82419798917E+02  0.44456047881E+02  0.27916756943E+03  0.26298967581E+03 0.  0.
         25    1    4    4    0    0 -0.16166672871E+02 -0.76598307032E+02  0.75122773936E+01  0.14775860166E+03  0.12509000000E+03 0.  0.
         25    1    4    4    0    0  0.14902240278E+02 -0.58214918850E+01  0.36943770488E+02  0.13140896777E+03  0.12509000000E+03 0.  0.
         25    1    3    3    0    0  0.12644325924E+01  0.82419798917E+02  0.15609578342E+03  0.21635162062E+03  0.12509000000E+03 0.  0.
<mgrwt>
<rscale>  2 0.45312055E+03</rscale>
<asrwt>0</asrwt>
<pdfrwt beam="1">  1       21 0.51181693E-01 0.45312055E+03</pdfrwt>
<pdfrwt beam="2">  1       21 0.21688776E-01 0.45312055E+03</pdfrwt>
<totfact> 0.66574358E+04</totfact>
</mgrwt>
</event>
<event>
 7    0  0.4732500E-002  0.4149298E+03  0.7546771E-02  0.1038729E+00
         21   -1    0    0  502  501  0.00000000000E+00  0.00000000000E+00  0.27950268469E+02  0.27950268469E+02  0.00000000000E+00 0.  1.
         21   -1    0    0  501  502 -0.00000000000E+00 -0.00000000000E+00 -0.15399378702E+04  0.15399378702E+04  0.00000000000E+00 0.  1.
      99926    2    1    2    0    0  0.71054273576E-14 -0.35527136788E-14 -0.15119876018E+04  0.15678881387E+04  0.41492976224E+03 0.  0.
      99925    2    3    3    0    0  0.48018974614E+02 -0.80111856322E+01 -0.11775407771E+04  0.12075102986E+04  0.26288559952E+03 0.  0.
         25    1    4    4    0    0  0.47505289456E+02  0.28089403944E+02 -0.63757023993E+03  0.65206524680E+03  0.12509000000E+03 0.  0.
         25    1    3    3    0    0 -0.48018974614E+02  0.80111856322E+01 -0.33444682461E+03  0.36037784007E+03  0.12509000000E+03 0.  0.
         25    1    4    4    0    0  0.51368515809E+00 -0.36100589576E+02 -0.53997053722E+03  0.55544505183E+03  0.12509000000E+03 0.  0.
<mgrwt>
<rscale>  2 0.41492976E+03</rscale>
<asrwt>0</asrwt>
<pdfrwt beam="1">  1       21 0.41103345E-02 0.41492976E+03</pdfrwt>
<pdfrwt beam="2">  1       21 0.22646140E+00 0.41492976E+03</pdfrwt>
<totfact> 0.30648030E+04</totfact>
</mgrwt>
</event>
<event>
 7    0  0.4732500E-002  0.4544293E+03  0.7546771E-02  0.1026409E+00
         21   -1    0    0  502  501  0.00000000000E+00  0.00000000000E+00  0.79200167518E+03  0.79200167518E+03  0.00000000000E+00 0. -1.
         21   -1    0    0  501  502 -0.00000000000E+00 -0.00000000000E+00 -0.65184839178E+02  0.65184839178E+02  0.00000000000E+00 0. -1.
      99926    2    1    2    0    0  0.00000000000E+00  0.00000000000E+00  0.72681683600E+03  0.85718651435E+03  0.45442932047E+03 0.  0.
      99925    2    3    3    0    0  0.35287950211E+02  0.73658390222E+02  0.31120688168E+03  0.41554192862E+03  0.26297257149E+03 0.  0.
         25    1    3    3    0    0 -0.35287950211E+02 -0.73658390222E+02  0.41560995432E+03  0.44164458573E+03  0.12509000000E+03 0.  0.
         25    1    4    4    0    0 -0.19839359928E+02  0.24233778638E+02  0.12824036636E+03  0.18186251921E+03  0.12509000000E+03 0.  0.
         25    1    4    4    0    0  0.55127310139E+02  0.49424611585E+02  0.18296651532E+03  0.23367940941E+03  0.12509000000E+03 0.  0.
<mgrwt>
<rscale>  2 0.45442932E+03</rscale>
<asrwt>0</asrwt>
<pdfrwt beam="1">  1       21 0.11647083E+00 0.45442932E+03</pdfrwt>
<pdfrwt beam="2">  1       21 0.95860062E-02 0.45442932E+03</pdfrwt>
<totfact> 0.45322113E+04</totfact>
</mgrwt>
</event>
<event>
 7    0  0.4732500E-002  0.4626015E+03  0.7546771E-02  0.1024029E+00
         21   -1    0    0  502  501  0.00000000000E+00  0.00000000000E+00  0.25123879185E+03  0.25123879185E+03  0.00000000000E+00 0.  1.
         21   -1    0    0  501  502 -0.00000000000E+00 -0.00000000000E+00 -0.21294496910E+03  0.21294496910E+03  0.00000000000E+00 0.  1.
      99926    2    1    2    0    0  0.00000000000E+00  0.00000000000E+00  0.38293822751E+02  0.46418376096E+03  0.46260149921E+03 0.  0.
      99925    2    3    3    0    0 -0.59043406908E+02  0.10354632072E+03  0.94303568801E+01  0.28900222027E+03  0.26310717827E+03 0.  0.
         25    1    4    4    0    0 -0.10764475573E+02  0.12228248580E+02 -0.40974789390E+01  0.12621292102E+03  0.12509000000E+03 0.  0.
         25    1    3    3    0    0  0.59043406908E+02 -0.10354632072E+03  0.28863465871E+02  0.17518154068E+03  0.12509000000E+03 0.  0.
         25    1    4    4    0    0 -0.48278931335E+02  0.91318072141E+02  0.13527835819E+02  0.16278929926E+03  0.12509000000E+03 0.  0.
<mgrwt>
<rscale>  2 0.46260150E+03</rscale>
<asrwt>0</asrwt>
<pdfrwt beam="1">  1       21 0.36946881E-01 0.46260150E+03</pdfrwt>
<pdfrwt beam="2">  1       21 0.31315436E-01 0.46260150E+03</pdfrwt>
<totfact> 0.63913019E+04</totfact>
</mgrwt>
</event>
<event>
 7    0  0.4732500E-002  0.4556235E+03  0.7546771E-02  0.1026058E+00
         21   -1    0    0  502  501  0.00000000000E+00  0.00000000000E+00  0.10136812424E+04  0.10136812424E+04  0.00000000000E+00 0.  1.
         21   -1    0    0  501  502 -0.00000000000E+00 -0.00000000000E+00 -0.51197752878E+02  0.51197752878E+02  0.00000000000E+00 0.  1.
      99926    2    1    2    0    0  0.00000000000E+00  0.00000000000E+00  0.96248348954E+03  0.10648789953E+04  0.45562353647E+03 0.  0.
      99925    2    3    3    0    0 -0.10684155564E+03 -0.39176683253E+02  0.59804773987E+03  0.66311929814E+03  0.26289955092E+03 0.  0.
         25    1    3    3    0    0  0.10684155564E+03  0.39176683253E+02  0.36443574967E+03  0.40175969716E+03  0.12509000000E+03 0.  0.
         25    1    4    4    0    0 -0.18547992623E+02 -0.55136472749E+01  0.31642320179E+03  0.34080137774E+03  0.12509000000E+03 0.  0.
         25    1    4    4    0    0 -0.88293563021E+02 -0.33663035978E+02  0.28162453808E+03  0.32231792040E+03  0.12509000000E+03 0.  0.
<mgrwt>
<rscale>  2 0.45562354E+03</rscale>
<asrwt>0</asrwt>
<pdfrwt beam="1">  1       21 0.14907076E+00 0.45562354E+03</pdfrwt>
<pdfrwt beam="2">  1       21 0.75290819E-02 0.45562354E+03</pdfrwt>
<totfact> 0.36557915E+04</totfact>
</mgrwt>
</event>
<event>
 7    0  0.4732500E-002  0.4439193E+03  0.7546771E-02  0.1029551E+00
         21   -1    0    0  502  501  0.00000000000E+00  0.00000000000E+00  0.10049444037E+04  0.10049444037E+04  0.00000000000E+00 0. -1.
         21   -1    0    0  501  502 -0.00000000000E+00 -0.00000000000E+00 -0.49023693838E+02  0.49023693838E+02  0.00000000000E+00 0. -1.
      99926    2    1    2    0    0  0.00000000000E+00  0.14210854715E-13  0.95592070985E+03  0.10539680975E+04  0.44391930244E+03 0.  0.
      99925    2    3    3    0    0 -0.14520027159E+02 -0.80410913718E+02  0.75508195922E+03  0.80364738706E+03  0.26272345033E+03 0.  0.
         25    1    4    4    0    0 -0.10233011274E+02 -0.55249612317E+02  0.49909223799E+03  0.51758845071E+03  0.12509000000E+03 0.  0.
         25    1    4    4    0    0 -0.42870158847E+01 -0.25161301400E+02  0.25598972123E+03  0.28605893635E+03  0.12509000000E+03 0.  0.
         25    1    3    3    0    0  0.14520027159E+02  0.80410913718E+02  0.20083875063E+03  0.25032071047E+03  0.12509000000E+03 0.  0.
<mgrwt>
<rscale>  2 0.44391930E+03</rscale>
<asrwt>0</asrwt>
<pdfrwt beam="1">  1       21 0.14778593E+00 0.44391930E+03</pdfrwt>
<pdfrwt beam="2">  1       21 0.72093674E-02 0.44391930E+03</pdfrwt>
<totfact> 0.40525048E+04</totfact>
</mgrwt>
</event>
<event>
 7    0  0.4732500E-002  0.4518975E+03  0.7546771E-02  0.1027158E+00
         21   -1    0    0  502  501  0.00000000000E+00  0.00000000000E+00  0.27396462227E+03  0.27396462227E+03  0.00000000000E+00 0. -1.
         21   -1    0    0  501  502 -0.00000000000E+00 -0.00000000000E+00 -0.18634824479E+03  0.18634824479E+03  0.00000000000E+00 0. -1.
      99926    2    1    2    0    0  0.00000000000E+00  0.00000000000E+00  0.87616377485E+02  0.46031286706E+03  0.45189745073E+03 0.  0.
      99925    2    3    3    0    0  0.70049538166E+02  0.57966169407E+02 -0.82385162990E+01  0.27837143869E+03  0.26297484696E+03 0.  0.
         25    1    4    4    0    0  0.20414674243E+02 -0.46264329682E+01  0.16514415947E+02  0.12789994856E+03  0.12509000000E+03 0.  0.
         25    1    3    3    0    0 -0.70049538166E+02 -0.57966169407E+02  0.95854893784E+02  0.18194142836E+03  0.12509000000E+03 0.  0.
         25    1    4    4    0    0  0.49634863923E+02  0.62592602375E+02 -0.24752932246E+02  0.15047149014E+03  0.12509000000E+03 0.  0.
<mgrwt>
<rscale>  2 0.45189745E+03</rscale>
<asrwt>0</asrwt>
<pdfrwt beam="1">  1       21 0.40288915E-01 0.45189745E+03</pdfrwt>
<pdfrwt beam="2">  1       21 0.27404154E-01 0.45189745E+03</pdfrwt>
<totfact> 0.69866843E+04</totfact>
</mgrwt>
</event>
<event>
 7    0  0.4732500E-002  0.4136342E+03  0.7546771E-02  0.1039158E+00
         21   -1    0    0  502  501  0.00000000000E+00  0.00000000000E+00  0.23569057809E+03  0.23569057809E+03  0.00000000000E+00 0.  1.
         21   -1    0    0  501  502 -0.00000000000E+00 -0.00000000000E+00 -0.18148074920E+03  0.18148074920E+03  0.00000000000E+00 0.  1.
      99926    2    1    2    0    0 -0.88817841970E-15 -0.35527136788E-14  0.54209828896E+02  0.41717132729E+03  0.41363415086E+03 0.  0.
      99925    2    3    3    0    0  0.76210387677E+01  0.19233948180E+02  0.10038351204E+03  0.28223600163E+03  0.26296822267E+03 0.  0.
         25    1    3    3    0    0 -0.76210387677E+01 -0.19233948180E+02 -0.46173683146E+02  0.13493532566E+03  0.12509000000E+03 0.  0.
         25    1    4    4    0    0 -0.25973452804E+01  0.43831719159E+02  0.28775672840E+02  0.13565954907E+03  0.12509000000E+03 0.  0.
         25    1    4    4    0    0  0.10218384048E+02 -0.24597770979E+02  0.71607839202E+02  0.14657645256E+03  0.12509000000E+03 0.  0.
<mgrwt>
<rscale>  2 0.41363415E+03</rscale>
<asrwt>0</asrwt>
<pdfrwt beam="1">  1       21 0.34660379E-01 0.41363415E+03</pdfrwt>
<pdfrwt beam="2">  1       21 0.26688345E-01 0.41363415E+03</pdfrwt>
<totfact> 0.10078424E+05</totfact>
</mgrwt>
</event>
<event>
 7    0  0.4732500E-002  0.4531525E+03  0.7546771E-02  0.1026786E+00
         21   -1    0    0  502  501  0.00000000000E+00  0.00000000000E+00  0.52363195202E+03  0.52363195202E+03  0.00000000000E+00 0. -1.
         21   -1    0    0  501  502 -0.00000000000E+00 -0.00000000000E+00 -0.98039841287E+02  0.98039841287E+02  0.00000000000E+00 0. -1.
      99926    2    1    2    0    0  0.00000000000E+00  0.00000000000E+00  0.42559211073E+03  0.62167179330E+03  0.45315248413E+03 0.  0.
      99925    2    3    3    0    0 -0.43738643116E+02 -0.85298985132E+02  0.19037299615E+03  0.33853838706E+03  0.26301592363E+03 0.  0.
         25    1    4    4    0    0 -0.37879266672E+02 -0.82557476116E+02  0.10082498670E+03  0.18456370648E+03  0.12509000000E+03 0.  0.
         25    1    3    3    0    0  0.43738643116E+02  0.85298985132E+02  0.23521911458E+03  0.28313340624E+03  0.12509000000E+03 0.  0.
         25    1    4    4    0    0 -0.58593764440E+01 -0.27415090160E+01  0.89548009443E+02  0.15397468058E+03  0.12509000000E+03 0.  0.
<mgrwt>
<rscale>  2 0.45315248E+03</rscale>
<asrwt>0</asrwt>
<pdfrwt beam="1">  1       21 0.77004698E-01 0.45315248E+03</pdfrwt>
<pdfrwt beam="2">  1       21 0.14417624E-01 0.45315248E+03</pdfrwt>
<totfact> 0.58208264E+04</totfact>
</mgrwt>
</event>
<event>
 7    0  0.4732500E-002  0.4567750E+03  0.7546771E-02  0.1025721E+00
         21   -1    0    0  502  501  0.00000000000E+00  0.00000000000E+00  0.45812011496E+03  0.45812011496E+03  0.00000000000E+00 0.  1.
         21   -1    0    0  501  502 -0.00000000000E+00 -0.00000000000E+00 -0.11385848200E+03  0.11385848200E+03  0.00000000000E+00 0.  1.
      99926    2    1    2    0    0  0.00000000000E+00  0.17763568394E-14  0.34426163296E+03  0.57197859696E+03  0.45677504689E+03 0.  0.
      99925    2    3    3    0    0  0.11716687374E+01 -0.11087153600E+02  0.73690840973E+02  0.27368283877E+03  0.26333943573E+03 0.  0.
         25    1    4    4    0    0  0.78819713564E+01  0.11066941948E+02  0.74961470596E+02  0.14646273536E+03  0.12509000000E+03 0.  0.
         25    1    4    4    0    0 -0.67103026190E+01 -0.22154095548E+02 -0.12706296231E+01  0.12722010341E+03  0.12509000000E+03 0.  0.
         25    1    3    3    0    0 -0.11716687374E+01  0.11087153600E+02  0.27057079198E+03  0.29829575819E+03  0.12509000000E+03 0.  0.
<mgrwt>
<rscale>  2 0.45677505E+03</rscale>
<asrwt>0</asrwt>
<pdfrwt beam="1">  1       21 0.67370604E-01 0.45677505E+03</pdfrwt>
<pdfrwt beam="2">  1       21 0.16743895E-01 0.45677505E+03</pdfrwt>
<totfact> 0.59596172E+04</totfact>
</mgrwt>
</event>
<event>
 7    0  0.4732500E-002  0.4533719E+03  0.7546771E-02  0.1026721E+00
         21   -1    0    0  502  501  0.00000000000E+00  0.00000000000E+00  0.65069872520E+02  0.65069872520E+02  0.00000000000E+00 0.  1.
         21   -1    0    0  501  502 -0.00000000000E+00 -0.00000000000E+00 -0.78971280806E+03  0.78971280806E+03  0.00000000000E+00 0.  1.
      99926    2    1    2    0    0  0.00000000000E+00  0.00000000000E+00 -0.72464293554E+03  0.85478268058E+03  0.45337186392E+03 0.  0.
      99925    2    3    3    0    0  0.18681799367E+02  0.85464131567E+02 -0.32584910436E+03  0.42777313116E+03  0.26298115049E+03 0.  0.
         25    1    4    4    0    0 -0.30565074026E+02  0.49805188226E+02 -0.16220316110E+03  0.21300740385E+03  0.12509000000E+03 0.  0.
         25    1    4    4    0    0  0.49246873393E+02  0.35658943341E+02 -0.16364594326E+03  0.21476572731E+03  0.12509000000E+03 0.  0.
         25    1    3    3    0    0 -0.18681799367E+02 -0.85464131567E+02 -0.39879383118E+03  0.42700954943E+03  0.12509000000E+03 0.  0.
<mgrwt>
<rscale>  2 0.45337186E+03</rscale>
<asrwt>0</asrwt>
<pdfrwt beam="1">  1       21 0.95691000E-02 0.45337186E+03</pdfrwt>
<pdfrwt beam="2">  1       21 0.11613422E+00 0.45337186E+03</pdfrwt>
<totfact> 0.45808411E+04</totfact>
</mgrwt>
</event>
<event>
 7    0  0.4732500E-002  0.4539797E+03  0.7546771E-02  0.1026542E+00
         21   -1    0    0  502  501  0.00000000000E+00  0.00000000000E+00  0.75825583738E+02  0.75825583738E+02  0.00000000000E+00 0. -1.
         21   -1    0    0  501  502 -0.00000000000E+00 -0.00000000000E+00 -0.67951205218E+03  0.67951205218E+03  0.00000000000E+00 0. -1.
      99926    2    1    2    0    0  0.00000000000E+00  0.00000000000E+00 -0.60368646844E+03  0.75533763592E+03  0.45397972648E+03 0.  0.
      99925    2    3    3    0    0  0.34498147254E+01 -0.67584830446E+02 -0.23131437806E+03  0.35672994367E+03  0.26300247277E+03 0.  0.
         25    1    3    3    0    0 -0.34498147254E+01  0.67584830446E+02 -0.37237209038E+03  0.39860769225E+03  0.12509000000E+03 0.  0.
         25    1    4    4    0    0  0.12099206389E+02 -0.53403821386E+02 -0.16501076055E+03  0.21418314157E+03  0.12509000000E+03 0.  0.
         25    1    4    4    0    0 -0.86493916637E+01 -0.14181009060E+02 -0.66303617515E+02  0.14254680210E+03  0.12509000000E+03 0.  0.
<mgrwt>
<rscale>  2 0.45397973E+03</rscale>
<asrwt>0</asrwt>
<pdfrwt beam="1">  1       21 0.11150820E-01 0.45397973E+03</pdfrwt>
<pdfrwt beam="2">  1       21 0.99928251E-01 0.45397973E+03</pdfrwt>
<totfact> 0.50402267E+04</totfact>
</mgrwt>
</event>
<event>
 7    0  0.4732500E-002  0.4498551E+03  0.7546771E-02  0.1027765E+00
         21   -1    0    0  502  501  0.00000000000E+00  0.00000000000E+00  0.14365520977E+04  0.14365520977E+04  0.00000000000E+00 0. -1.
         21   -1    0    0  501  502 -0.00000000000E+00 -0.00000000000E+00 -0.35217943120E+02  0.35217943120E+02  0.00000000000E+00 0. -1.
      99926    2    1    2    0    0  0.35527136788E-14  0.00000000000E+00  0.14013341546E+04  0.14717700408E+04  0.44985513253E+03 0.  0.
      99925    2    3    3    0    0 -0.16326765001E+02 -0.10324045024E+03  0.79341564654E+03  0.84237543142E+03  0.26298826108E+03 0.  0.
         25    1    3    3    0    0  0.16326765001E+02  0.10324045024E+03  0.60791850807E+03  0.62939460943E+03  0.12509000000E+03 0.  0.
         25    1    4    4    0    0 -0.17000278159E+02 -0.88812824912E+02  0.49420261939E+03  0.51774555955E+03  0.12509000000E+03 0.  0.
         25    1    4    4    0    0  0.67351315868E+00 -0.14427625333E+02  0.29921302715E+03  0.32462987187E+03  0.12509000000E+03 0.  0.
<mgrwt>
<rscale>  2 0.44985513E+03</rscale>
<asrwt>0</asrwt>
<pdfrwt beam="1">  1       21 0.21125762E+00 0.44985513E+03</pdfrwt>
<pdfrwt beam="2">  1       21 0.51791103E-02 0.44985513E+03</pdfrwt>
<totfact> 0.25482882E+04</totfact>
</mgrwt>
</event>
<event>
 7    0  0.4732500E-002  0.4557682E+03  0.7546771E-02  0.1026016E+00
         21   -1    0    0  502  501  0.00000000000E+00  0.00000000000E+00  0.20169244103E+03  0.20169244103E+03  0.00000000000E+00 0. -1.
         21   -1    0    0  501  502 -0.00000000000E+00 -0.00000000000E+00 -0.25747694619E+03  0.25747694619E+03  0.00000000000E+00 0. -1.
      99926    2    1    2    0    0  0.00000000000E+00  0.17763568394E-14 -0.55784505158E+02  0.45916938723E+03  0.45576815943E+03 0.  0.
      99925    2    3    3    0    0  0.11233690359E+03  0.14235610864E+02 -0.22435419245E+02  0.28717548572E+03  0.26295280762E+03 0.  0.
         25    1    4    4    0    0  0.85939036465E+02 -0.90318459140E+01  0.12699156363E+02  0.15256431071E+03  0.12509000000E+03 0.  0.
         25    1    3    3    0    0 -0.11233690359E+03 -0.14235610864E+02 -0.33349085913E+02  0.17199390151E+03  0.12509000000E+03 0.  0.
         25    1    4    4    0    0  0.26397867129E+02  0.23267456778E+02 -0.35134575608E+02  0.13461117501E+03  0.12509000000E+03 0.  0.
<mgrwt>
<rscale>  2 0.45576816E+03</rscale>
<asrwt>0</asrwt>
<pdfrwt beam="1">  1       21 0.29660653E-01 0.45576816E+03</pdfrwt>
<pdfrwt beam="2">  1       21 0.37864257E-01 0.45576816E+03</pdfrwt>
<totfact> 0.67824653E+04</totfact>
</mgrwt>
</event>
<event>
 7    0  0.4732500E-002  0.4547418E+03  0.7546771E-02  0.1026317E+00
         21   -1    0    0  502  501  0.00000000000E+00  0.00000000000E+00  0.50214753378E+02  0.50214753378E+02  0.00000000000E+00 0. -1.
         21   -1    0    0  501  502 -0.00000000000E+00 -0.00000000000E+00 -0.10295288039E+04  0.10295288039E+04  0.00000000000E+00 0. -1.
      99926    2    1    2    0    0  0.00000000000E+00 -0.35527136788E-14 -0.97931405055E+03  0.10797435573E+04  0.45474183878E+03 0.  0.
      99925    2    3    3    0    0 -0.10928465897E+03  0.18285679293E+02 -0.56502180084E+03  0.63301872139E+03  0.26303148757E+03 0.  0.
         25    1    4    4    0    0 -0.31730927426E+02  0.37850026883E+02 -0.31015429342E+03  0.33805719947E+03  0.12509000000E+03 0.  0.
         25    1    4    4    0    0 -0.77553731542E+02 -0.19564347590E+02 -0.25486750742E+03  0.29496152192E+03  0.12509000000E+03 0.  0.
         25    1    3    3    0    0  0.10928465897E+03 -0.18285679293E+02 -0.41429224971E+03  0.44672483591E+03  0.12509000000E+03 0.  0.
<mgrwt>
<rscale>  2 0.45474184E+03</rscale>
<asrwt>0</asrwt>
<pdfrwt beam="1">  1       21 0.73845226E-02 0.45474184E+03</pdfrwt>
<pdfrwt beam="2">  1       21 0.15140129E+00 0.45474184E+03</pdfrwt>
<totfact> 0.36277595E+04</totfact>
</mgrwt>
</event>
<event>
 7    0  0.4732500E-002  0.4534887E+03  0.7546771E-02  0.1026687E+00
         21   -1    0    0  502  501  0.00000000000E+00  0.00000000000E+00  0.53782093581E+02  0.53782093581E+02  0.00000000000E+00 0.  1.
         21   -1    0    0  501  502 -0.00000000000E+00 -0.00000000000E+00 -0.95595020679E+03  0.95595020679E+03  0.00000000000E+00 0.  1.
      99926    2    1    2    0    0  0.00000000000E+00  0.55511151231E-15 -0.90216811321E+03  0.10097323004E+04  0.45348871422E+03 0.  0.
      99925    2    3    3    0    0 -0.10378062086E+03  0.53943391182E+00 -0.66097782085E+03  0.71888702624E+03  0.26293757546E+03 0.  0.
         25    1    4    4    0    0 -0.22978590572E+02  0.26834482332E+02 -0.26923820792E+03  0.29897295157E+03  0.12509000000E+03 0.  0.
         25    1    4    4    0    0 -0.80802030284E+02 -0.26295048420E+02 -0.39173961293E+03  0.41991407468E+03  0.12509000000E+03 0.  0.
         25    1    3    3    0    0  0.10378062086E+03 -0.53943391182E+00 -0.24119029236E+03  0.29084527413E+03  0.12509000000E+03 0.  0.
<mgrwt>
<rscale>  2 0.45348871E+03</rscale>
<asrwt>0</asrwt>
<pdfrwt beam="1">  1       21 0.79091317E-02 0.45348871E+03</pdfrwt>
<pdfrwt beam="2">  1       21 0.14058091E+00 0.45348871E+03</pdfrwt>
<totfact> 0.39251539E+04</totfact>
</mgrwt>
</event>
<event>
 7    0  0.4732500E-002  0.4533318E+03  0.7546771E-02  0.1026733E+00
         21   -1    0    0  502  501  0.00000000000E+00  0.00000000000E+00  0.22113950049E+03  0.22113950049E+03  0.00000000000E+00 0. -1.
         21   -1    0    0  501  502 -0.00000000000E+00 -0.00000000000E+00 -0.23233041436E+03  0.23233041436E+03  0.00000000000E+00 0. -1.
      99926    2    1    2    0    0  0.14210854715E-13  0.71054273576E-14 -0.11190913877E+02  0.45346991485E+03  0.45333180687E+03 0.  0.
      99925    2    3    3    0    0  0.90572225367E+02 -0.62210986781E+02 -0.26515787424E+02  0.28626975118E+03  0.26300902755E+03 0.  0.
         25    1    4    4    0    0  0.36937233496E+02  0.10227469853E+02 -0.10140008160E+02  0.13122228554E+03  0.12509000000E+03 0.  0.
         25    1    4    4    0    0  0.53634991871E+02 -0.72438456634E+02 -0.16375779264E+02  0.15504746563E+03  0.12509000000E+03 0.  0.
         25    1    3    3    0    0 -0.90572225367E+02  0.62210986781E+02  0.15324873547E+02  0.16720016368E+03  0.12509000000E+03 0.  0.
<mgrwt>
<rscale>  2 0.45333181E+03</rscale>
<asrwt>0</asrwt>
<pdfrwt beam="1">  1       21 0.32520515E-01 0.45333181E+03</pdfrwt>
<pdfrwt beam="2">  1       21 0.34166237E-01 0.45333181E+03</pdfrwt>
<totfact> 0.69579568E+04</totfact>
</mgrwt>
</event>
<event>
 7    0  0.4732500E-002  0.4562935E+03  0.7546771E-02  0.1025862E+00
         21   -1    0    0  502  501  0.00000000000E+00  0.00000000000E+00  0.18442144910E+03  0.18442144910E+03  0.00000000000E+00 0.  1.
         21   -1    0    0  501  502 -0.00000000000E+00 -0.00000000000E+00 -0.28223904677E+03  0.28223904677E+03  0.00000000000E+00 0.  1.
      99926    2    1    2    0    0  0.00000000000E+00  0.71054273576E-14 -0.97817597674E+02  0.46666049587E+03  0.45629347572E+03 0.  0.
      99925    2    3    3    0    0 -0.15518845872E+02  0.48232290895E+02  0.43338482458E+02  0.27136652381E+03  0.26304824220E+03 0.  0.
         25    1    4    4    0    0 -0.41345542547E+01 -0.19267781472E+01  0.52648673190E+02  0.13579469026E+03  0.12509000000E+03 0.  0.
         25    1    3    3    0    0  0.15518845872E+02 -0.48232290895E+02 -0.14115608013E+03  0.19529397205E+03  0.12509000000E+03 0.  0.
         25    1    4    4    0    0 -0.11384291617E+02  0.50159069042E+02 -0.93101907328E+01  0.13557183356E+03  0.12509000000E+03 0.  0.
<mgrwt>
<rscale>  2 0.45629348E+03</rscale>
<asrwt>0</asrwt>
<pdfrwt beam="1">  1       21 0.27120802E-01 0.45629348E+03</pdfrwt>
<pdfrwt beam="2">  1       21 0.41505742E-01 0.45629348E+03</pdfrwt>
<totfact> 0.66995474E+04</totfact>
</mgrwt>
</event>
<event>
 7    0  0.4732500E-002  0.4729282E+03  0.7546771E-02  0.1021097E+00
         21   -1    0    0  502  501  0.00000000000E+00  0.00000000000E+00  0.86709065814E+03  0.86709065814E+03  0.00000000000E+00 0. -1.
         21   -1    0    0  501  502 -0.00000000000E+00 -0.00000000000E+00 -0.64486076294E+02  0.64486076294E+02  0.00000000000E+00 0. -1.
      99926    2    1    2    0    0  0.00000000000E+00  0.00000000000E+00  0.80260458185E+03  0.93157673444E+03  0.47292821584E+03 0.  0.
      99925    2    3    3    0    0  0.67585941982E+02 -0.95596594039E+02  0.38977266354E+03  0.48460439836E+03  0.26308197452E+03 0.  0.
         25    1    4    4    0    0  0.73542047309E+02 -0.61975889534E+02  0.19965073299E+03  0.25447468811E+03  0.12509000000E+03 0.  0.
         25    1    3    3    0    0 -0.67585941982E+02  0.95596594039E+02  0.41283191831E+03  0.44697233608E+03  0.12509000000E+03 0.  0.
         25    1    4    4    0    0 -0.59561053271E+01 -0.33620704505E+02  0.19012193055E+03  0.23012971025E+03  0.12509000000E+03 0.  0.
<mgrwt>
<rscale>  2 0.47292822E+03</rscale>
<asrwt>0</asrwt>
<pdfrwt beam="1">  1       21 0.12751333E+00 0.47292822E+03</pdfrwt>
<pdfrwt beam="2">  1       21 0.94832470E-02 0.47292822E+03</pdfrwt>
<totfact> 0.36499471E+04</totfact>
</mgrwt>
</event>
<event>
 7    0  0.4732500E-002  0.4531314E+03  0.7546771E-02  0.1026792E+00
         21   -1    0    0  502  501  0.00000000000E+00  0.00000000000E+00  0.34271411668E+03  0.34271411668E+03  0.00000000000E+00 0.  1.
         21   -1    0    0  501  502 -0.00000000000E+00 -0.00000000000E+00 -0.14978085685E+03  0.14978085685E+03  0.00000000000E+00 0.  1.
      99926    2    1    2    0    0 -0.14210854715E-13 -0.71054273576E-14  0.19293325983E+03  0.49249497352E+03  0.45313138955E+03 0.  0.
      99925    2    3    3    0    0 -0.96804952136E+02 -0.49913001233E+02  0.14688329704E+03  0.32035952214E+03  0.26304565008E+03 0.  0.
         25    1    3    3    0    0  0.96804952136E+02  0.49913001233E+02  0.46049962797E+02  0.17213545139E+03  0.12509000000E+03 0.  0.
         25    1    4    4    0    0 -0.82613621696E+02 -0.33903659368E+01  0.67625356313E+02  0.16449073526E+03  0.12509000000E+03 0.  0.
         25    1    4    4    0    0 -0.14191330440E+02 -0.46522635296E+02  0.79257940723E+02  0.15586878688E+03  0.12509000000E+03 0.  0.
<mgrwt>
<rscale>  2 0.45313139E+03</rscale>
<asrwt>0</asrwt>
<pdfrwt beam="1">  1       21 0.50399135E-01 0.45313139E+03</pdfrwt>
<pdfrwt beam="2">  1       21 0.22026597E-01 0.45313139E+03</pdfrwt>
<totfact> 0.66786426E+04</totfact>
</mgrwt>
</event>
<event>
 7    0  0.4732500E-002  0.4291489E+03  0.7546771E-02  0.1034129E+00
         21   -1    0    0  502  501  0.00000000000E+00  0.00000000000E+00  0.91145658061E+02  0.91145658061E+02  0.00000000000E+00 0. -1.
         21   -1    0    0  501  502 -0.00000000000E+00 -0.00000000000E+00 -0.50514967201E+03  0.50514967201E+03  0.00000000000E+00 0. -1.
      99926    2    1    2    0    0  0.00000000000E+00 -0.14210854715E-13 -0.41400401395E+03  0.59629533007E+03  0.42914892182E+03 0.  0.
      99925    2    3    3    0    0  0.90606240058E+01  0.78491542934E+02 -0.21734867294E+03  0.35019809630E+03  0.26297384624E+03 0.  0.
         25    1    4    4    0    0  0.75231861988E+01  0.31091016639E+02 -0.15745461601E+03  0.20362395205E+03  0.12509000000E+03 0.  0.
         25    1    3    3    0    0 -0.90606240058E+01 -0.78491542934E+02 -0.19665534101E+03  0.24609723377E+03  0.12509000000E+03 0.  0.
         25    1    4    4    0    0  0.15374378069E+01  0.47400526295E+02 -0.59894056928E+02  0.14657414425E+03  0.12509000000E+03 0.  0.
<mgrwt>
<rscale>  2 0.42914892E+03</rscale>
<asrwt>0</asrwt>
<pdfrwt beam="1">  1       21 0.13403773E-01 0.42914892E+03</pdfrwt>
<pdfrwt beam="2">  1       21 0.74286718E-01 0.42914892E+03</pdfrwt>
<totfact> 0.72646530E+04</totfact>
</mgrwt>
</event>
<event>
 7    0  0.4732500E-002  0.4571274E+03  0.7546771E-02  0.1025618E+00
         21   -1    0    0  502  501  0.00000000000E+00  0.00000000000E+00  0.55835220822E+03  0.55835220822E+03  0.00000000000E+00 0. -1.
         21   -1    0    0  501  502 -0.00000000000E+00 -0.00000000000E+00 -0.93563452221E+02  0.93563452221E+02  0.00000000000E+00 0. -1.
      99926    2    1    2    0    0 -0.71054273576E-14  0.00000000000E+00  0.46478875600E+03  0.65191566044E+03  0.45712737899E+03 0.  0.
      99925    2    3    3    0    0  0.40738752355E+02 -0.68602327461E+02  0.17348832140E+03  0.32500684047E+03  0.26299301020E+03 0.  0.
         25    1    4    4    0    0  0.51646333228E+02 -0.89759720338E+01  0.79529764793E+02  0.15722723491E+03  0.12509000000E+03 0.  0.
         25    1    4    4    0    0 -0.10907580873E+02 -0.59626355427E+02  0.93958556604E+02  0.16777960556E+03  0.12509000000E+03 0.  0.
         25    1    3    3    0    0 -0.40738752355E+02  0.68602327461E+02  0.29130043460E+03  0.32690881997E+03  0.12509000000E+03 0.  0.
<mgrwt>
<rscale>  2 0.45712738E+03</rscale>
<asrwt>0</asrwt>
<pdfrwt beam="1">  1       21 0.82110617E-01 0.45712738E+03</pdfrwt>
<pdfrwt beam="2">  1       21 0.13759331E-01 0.45712738E+03</pdfrwt>
<totfact> 0.54668032E+04</totfact>
</mgrwt>
</event>
<event>
 7    0  0.4732500E-002  0.4563741E+03  0.7546771E-02  0.1025838E+00
         21   -1    0    0  502  501  0.00000000000E+00  0.00000000000E+00  0.26307449790E+03  0.26307449790E+03  0.00000000000E+00 0.  1.
         21   -1    0    0  501  502 -0.00000000000E+00 -0.00000000000E+00 -0.19792617970E+03  0.19792617970E+03  0.00000000000E+00 0.  1.
      99926    2    1    2    0    0  0.00000000000E+00  0.00000000000E+00  0.65148318206E+02  0.46100067760E+03  0.45637410244E+03 0.  0.
      99925    2    3    3    0    0 -0.49222850276E+02 -0.95552490944E+02  0.98735504064E+00  0.28403371795E+03  0.26290874946E+03 0.  0.
         25    1    4    4    0    0 -0.28831884567E+02 -0.93156196609E+01  0.17325313614E+02  0.12986813670E+03  0.12509000000E+03 0.  0.
         25    1    3    3    0    0  0.49222850276E+02  0.95552490944E+02  0.64160963165E+02  0.17696695965E+03  0.12509000000E+03 0.  0.
         25    1    4    4    0    0 -0.20390965710E+02 -0.86236871283E+02 -0.16337958573E+02  0.15416558125E+03  0.12509000000E+03 0.  0.
<mgrwt>
<rscale>  2 0.45637410E+03</rscale>
<asrwt>0</asrwt>
<pdfrwt beam="1">  1       21 0.38687426E-01 0.45637410E+03</pdfrwt>
<pdfrwt beam="2">  1       21 0.29106791E-01 0.45637410E+03</pdfrwt>
<totfact> 0.67366470E+04</totfact>
</mgrwt>
</event>
<event>
 7    0  0.4732500E-002  0.4540699E+03  0.7546771E-02  0.1026515E+00
         21   -1    0    0  502  501  0.00000000000E+00  0.00000000000E+00  0.39980318852E+03  0.39980318852E+03  0.00000000000E+00 0. -1.
         21   -1    0    0  501  502 -0.00000000000E+00 -0.00000000000E+00 -0.12892558254E+03  0.12892558254E+03  0.00000000000E+00 0. -1.
      99926    2    1    2    0    0  0.00000000000E+00 -0.35527136788E-14  0.27087760599E+03  0.52872877106E+03  0.45406985797E+03 0.  0.
      99925    2    3    3    0    0 -0.87084048611E+02 -0.18649337831E+02  0.25006454142E+03  0.37377032153E+03  0.26313598967E+03 0.  0.
         25    1    3    3    0    0  0.87084048611E+02  0.18649337831E+02  0.20813064571E+02  0.15495844953E+03  0.12509000000E+03 0.  0.
         25    1    4    4    0    0 -0.54176945653E+02  0.29965292303E+02  0.12903907751E+03  0.19008327598E+03  0.12509000000E+03 0.  0.
         25    1    4    4    0    0 -0.32907102959E+02 -0.48614630134E+02  0.12102546391E+03  0.18368704555E+03  0.12509000000E+03 0.  0.
<mgrwt>
<rscale>  2 0.45406986E+03</rscale>
<asrwt>0</asrwt>
<pdfrwt beam="1">  1       21 0.58794586E-01 0.45406986E+03</pdfrwt>
<pdfrwt beam="2">  1       21 0.18959645E-01 0.45406986E+03</pdfrwt>
<totfact> 0.63761456E+04</totfact>
</mgrwt>
</event>
<event>
 7    0  0.4732500E-002  0.4337928E+03  0.7546771E-02  0.1032669E+00
         21   -1    0    0  502  501  0.00000000000E+00  0.00000000000E+00  0.88258618257E+03  0.88258618257E+03  0.00000000000E+00 0. -1.
         21   -1    0    0  501  502 -0.00000000000E+00 -0.00000000000E+00 -0.53302495317E+02  0.53302495317E+02  0.00000000000E+00 0. -1.
      99926    2    1    2    0    0  0.26645352591E-14  0.14210854715E-13  0.82928368725E+03  0.93588867788E+03  0.43379278861E+03 0.  0.
      99925    2    3    3    0    0  0.88774161495E+00 -0.82765974051E+02  0.44621730917E+03  0.52450278524E+03  0.26294921598E+03 0.  0.
         25    1    4    4    0    0 -0.23260377105E+02 -0.99930448855E+01  0.18212472601E+03  0.22239116443E+03  0.12509000000E+03 0.  0.
         25    1    4    4    0    0  0.24148118720E+02 -0.72772929165E+02  0.26409258315E+03  0.30211162082E+03  0.12509000000E+03 0.  0.
         25    1    3    3    0    0 -0.88774161495E+00  0.82765974051E+02  0.38306637808E+03  0.41138589264E+03  0.12509000000E+03 0.  0.
<mgrwt>
<rscale>  2 0.43379279E+03</rscale>
<asrwt>0</asrwt>
<pdfrwt beam="1">  1       21 0.12979208E+00 0.43379279E+03</pdfrwt>
<pdfrwt beam="2">  1       21 0.78386028E-02 0.43379279E+03</pdfrwt>
<totfact> 0.49418994E+04</totfact>
</mgrwt>
</event>
<event>
 7    0  0.4732500E-002  0.4574513E+03  0.7546771E-02  0.1025523E+00
         21   -1    0    0  502  501  0.00000000000E+00  0.00000000000E+00  0.73846949177E+03  0.73846949177E+03  0.00000000000E+00 0.  1.
         21   -1    0    0  501  502 -0.00000000000E+00 -0.00000000000E+00 -0.70843053236E+02  0.70843053236E+02  0.00000000000E+00 0.  1.
      99926    2    1    2    0    0  0.26645352591E-14  0.00000000000E+00  0.66762643854E+03  0.80931254501E+03  0.45745134613E+03 0.  0.
      99925    2    3    3    0    0 -0.17163398487E+01 -0.40865650273E+02  0.61015294846E+03  0.66570315341E+03  0.26306105897E+03 0.  0.
         25    1    4    4    0    0  0.34652341723E+02 -0.36325500997E+02  0.34015858501E+03  0.36589028118E+03  0.12509000000E+03 0.  0.
         25    1    4    4    0    0 -0.36368681571E+02 -0.45401492761E+01  0.26999436345E+03  0.29981287222E+03  0.12509000000E+03 0.  0.
         25    1    3    3    0    0  0.17163398487E+01  0.40865650273E+02  0.57473490074E+02  0.14360939160E+03  0.12509000000E+03 0.  0.
<mgrwt>
<rscale>  2 0.45745135E+03</rscale>
<asrwt>0</asrwt>
<pdfrwt beam="1">  1       21 0.10859845E+00 0.45745135E+03</pdfrwt>
<pdfrwt beam="2">  1       21 0.10418096E-01 0.45745135E+03</pdfrwt>
<totfact> 0.46418288E+04</totfact>
</mgrwt>
</event>
<event>
 7    0  0.4732500E-002  0.4599643E+03  0.7546771E-02  0.1024792E+00
         21   -1    0    0  502  501  0.00000000000E+00  0.00000000000E+00  0.39693494334E+03  0.39693494334E+03  0.00000000000E+00 0.  1.
         21   -1    0    0  501  502 -0.00000000000E+00 -0.00000000000E+00 -0.13325049892E+03  0.13325049892E+03  0.00000000000E+00 0.  1.
      99926    2    1    2    0    0  0.00000000000E+00  0.00000000000E+00  0.26368444442E+03  0.53018544226E+03  0.45996425618E+03 0.  0.
      99925    2    3    3    0    0 -0.42935107547E+02 -0.95960053265E+02  0.22484158316E+03  0.36223297502E+03  0.26383183165E+03 0.  0.
         25    1    4    4    0    0 -0.55337092566E+02 -0.41967803859E+02  0.84134882412E+02  0.16598095346E+03  0.12509000000E+03 0.  0.
         25    1    3    3    0    0  0.42935107547E+02  0.95960053265E+02  0.38842861257E+02  0.16795246724E+03  0.12509000000E+03 0.  0.
         25    1    4    4    0    0  0.12401985019E+02 -0.53992249407E+02  0.14070670075E+03  0.19625202156E+03  0.12509000000E+03 0.  0.
<mgrwt>
<rscale>  2 0.45996426E+03</rscale>
<asrwt>0</asrwt>
<pdfrwt beam="1">  1       21 0.58372786E-01 0.45996426E+03</pdfrwt>
<pdfrwt beam="2">  1       21 0.19595662E-01 0.45996426E+03</pdfrwt>
<totfact> 0.60767349E+04</totfact>
</mgrwt>
</event>
<event>
 7    0  0.4732500E-002  0.4562703E+03  0.7546771E-02  0.1025869E+00
         21   -1    0    0  502  501  0.00000000000E+00  0.00000000000E+00  0.27330830784E+03  0.27330830784E+03  0.00000000000E+00 0. -1.
         21   -1    0    0  501  502 -0.00000000000E+00 -0.00000000000E+00 -0.19042836289E+03  0.19042836289E+03  0.00000000000E+00 0. -1.
      99926    2    1    2    0    0  0.00000000000E+00 -0.35527136788E-14  0.82879944947E+02  0.46373667072E+03  0.45627033051E+03 0.  0.
      99925    2    3    3    0    0 -0.36562671744E+02  0.25769521413E+02  0.15909794640E+03  0.31057796531E+03  0.26295554527E+03 0.  0.
         25    1    3    3    0    0  0.36562671744E+02 -0.25769521413E+02 -0.76218001449E+02  0.15315870541E+03  0.12509000000E+03 0.  0.
         25    1    4    4    0    0 -0.36830376811E+02  0.22646744763E+02  0.41097005834E+02  0.13858507745E+03  0.12509000000E+03 0.  0.
         25    1    4    4    0    0  0.26770506719E+00  0.31227766496E+01  0.11800094056E+03  0.17199288786E+03  0.12509000000E+03 0.  0.
<mgrwt>
<rscale>  2 0.45627033E+03</rscale>
<asrwt>0</asrwt>
<pdfrwt beam="1">  1       21 0.40192398E-01 0.45627033E+03</pdfrwt>
<pdfrwt beam="2">  1       21 0.28004171E-01 0.45627033E+03</pdfrwt>
<totfact> 0.67222613E+04</totfact>
</mgrwt>
</event>
<event>
 7    0  0.4732500E-002  0.4542094E+03  0.7546771E-02  0.1026474E+00
         21   -1    0    0  502  501  0.00000000000E+00  0.00000000000E+00  0.39589354305E+03  0.39589354305E+03  0.00000000000E+00 0.  1.
         21   -1    0    0  501  502 -0.00000000000E+00 -0.00000000000E+00 -0.13027882702E+03  0.13027882702E+03  0.00000000000E+00 0.  1.
      99926    2    1    2    0    0  0.00000000000E+00 -0.66613381478E-15  0.26561471603E+03  0.52617237007E+03  0.45420940727E+03 0.  0.
      99925    2    3    3    0    0 -0.10328049009E+03  0.16806161416E+01  0.21863878741E+03  0.35728208002E+03  0.26301688395E+03 0.  0.
         25    1    3    3    0    0  0.10328049009E+03 -0.16806161416E+01  0.46975928627E+02  0.16889029005E+03  0.12509000000E+03 0.  0.
         25    1    4    4    0    0 -0.89383193226E+02  0.65255801834E+01  0.14471048471E+03  0.21123581825E+03  0.12509000000E+03 0.  0.
         25    1    4    4    0    0 -0.13897296865E+02 -0.48449640418E+01  0.73928302695E+02  0.14604626177E+03  0.12509000000E+03 0.  0.
<mgrwt>
<rscale>  2 0.45420941E+03</rscale>
<asrwt>0</asrwt>
<pdfrwt beam="1">  1       21 0.58219638E-01 0.45420941E+03</pdfrwt>
<pdfrwt beam="2">  1       21 0.19158651E-01 0.45420941E+03</pdfrwt>
<totfact> 0.63865688E+04</totfact>
</mgrwt>
</event>
<event>
 7    0  0.4732500E-002  0.4533228E+03  0.7546771E-02  0.1026736E+00
         21   -1    0    0  502  501  0.00000000000E+00  0.00000000000E+00  0.49987429937E+03  0.49987429937E+03  0.00000000000E+00 0.  1.
         21   -1    0    0  501  502 -0.00000000000E+00 -0.00000000000E+00 -0.10277663882E+03  0.10277663882E+03  0.00000000000E+00 0.  1.
      99926    2    1    2    0    0  0.00000000000E+00  0.00000000000E+00  0.39709766055E+03  0.60265093820E+03  0.45332284444E+03 0.  0.
      99925    2    3    3    0    0 -0.92958251550E+02 -0.29665804641E+02  0.32242755608E+03  0.42731004423E+03  0.26289360677E+03 0.  0.
         25    1    3    3    0    0  0.92958251550E+02  0.29665804641E+02  0.74670104466E+02  0.17534089397E+03  0.12509000000E+03 0.  0.
         25    1    4    4    0    0 -0.63846793851E+02 -0.34785215702E+02  0.21827780538E+03  0.26187617825E+03  0.12509000000E+03 0.  0.
         25    1    4    4    0    0 -0.29111457699E+02  0.51194110616E+01  0.10414975071E+03  0.16543386598E+03  0.12509000000E+03 0.  0.
<mgrwt>
<rscale>  2 0.45332284E+03</rscale>
<asrwt>0</asrwt>
<pdfrwt beam="1">  1       21 0.73510925E-01 0.45332284E+03</pdfrwt>
<pdfrwt beam="2">  1       21 0.15114212E-01 0.45332284E+03</pdfrwt>
<totfact> 0.59297213E+04</totfact>
</mgrwt>
</event>
<event>
 7    0  0.4732500E-002  0.4325236E+03  0.7546771E-02  0.1033066E+00
         21   -1    0    0  502  501  0.00000000000E+00  0.00000000000E+00  0.35150523601E+03  0.35150523601E+03  0.00000000000E+00 0.  1.
         21   -1    0    0  501  502 -0.00000000000E+00 -0.00000000000E+00 -0.13305397294E+03  0.13305397294E+03  0.00000000000E+00 0.  1.
      99926    2    1    2    0    0  0.00000000000E+00  0.00000000000E+00  0.21845126307E+03  0.48455920896E+03  0.43252360935E+03 0.  0.
      99925    2    3    3    0    0 -0.40449186973E+02  0.45998263861E+02  0.65577272780E+02  0.27775025844E+03  0.26285518894E+03 0.  0.
         25    1    4    4    0    0 -0.41909425300E+02  0.26474642464E+02 -0.12996341948E+01  0.13456040938E+03  0.12509000000E+03 0.  0.
         25    1    3    3    0    0  0.40449186973E+02 -0.45998263861E+02  0.15287399029E+03  0.20680895052E+03  0.12509000000E+03 0.  0.
         25    1    4    4    0    0  0.14602383271E+01  0.19523621397E+02  0.66876906975E+02  0.14318984906E+03  0.12509000000E+03 0.  0.
<mgrwt>
<rscale>  2 0.43252361E+03</rscale>
<asrwt>0</asrwt>
<pdfrwt beam="1">  1       21 0.51691946E-01 0.43252361E+03</pdfrwt>
<pdfrwt beam="2">  1       21 0.19566761E-01 0.43252361E+03</pdfrwt>
<totfact> 0.79662133E+04</totfact>
</mgrwt>
</event>
<event>
 7    0  0.4732500E-002  0.4550368E+03  0.7546771E-02  0.1026231E+00
         21   -1    0    0  502  501  0.00000000000E+00  0.00000000000E+00  0.74600765881E+03  0.74600765881E+03  0.00000000000E+00 0.  1.
         21   -1    0    0  501  502 -0.00000000000E+00 -0.00000000000E+00 -0.69388876255E+02  0.69388876255E+02  0.00000000000E+00 0.  1.
      99926    2    1    2    0    0  0.88817841970E-15  0.00000000000E+00  0.67661878256E+03  0.81539653507E+03  0.45503684740E+03 0.  0.
      99925    2    3    3    0    0 -0.48965588946E+01  0.10856643537E+03  0.37153543214E+03  0.46821645790E+03  0.26339595087E+03 0.  0.
         25    1    4    4    0    0  0.70762718765E+01  0.97551317355E+02  0.20598125895E+03  0.26008098793E+03  0.12509000000E+03 0.  0.
         25    1    4    4    0    0 -0.11972830771E+02  0.11015118020E+02  0.16555417318E+03  0.20813546997E+03  0.12509000000E+03 0.  0.
         25    1    3    3    0    0  0.48965588946E+01 -0.10856643537E+03  0.30508335042E+03  0.34718007717E+03  0.12509000000E+03 0.  0.
<mgrwt>
<rscale>  2 0.45503685E+03</rscale>
<asrwt>0</asrwt>
<pdfrwt beam="1">  1       21 0.10970700E+00 0.45503685E+03</pdfrwt>
<pdfrwt beam="2">  1       21 0.10204247E-01 0.45503685E+03</pdfrwt>
<totfact> 0.47015507E+04</totfact>
</mgrwt>
</event>
<event>
 7    0  0.4732500E-002  0.4576946E+03  0.7546771E-02  0.1025452E+00
         21   -1    0    0  502  501  0.00000000000E+00  0.00000000000E+00  0.18612451236E+03  0.18612451236E+03  0.00000000000E+00 0. -1.
         21   -1    0    0  501  502 -0.00000000000E+00 -0.00000000000E+00 -0.28137661791E+03  0.28137661791E+03  0.00000000000E+00 0. -1.
      99926    2    1    2    0    0  0.14210854715E-13  0.00000000000E+00 -0.95252105555E+02  0.46750113028E+03  0.45769459599E+03 0.  0.
      99925    2    3    3    0    0  0.10421905009E+03 -0.49111563498E+02 -0.71285378509E+02  0.29575868306E+03  0.26290309497E+03 0.  0.
         25    1    3    3    0    0 -0.10421905009E+03  0.49111563498E+02 -0.23966727046E+02  0.17174244722E+03  0.12509000000E+03 0.  0.
         25    1    4    4    0    0  0.85050193840E+02 -0.23678183796E+02 -0.11595928192E+02  0.15354532071E+03  0.12509000000E+03 0.  0.
         25    1    4    4    0    0  0.19168856247E+02 -0.25433379702E+02 -0.59689450317E+02  0.14221336235E+03  0.12509000000E+03 0.  0.
<mgrwt>
<rscale>  2 0.45769460E+03</rscale>
<asrwt>0</asrwt>
<pdfrwt beam="1">  1       21 0.27371252E-01 0.45769460E+03</pdfrwt>
<pdfrwt beam="2">  1       21 0.41378914E-01 0.45769460E+03</pdfrwt>
<totfact> 0.66195739E+04</totfact>
</mgrwt>
</event>
<event>
 6    0  0.4732500E-002  0.4542681E+03  0.7546771E-02  0.1026457E+00
         21   -1    0    0  502  501  0.00000000000E+00  0.00000000000E+00  0.33758036859E+03  0.33758036859E+03  0.00000000000E+00 0. -1.
         21   -1    0    0  501  502 -0.00000000000E+00 -0.00000000000E+00 -0.15282250309E+03  0.15282250309E+03  0.00000000000E+00 0. -1.
      99926    2    1    2    0    0  0.00000000000E+00 -0.35527136788E-14  0.18475786550E+03  0.49040287168E+03  0.45426810111E+03 0.  0.
         25    1    3    3    0    0 -0.92056166919E+02 -0.11354777026E+02  0.61836379341E+02  0.16755451274E+03  0.12509000000E+03 0.  0.
         25    1    3    3    0    0  0.10636794340E+03 -0.27610513043E+02  0.74881126649E+02  0.18256826406E+03  0.12509000000E+03 0.  0.
         25    1    3    3    0    0 -0.14311776484E+02  0.38965290068E+02  0.48040359509E+02  0.14028009487E+03  0.12509000000E+03 0.  0.
<mgrwt>
<rscale>  2 0.45426810E+03</rscale>
<asrwt>0</asrwt>
<pdfrwt beam="1">  1       21 0.49644172E-01 0.45426810E+03</pdfrwt>
<pdfrwt beam="2">  1       21 0.22473898E-01 0.45426810E+03</pdfrwt>
<totfact> 0.66334876E+04</totfact>
</mgrwt>
</event>
<event>
 7    0  0.4732500E-002  0.4532832E+03  0.7546771E-02  0.1026747E+00
         21   -1    0    0  502  501  0.00000000000E+00  0.00000000000E+00  0.43571048281E+03  0.43571048281E+03  0.00000000000E+00 0.  1.
         21   -1    0    0  501  502 -0.00000000000E+00 -0.00000000000E+00 -0.11789116768E+03  0.11789116768E+03  0.00000000000E+00 0.  1.
      99926    2    1    2    0    0  0.00000000000E+00 -0.17763568394E-14  0.31781931514E+03  0.55360165049E+03  0.45328321208E+03 0.  0.
      99925    2    3    3    0    0 -0.52421581925E+02 -0.98411598078E+01  0.80530294069E+02  0.28010858240E+03  0.26292740251E+03 0.  0.
         25    1    4    4    0    0 -0.42548127982E+02 -0.33508345606E+02  0.16632677074E+02  0.13732190818E+03  0.12509000000E+03 0.  0.
         25    1    3    3    0    0  0.52421581925E+02  0.98411598078E+01  0.23728902107E+03  0.27349306810E+03  0.12509000000E+03 0.  0.
         25    1    4    4    0    0 -0.98734539430E+01  0.23667185798E+02  0.63897616994E+02  0.14278667422E+03  0.12509000000E+03 0.  0.
<mgrwt>
<rscale>  2 0.45328321E+03</rscale>
<asrwt>0</asrwt>
<pdfrwt beam="1">  1       21 0.64075070E-01 0.45328321E+03</pdfrwt>
<pdfrwt beam="2">  1       21 0.17336937E-01 0.45328321E+03</pdfrwt>
<totfact> 0.62473322E+04</totfact>
</mgrwt>
</event>
<event>
 7    0  0.4732500E-002  0.4454069E+03  0.7546771E-02  0.1029101E+00
         21   -1    0    0  502  501  0.00000000000E+00  0.00000000000E+00  0.15750182278E+03  0.15750182278E+03  0.00000000000E+00 0. -1.
         21   -1    0    0  501  502 -0.00000000000E+00 -0.00000000000E+00 -0.31489681111E+03  0.31489681111E+03  0.00000000000E+00 0. -1.
      99926    2    1    2    0    0  0.14210854715E-13 -0.13322676296E-14 -0.15739498834E+03  0.47239863389E+03  0.44540687797E+03 0.  0.
      99925    2    3    3    0    0 -0.91721448244E+02  0.33032455331E+01 -0.48364536799E+02  0.28277035815E+03  0.26305172785E+03 0.  0.
         25    1    3    3    0    0  0.91721448244E+02 -0.33032455331E+01 -0.10903045154E+03  0.18962827574E+03  0.12509000000E+03 0.  0.
         25    1    4    4    0    0 -0.94084628689E+01 -0.89291922873E+01 -0.28768560442E+01  0.12579361689E+03  0.12509000000E+03 0.  0.
         25    1    4    4    0    0 -0.82312985375E+02  0.12232437820E+02 -0.45487680755E+02  0.15697674126E+03  0.12509000000E+03 0.  0.
<mgrwt>
<rscale>  2 0.44540688E+03</rscale>
<asrwt>0</asrwt>
<pdfrwt beam="1">  1       21 0.23162033E-01 0.44540688E+03</pdfrwt>
<pdfrwt beam="2">  1       21 0.46308354E-01 0.44540688E+03</pdfrwt>
<totfact> 0.72632312E+04</totfact>
</mgrwt>
</event>
<event>
 7    0  0.4732500E-002  0.4536458E+03  0.7546771E-02  0.1026640E+00
         21   -1    0    0  502  501  0.00000000000E+00  0.00000000000E+00  0.38647442536E+03  0.38647442536E+03  0.00000000000E+00 0. -1.
         21   -1    0    0  501  502 -0.00000000000E+00 -0.00000000000E+00 -0.13312299102E+03  0.13312299102E+03  0.00000000000E+00 0. -1.
      99926    2    1    2    0    0  0.71054273576E-14 -0.14210854715E-13  0.25335143435E+03  0.51959741638E+03  0.45364581539E+03 0.  0.
      99925    2    3    3    0    0  0.44240904675E+02 -0.80125675535E+02  0.23333007913E+03  0.36331003912E+03  0.26300927202E+03 0.  0.
         25    1    4    4    0    0 -0.67481202421E+01 -0.51239096136E+02  0.81258747769E+02  0.15786536760E+03  0.12509000000E+03 0.  0.
         25    1    4    4    0    0  0.50989024917E+02 -0.28886579399E+02  0.15207133136E+03  0.20544467151E+03  0.12509000000E+03 0.  0.
         25    1    3    3    0    0 -0.44240904675E+02  0.80125675535E+02  0.20021355218E+02  0.15628737726E+03  0.12509000000E+03 0.  0.
<mgrwt>
<rscale>  2 0.45364582E+03</rscale>
<asrwt>0</asrwt>
<pdfrwt beam="1">  1       21 0.56834474E-01 0.45364582E+03</pdfrwt>
<pdfrwt beam="2">  1       21 0.19576910E-01 0.45364582E+03</pdfrwt>
<totfact> 0.64606021E+04</totfact>
</mgrwt>
</event>
<event>
 7    0  0.4732500E-002  0.4548612E+03  0.7546771E-02  0.1026282E+00
         21   -1    0    0  502  501  0.00000000000E+00  0.00000000000E+00  0.56574224883E+03  0.56574224883E+03  0.00000000000E+00 0. -1.
         21   -1    0    0  501  502 -0.00000000000E+00 -0.00000000000E+00 -0.91428000249E+02  0.91428000249E+02  0.00000000000E+00 0. -1.
      99926    2    1    2    0    0  0.00000000000E+00  0.00000000000E+00  0.47431424858E+03  0.65717024908E+03  0.45486122045E+03 0.  0.
      99925    2    3    3    0    0 -0.10315635145E+03  0.44340753887E+02  0.27892612555E+03  0.39942742760E+03  0.26293564062E+03 0.  0.
         25    1    3    3    0    0  0.10315635145E+03 -0.44340753887E+02  0.19538812303E+03  0.25774282148E+03  0.12509000000E+03 0.  0.
         25    1    4    4    0    0 -0.10608196949E+02  0.20226339634E+02  0.10592740438E+03  0.16549852494E+03  0.12509000000E+03 0.  0.
         25    1    4    4    0    0 -0.92548154504E+02  0.24114414253E+02  0.17299872116E+03  0.23392890266E+03  0.12509000000E+03 0.  0.
<mgrwt>
<rscale>  2 0.45486122E+03</rscale>
<asrwt>0</asrwt>
<pdfrwt beam="1">  1       21 0.83197388E-01 0.45486122E+03</pdfrwt>
<pdfrwt beam="2">  1       21 0.13445294E-01 0.45486122E+03</pdfrwt>
<totfact> 0.55350743E+04</totfact>
</mgrwt>
</event>
<event>
 7    0  0.4732500E-002  0.4474108E+03  0.7546771E-02  0.1028497E+00
         21   -1    0    0  502  501  0.00000000000E+00  0.00000000000E+00  0.94798661050E+02  0.94798661050E+02  0.00000000000E+00 0.  1.
         21   -1    0    0  501  502 -0.00000000000E+00 -0.00000000000E+00 -0.52789898117E+03  0.52789898117E+03  0.00000000000E+00 0.  1.
      99926    2    1    2    0    0  0.14210854715E-13  0.00000000000E+00 -0.43310032012E+03  0.62269764222E+03  0.44741084736E+03 0.  0.
      99925    2    3    3    0    0 -0.99900801224E+02 -0.17612073415E+02 -0.23255572996E+03  0.36548956311E+03  0.26307812146E+03 0.  0.
         25    1    4    4    0    0 -0.13876272737E+02  0.13895801419E+02 -0.11275689900E+03  0.16955020087E+03  0.12509000000E+03 0.  0.
         25    1    4    4    0    0 -0.86024528486E+02 -0.31507874833E+02 -0.11979883096E+03  0.19593936224E+03  0.12509000000E+03 0.  0.
         25    1    3    3    0    0  0.99900801224E+02  0.17612073415E+02 -0.20054459016E+03  0.25720807911E+03  0.12509000000E+03 0.  0.
<mgrwt>
<rscale>  2 0.44741085E+03</rscale>
<asrwt>0</asrwt>
<pdfrwt beam="1">  1       21 0.13940980E-01 0.44741085E+03</pdfrwt>
<pdfrwt beam="2">  1       21 0.77632202E-01 0.44741085E+03</pdfrwt>
<totfact> 0.60868541E+04</totfact>
</mgrwt>
</event>
<event>
 7    0  0.4732500E-002  0.4573005E+03  0.7546771E-02  0.1025567E+00
         21   -1    0    0  502  501  0.00000000000E+00  0.00000000000E+00  0.52249392863E+03  0.52249392863E+03  0.00000000000E+00 0.  1.
         21   -1    0    0  501  502 -0.00000000000E+00 -0.00000000000E+00 -0.10006035515E+03  0.10006035515E+03  0.00000000000E+00 0.  1.
      99926    2    1    2    0    0  0.44408920985E-15 -0.14210854715E-13  0.42243357348E+03  0.62255428378E+03  0.45730046168E+03 0.  0.
      99925    2    3    3    0    0 -0.38288424215E+01  0.90807220906E+02  0.16935835669E+03  0.32598188983E+03  0.26328943791E+03 0.  0.
         25    1    4    4    0    0  0.28579717770E+02  0.34045304354E+02  0.11180145991E+03  0.17355966569E+03  0.12509000000E+03 0.  0.
         25    1    3    3    0    0  0.38288424215E+01 -0.90807220906E+02  0.25307521679E+03  0.29657239395E+03  0.12509000000E+03 0.  0.
         25    1    4    4    0    0 -0.32408560192E+02  0.56761916552E+02  0.57556896775E+02  0.15242222414E+03  0.12509000000E+03 0.  0.
<mgrwt>
<rscale>  2 0.45730046E+03</rscale>
<asrwt>0</asrwt>
<pdfrwt beam="1">  1       21 0.76837341E-01 0.45730046E+03</pdfrwt>
<pdfrwt beam="2">  1       21 0.14714758E-01 0.45730046E+03</pdfrwt>
<totfact> 0.56281717E+04</totfact>
</mgrwt>
</event>
<event>
 7    0  0.4732500E-002  0.4540820E+03  0.7546771E-02  0.1026512E+00
         21   -1    0    0  502  501  0.00000000000E+00  0.00000000000E+00  0.33638489786E+02  0.33638489786E+02  0.00000000000E+00 0.  1.
         21   -1    0    0  501  502 -0.00000000000E+00 -0.00000000000E+00 -0.15323997107E+04  0.15323997107E+04  0.00000000000E+00 0.  1.
      99926    2    1    2    0    0  0.00000000000E+00 -0.71054273576E-14 -0.14987612209E+04  0.15660382005E+04  0.45408198386E+03 0.  0.
      99925    2    3    3    0    0 -0.76787599548E+02  0.61633225008E+02 -0.75746133691E+03  0.80783768875E+03  0.26298111070E+03 0.  0.
         25    1    4    4    0    0 -0.54095963342E+02  0.29149307870E+01 -0.44545751037E+03  0.46584844286E+03  0.12509000000E+03 0.  0.
         25    1    4    4    0    0 -0.22691636206E+02  0.58718294221E+02 -0.31200382654E+03  0.34198924589E+03  0.12509000000E+03 0.  0.
         25    1    3    3    0    0  0.76787599548E+02 -0.61633225008E+02 -0.74129988403E+03  0.75820051175E+03  0.12509000000E+03 0.  0.
<mgrwt>
<rscale>  2 0.45408198E+03</rscale>
<asrwt>0</asrwt>
<pdfrwt beam="1">  1       21 0.49468376E-02 0.45408198E+03</pdfrwt>
<pdfrwt beam="2">  1       21 0.22535286E+00 0.45408198E+03</pdfrwt>
<totfact> 0.22365103E+04</totfact>
</mgrwt>
</event>
<event>
 7    0  0.4732500E-002  0.4539720E+03  0.7546771E-02  0.1026544E+00
         21   -1    0    0  502  501  0.00000000000E+00  0.00000000000E+00  0.83169540054E+02  0.83169540054E+02  0.00000000000E+00 0. -1.
         21   -1    0    0  501  502 -0.00000000000E+00 -0.00000000000E+00 -0.61948921844E+03  0.61948921844E+03  0.00000000000E+00 0. -1.
      99926    2    1    2    0    0  0.00000000000E+00  0.00000000000E+00 -0.53631967839E+03  0.70265875850E+03  0.45397195229E+03 0.  0.
      99925    2    3    3    0    0  0.87131086545E+02  0.67068334370E+02 -0.30331574926E+03  0.41625288075E+03  0.26301336329E+03 0.  0.
         25    1    3    3    0    0 -0.87131086545E+02 -0.67068334370E+02 -0.23300392913E+03  0.28640587775E+03  0.12509000000E+03 0.  0.
         25    1    4    4    0    0  0.45909139924E+01  0.34694769550E+02 -0.11565650997E+03  0.17392164881E+03  0.12509000000E+03 0.  0.
         25    1    4    4    0    0  0.82540172553E+02  0.32373564820E+02 -0.18765923929E+03  0.24233123194E+03  0.12509000000E+03 0.  0.
<mgrwt>
<rscale>  2 0.45397195E+03</rscale>
<asrwt>0</asrwt>
<pdfrwt beam="1">  1       21 0.12230815E-01 0.45397195E+03</pdfrwt>
<pdfrwt beam="2">  1       21 0.91101354E-01 0.45397195E+03</pdfrwt>
<totfact> 0.53187818E+04</totfact>
</mgrwt>
</event>
<event>
 7    0  0.4732500E-002  0.4448421E+03  0.7546771E-02  0.1029271E+00
         21   -1    0    0  502  501  0.00000000000E+00  0.00000000000E+00  0.62926439448E+02  0.62926439448E+02  0.00000000000E+00 0.  1.
         21   -1    0    0  501  502 -0.00000000000E+00 -0.00000000000E+00 -0.78617374493E+03  0.78617374493E+03  0.00000000000E+00 0.  1.
      99926    2    1    2    0    0  0.00000000000E+00  0.00000000000E+00 -0.72324730549E+03  0.84910018438E+03  0.44484205986E+03 0.  0.
      99925    2    3    3    0    0 -0.28118700867E+02  0.93231380200E+02 -0.39390164006E+03  0.48358845129E+03  0.26309035822E+03 0.  0.
         25    1    3    3    0    0  0.28118700867E+02 -0.93231380200E+02 -0.32934566543E+03  0.36551173309E+03  0.12509000000E+03 0.  0.
         25    1    4    4    0    0 -0.70619374072E+01  0.41012560159E+01 -0.18386071741E+03  0.22252856619E+03  0.12509000000E+03 0.  0.
         25    1    4    4    0    0 -0.21056763460E+02  0.89130124184E+02 -0.21004092265E+03  0.26105988510E+03  0.12509000000E+03 0.  0.
<mgrwt>
<rscale>  2 0.44484206E+03</rscale>
<asrwt>0</asrwt>
<pdfrwt beam="1">  1       21 0.92538889E-02 0.44484206E+03</pdfrwt>
<pdfrwt beam="2">  1       21 0.11561378E+00 0.44484206E+03</pdfrwt>
<totfact> 0.49291544E+04</totfact>
</mgrwt>
</event>
<event>
 7    0  0.4732500E-002  0.4555635E+03  0.7546771E-02  0.1026076E+00
         21   -1    0    0  502  501  0.00000000000E+00  0.00000000000E+00  0.83237834559E+02  0.83237834559E+02  0.00000000000E+00 0. -1.
         21   -1    0    0  501  502 -0.00000000000E+00 -0.00000000000E+00 -0.62332871686E+03  0.62332871686E+03  0.00000000000E+00 0. -1.
      99926    2    1    2    0    0 -0.71054273576E-14 -0.27755575616E-15 -0.54009088230E+03  0.70656655142E+03  0.45556353063E+03 0.  0.
      99925    2    3    3    0    0  0.39848566552E+02 -0.46998662763E+00 -0.50482764787E+03  0.57062857679E+03  0.26301689956E+03 0.  0.
         25    1    4    4    0    0  0.23149912782E+02  0.38066256370E+02 -0.22525494893E+03  0.26148089501E+03  0.12509000000E+03 0.  0.
         25    1    3    3    0    0 -0.39848566552E+02  0.46998662763E+00 -0.35263234437E+02  0.13593797463E+03  0.12509000000E+03 0.  0.
         25    1    4    4    0    0  0.16698653770E+02 -0.38536242998E+02 -0.27957269894E+03  0.30914768178E+03  0.12509000000E+03 0.  0.
<mgrwt>
<rscale>  2 0.45556353E+03</rscale>
<asrwt>0</asrwt>
<pdfrwt beam="1">  1       21 0.12240858E-01 0.45556353E+03</pdfrwt>
<pdfrwt beam="2">  1       21 0.91665990E-01 0.45556353E+03</pdfrwt>
<totfact> 0.52315528E+04</totfact>
</mgrwt>
</event>
<event>
 7    0  0.4732500E-002  0.4582179E+03  0.7546771E-02  0.1025299E+00
         21   -1    0    0  502  501  0.00000000000E+00  0.00000000000E+00  0.56774852517E+03  0.56774852517E+03  0.00000000000E+00 0. -1.
         21   -1    0    0  501  502 -0.00000000000E+00 -0.00000000000E+00 -0.92454502399E+02  0.92454502399E+02  0.00000000000E+00 0. -1.
      99926    2    1    2    0    0  0.00000000000E+00  0.00000000000E+00  0.47529402277E+03  0.66020302757E+03  0.45821788434E+03 0.  0.
      99925    2    3    3    0    0 -0.95429640026E+02 -0.66983388027E+02  0.30014854300E+03  0.41542345805E+03  0.26247649642E+03 0.  0.
         25    1    4    4    0    0 -0.17311634557E+02 -0.29224660132E+02  0.17826184339E+03  0.22040545901E+03  0.12509000000E+03 0.  0.
         25    1    4    4    0    0 -0.78118005470E+02 -0.37758727895E+02  0.12188669960E+03  0.19501799904E+03  0.12509000000E+03 0.  0.
         25    1    3    3    0    0  0.95429640026E+02  0.66983388027E+02  0.17514547978E+03  0.24477956952E+03  0.12509000000E+03 0.  0.
<mgrwt>
<rscale>  2 0.45821788E+03</rscale>
<asrwt>0</asrwt>
<pdfrwt beam="1">  1       21 0.83492429E-01 0.45821788E+03</pdfrwt>
<pdfrwt beam="2">  1       21 0.13596251E-01 0.45821788E+03</pdfrwt>
<totfact> 0.53740333E+04</totfact>
</mgrwt>
</event>
<event>
 7    0  0.4732500E-002  0.4756302E+03  0.7546771E-02  0.1020343E+00
         21   -1    0    0  502  501  0.00000000000E+00  0.00000000000E+00  0.71993765822E+03  0.71993765822E+03  0.00000000000E+00 0. -1.
         21   -1    0    0  501  502 -0.00000000000E+00 -0.00000000000E+00 -0.78556833253E+02  0.78556833253E+02  0.00000000000E+00 0. -1.
      99926    2    1    2    0    0  0.00000000000E+00  0.00000000000E+00  0.64138082497E+03  0.79849449147E+03  0.47563020329E+03 0.  0.
      99925    2    3    3    0    0 -0.51717627217E+02  0.15802481113E+02  0.59813239851E+03  0.65551768963E+03  0.26271018994E+03 0.  0.
         25    1    4    4    0    0 -0.27755237794E+02 -0.19967988275E+01  0.20376481907E+03  0.24071134169E+03  0.12509000000E+03 0.  0.
         25    1    4    4    0    0 -0.23962389423E+02  0.17799279941E+02  0.39436757944E+03  0.41480634794E+03  0.12509000000E+03 0.  0.
         25    1    3    3    0    0  0.51717627217E+02 -0.15802481113E+02  0.43248426457E+02  0.14297680184E+03  0.12509000000E+03 0.  0.
<mgrwt>
<rscale>  2 0.47563020E+03</rscale>
<asrwt>0</asrwt>
<pdfrwt beam="1">  1       21 0.10587318E+00 0.47563020E+03</pdfrwt>
<pdfrwt beam="2">  1       21 0.11552476E-01 0.47563020E+03</pdfrwt>
<totfact> 0.40817106E+04</totfact>
</mgrwt>
</event>
<event>
 7    0  0.4732500E-002  0.4587600E+03  0.7546771E-02  0.1025141E+00
         21   -1    0    0  502  501  0.00000000000E+00  0.00000000000E+00  0.92101849260E+02  0.92101849260E+02  0.00000000000E+00 0.  1.
         21   -1    0    0  501  502 -0.00000000000E+00 -0.00000000000E+00 -0.57127170215E+03  0.57127170215E+03  0.00000000000E+00 0.  1.
      99926    2    1    2    0    0  0.00000000000E+00  0.00000000000E+00 -0.47916985289E+03  0.66337355141E+03  0.45875998168E+03 0.  0.
      99925    2    3    3    0    0  0.69481849664E+02 -0.44475973602E+02 -0.41973862399E+03  0.50217361739E+03  0.26304370335E+03 0.  0.
         25    1    3    3    0    0 -0.69481849664E+02  0.44475973602E+02 -0.59431228901E+02  0.16119993402E+03  0.12509000000E+03 0.  0.
         25    1    4    4    0    0 -0.35226238034E+01 -0.30218421331E+02 -0.22242186134E+03  0.25699135076E+03  0.12509000000E+03 0.  0.
         25    1    4    4    0    0  0.73004473468E+02 -0.14257552271E+02 -0.19731676266E+03  0.24518226663E+03  0.12509000000E+03 0.  0.
<mgrwt>
<rscale>  2 0.45875998E+03</rscale>
<asrwt>0</asrwt>
<pdfrwt beam="1">  1       21 0.13544389E-01 0.45875998E+03</pdfrwt>
<pdfrwt beam="2">  1       21 0.84010546E-01 0.45875998E+03</pdfrwt>
<totfact> 0.53337762E+04</totfact>
</mgrwt>
</event>
<event>
 7    0  0.4732500E-002  0.4552113E+03  0.7546771E-02  0.1026179E+00
         21   -1    0    0  502  501  0.00000000000E+00  0.00000000000E+00  0.24123381563E+03  0.24123381563E+03  0.00000000000E+00 0. -1.
         21   -1    0    0  501  502 -0.00000000000E+00 -0.00000000000E+00 -0.21474739685E+03  0.21474739685E+03  0.00000000000E+00 0. -1.
      99926    2    1    2    0    0  0.00000000000E+00 -0.14210854715E-13  0.26486418789E+02  0.45598121248E+03  0.45521130890E+03 0.  0.
      99925    2    3    3    0    0  0.59943470679E+02  0.71941002263E+02 -0.47353801113E+02  0.28315582760E+03  0.26299451086E+03 0.  0.
         25    1    4    4    0    0  0.64869942337E+02  0.60412955347E+02 -0.30428894223E+02  0.15630502326E+03  0.12509000000E+03 0.  0.
         25    1    4    4    0    0 -0.49264716584E+01  0.11528046916E+02 -0.16924906890E+02  0.12685080434E+03  0.12509000000E+03 0.  0.
         25    1    3    3    0    0 -0.59943470679E+02 -0.71941002263E+02  0.73840219902E+02  0.17282538488E+03  0.12509000000E+03 0.  0.
<mgrwt>
<rscale>  2 0.45521131E+03</rscale>
<asrwt>0</asrwt>
<pdfrwt beam="1">  1       21 0.35475561E-01 0.45521131E+03</pdfrwt>
<pdfrwt beam="2">  1       21 0.31580500E-01 0.45521131E+03</pdfrwt>
<totfact> 0.68358677E+04</totfact>
</mgrwt>
</event>
<event>
 7    0  0.4732500E-002  0.4547668E+03  0.7546771E-02  0.1026310E+00
         21   -1    0    0  502  501  0.00000000000E+00  0.00000000000E+00  0.80587801594E+02  0.80587801594E+02  0.00000000000E+00 0.  1.
         21   -1    0    0  501  502 -0.00000000000E+00 -0.00000000000E+00 -0.64157622709E+03  0.64157622709E+03  0.00000000000E+00 0.  1.
      99926    2    1    2    0    0  0.00000000000E+00  0.35527136788E-14 -0.56098842550E+03  0.72216402869E+03  0.45476683123E+03 0.  0.
      99925    2    3    3    0    0 -0.88600048489E+02  0.31968444610E+02 -0.45204159122E+03  0.53140535695E+03  0.26301730582E+03 0.  0.
         25    1    4    4    0    0 -0.64521872628E+02  0.38076027489E+02 -0.18568848263E+03  0.23609442306E+03  0.12509000000E+03 0.  0.
         25    1    4    4    0    0 -0.24078175861E+02 -0.61075828793E+01 -0.26635310859E+03  0.29531093389E+03  0.12509000000E+03 0.  0.
         25    1    3    3    0    0  0.88600048489E+02 -0.31968444610E+02 -0.10894683428E+03  0.19075867173E+03  0.12509000000E+03 0.  0.
<mgrwt>
<rscale>  2 0.45476683E+03</rscale>
<asrwt>0</asrwt>
<pdfrwt beam="1">  1       21 0.11851147E-01 0.45476683E+03</pdfrwt>
<pdfrwt beam="2">  1       21 0.94349447E-01 0.45476683E+03</pdfrwt>
<totfact> 0.51811053E+04</totfact>
</mgrwt>
</event>
<event>
 7    0  0.4732500E-002  0.4596293E+03  0.7546771E-02  0.1024889E+00
         21   -1    0    0  502  501  0.00000000000E+00  0.00000000000E+00  0.88927154281E+03  0.88927154281E+03  0.00000000000E+00 0.  1.
         21   -1    0    0  501  502 -0.00000000000E+00 -0.00000000000E+00 -0.59391065038E+02  0.59391065038E+02  0.00000000000E+00 0.  1.
      99926    2    1    2    0    0  0.00000000000E+00  0.14210854715E-13  0.82988047777E+03  0.94866260785E+03  0.45962934648E+03 0.  0.
      99925    2    3    3    0    0 -0.50712858093E+02 -0.64272215577E+02  0.69393362381E+03  0.74659388966E+03  0.26297499908E+03 0.  0.
         25    1    4    4    0    0 -0.36671190459E+02 -0.72604825449E+02  0.38395177388E+03  0.41192561179E+03  0.12509000000E+03 0.  0.
         25    1    3    3    0    0  0.50712858093E+02  0.64272215577E+02  0.13594685396E+03  0.20206871820E+03  0.12509000000E+03 0.  0.
         25    1    4    4    0    0 -0.14041667634E+02  0.83326098716E+01  0.30998184994E+03  0.33466827786E+03  0.12509000000E+03 0.  0.
<mgrwt>
<rscale>  2 0.45962935E+03</rscale>
<asrwt>0</asrwt>
<pdfrwt beam="1">  1       21 0.13077522E+00 0.45962935E+03</pdfrwt>
<pdfrwt beam="2">  1       21 0.87339807E-02 0.45962935E+03</pdfrwt>
<totfact> 0.39736855E+04</totfact>
</mgrwt>
</event>
<event>
 7    0  0.4732500E-002  0.4598544E+03  0.7546771E-02  0.1024823E+00
         21   -1    0    0  502  501  0.00000000000E+00  0.00000000000E+00  0.37038514020E+03  0.37038514020E+03  0.00000000000E+00 0.  1.
         21   -1    0    0  501  502 -0.00000000000E+00 -0.00000000000E+00 -0.14273391734E+03  0.14273391734E+03  0.00000000000E+00 0.  1.
      99926    2    1    2    0    0  0.00000000000E+00  0.71054273576E-14  0.22765122286E+03  0.51311905753E+03  0.45985442037E+03 0.  0.
      99925    2    3    3    0    0 -0.84251960817E+01 -0.56773226207E+02  0.25725678351E+03  0.37234199810E+03  0.26298921602E+03 0.  0.
         25    1    3    3    0    0  0.84251960817E+01  0.56773226207E+02 -0.29605560646E+02  0.14077705944E+03  0.12509000000E+03 0.  0.
         25    1    4    4    0    0  0.38998949102E+01 -0.68781505954E+02  0.13133618378E+03  0.19401754048E+03  0.12509000000E+03 0.  0.
         25    1    4    4    0    0 -0.12325090992E+02  0.12008279748E+02  0.12592059973E+03  0.17832445762E+03  0.12509000000E+03 0.  0.
<mgrwt>
<rscale>  2 0.45985442E+03</rscale>
<asrwt>0</asrwt>
<pdfrwt beam="1">  1       21 0.54468403E-01 0.45985442E+03</pdfrwt>
<pdfrwt beam="2">  1       21 0.20990282E-01 0.45985442E+03</pdfrwt>
<totfact> 0.61937680E+04</totfact>
</mgrwt>
</event>
<event>
 7    0  0.4732500E-002  0.4527097E+03  0.7546771E-02  0.1026917E+00
         21   -1    0    0  502  501  0.00000000000E+00  0.00000000000E+00  0.76377594461E+03  0.76377594461E+03  0.00000000000E+00 0. -1.
         21   -1    0    0  501  502 -0.00000000000E+00 -0.00000000000E+00 -0.67083171519E+02  0.67083171519E+02  0.00000000000E+00 0. -1.
      99926    2    1    2    0    0 -0.17763568394E-14  0.71054273576E-14  0.69669277309E+03  0.83085911613E+03  0.45270967604E+03 0.  0.
      99925    2    3    3    0    0  0.11661613138E+02  0.39975053378E+02  0.62825956787E+03  0.68231750650E+03  0.26289369895E+03 0.  0.
         25    1    4    4    0    0  0.97940390366E+01  0.44719182015E+02  0.40511755239E+03  0.42645453192E+03  0.12509000000E+03 0.  0.
         25    1    4    4    0    0  0.18675741018E+01 -0.47441286372E+01  0.22314201548E+03  0.25586297459E+03  0.12509000000E+03 0.  0.
         25    1    3    3    0    0 -0.11661613138E+02 -0.39975053378E+02  0.68433205220E+02  0.14854160963E+03  0.12509000000E+03 0.  0.
<mgrwt>
<rscale>  2 0.45270968E+03</rscale>
<asrwt>0</asrwt>
<pdfrwt beam="1">  1       21 0.11231999E+00 0.45270968E+03</pdfrwt>
<pdfrwt beam="2">  1       21 0.98651727E-02 0.45270968E+03</pdfrwt>
<totfact> 0.47149713E+04</totfact>
</mgrwt>
</event>
<event>
 7    0  0.4732500E-002  0.4594247E+03  0.7546771E-02  0.1024948E+00
         21   -1    0    0  502  501  0.00000000000E+00  0.00000000000E+00  0.11064902498E+03  0.11064902498E+03  0.00000000000E+00 0.  1.
         21   -1    0    0  501  502 -0.00000000000E+00 -0.00000000000E+00 -0.47689318943E+03  0.47689318943E+03  0.00000000000E+00 0.  1.
      99926    2    1    2    0    0  0.00000000000E+00  0.00000000000E+00 -0.36624416445E+03  0.58754221441E+03  0.45942471170E+03 0.  0.
      99925    2    3    3    0    0  0.96333373682E+02  0.48010669055E+02 -0.28909483751E+03  0.40537561490E+03  0.26299889896E+03 0.  0.
         25    1    4    4    0    0  0.69667514859E+02  0.54129193734E+02 -0.12762514033E+03  0.19929680576E+03  0.12509000000E+03 0.  0.
         25    1    3    3    0    0 -0.96333373682E+02 -0.48010669055E+02 -0.77149326939E+02  0.18216659950E+03  0.12509000000E+03 0.  0.
         25    1    4    4    0    0  0.26665858822E+02 -0.61185246788E+01 -0.16146969719E+03  0.20607880915E+03  0.12509000000E+03 0.  0.
<mgrwt>
<rscale>  2 0.45942471E+03</rscale>
<asrwt>0</asrwt>
<pdfrwt beam="1">  1       21 0.16271916E-01 0.45942471E+03</pdfrwt>
<pdfrwt beam="2">  1       21 0.70131351E-01 0.45942471E+03</pdfrwt>
<totfact> 0.57417104E+04</totfact>
</mgrwt>
</event>
<event>
 7    0  0.4732500E-002  0.4478597E+03  0.7546771E-02  0.1028362E+00
         21   -1    0    0  502  501  0.00000000000E+00  0.00000000000E+00  0.47977854057E+02  0.47977854057E+02  0.00000000000E+00 0. -1.
         21   -1    0    0  501  502 -0.00000000000E+00 -0.00000000000E+00 -0.10451607771E+04  0.10451607771E+04  0.00000000000E+00 0. -1.
      99926    2    1    2    0    0  0.00000000000E+00  0.00000000000E+00 -0.99718292305E+03  0.10931386312E+04  0.44785967101E+03 0.  0.
      99925    2    3    3    0    0 -0.42870255296E+02 -0.35847334035E+02 -0.41061901855E+03  0.49078689645E+03  0.26294658999E+03 0.  0.
         25    1    4    4    0    0 -0.60945577335E+02 -0.21607806609E+02 -0.23476358120E+03  0.27375665811E+03  0.12509000000E+03 0.  0.
         25    1    4    4    0    0  0.18075322039E+02 -0.14239527426E+02 -0.17585543735E+03  0.21703023834E+03  0.12509000000E+03 0.  0.
         25    1    3    3    0    0  0.42870255296E+02  0.35847334035E+02 -0.58656390450E+03  0.60235173471E+03  0.12509000000E+03 0.  0.
<mgrwt>
<rscale>  2 0.44785967E+03</rscale>
<asrwt>0</asrwt>
<pdfrwt beam="1">  1       21 0.70555669E-02 0.44785967E+03</pdfrwt>
<pdfrwt beam="2">  1       21 0.15370011E+00 0.44785967E+03</pdfrwt>
<totfact> 0.37794998E+04</totfact>
</mgrwt>
</event>
<event>
 7    0  0.4732500E-002  0.4666501E+03  0.7546771E-02  0.1022870E+00
         21   -1    0    0  502  501  0.00000000000E+00  0.00000000000E+00  0.18394656081E+03  0.18394656081E+03  0.00000000000E+00 0.  1.
         21   -1    0    0  501  502 -0.00000000000E+00 -0.00000000000E+00 -0.29595866880E+03  0.29595866880E+03  0.00000000000E+00 0.  1.
      99926    2    1    2    0    0 -0.13322676296E-14  0.00000000000E+00 -0.11201210799E+03  0.47990522961E+03  0.46665010133E+03 0.  0.
      99925    2    3    3    0    0  0.29705816991E+01 -0.16022121813E+02 -0.19600220534E+03  0.32835531277E+03  0.26293499991E+03 0.  0.
         25    1    4    4    0    0 -0.24026173318E+02 -0.13782508619E+02 -0.59589560827E+02  0.14129981744E+03  0.12509000000E+03 0.  0.
         25    1    3    3    0    0 -0.29705816991E+01  0.16022121813E+02  0.83990097354E+02  0.15154991685E+03  0.12509000000E+03 0.  0.
         25    1    4    4    0    0  0.26996755017E+02 -0.22396131941E+01 -0.13641264452E+03  0.18705549533E+03  0.12509000000E+03 0.  0.
<mgrwt>
<rscale>  2 0.46665010E+03</rscale>
<asrwt>0</asrwt>
<pdfrwt beam="1">  1       21 0.27050965E-01 0.46665010E+03</pdfrwt>
<pdfrwt beam="2">  1       21 0.43523333E-01 0.46665010E+03</pdfrwt>
<totfact> 0.60881439E+04</totfact>
</mgrwt>
</event>
<event>
 7    0  0.4732500E-002  0.4552662E+03  0.7546771E-02  0.1026163E+00
         21   -1    0    0  502  501  0.00000000000E+00  0.00000000000E+00  0.11455811158E+03  0.11455811158E+03  0.00000000000E+00 0. -1.
         21   -1    0    0  501  502 -0.00000000000E+00 -0.00000000000E+00 -0.45231913501E+03  0.45231913501E+03  0.00000000000E+00 0. -1.
      99926    2    1    2    0    0  0.00000000000E+00  0.00000000000E+00 -0.33776102344E+03  0.56687724659E+03  0.45526618999E+03 0.  0.
      99925    2    3    3    0    0 -0.32311085300E+02 -0.87505439946E+02 -0.13230677360E+03  0.30888467862E+03  0.26306549392E+03 0.  0.
         25    1    4    4    0    0 -0.21615270755E+02 -0.66683237276E+02 -0.32186987162E+02  0.14696048553E+03  0.12509000000E+03 0.  0.
         25    1    3    3    0    0  0.32311085300E+02  0.87505439946E+02 -0.20545424983E+03  0.25799256797E+03  0.12509000000E+03 0.  0.
         25    1    4    4    0    0 -0.10695814545E+02 -0.20822202670E+02 -0.10011978644E+03  0.16192419310E+03  0.12509000000E+03 0.  0.
<mgrwt>
<rscale>  2 0.45526619E+03</rscale>
<asrwt>0</asrwt>
<pdfrwt beam="1">  1       21 0.16846781E-01 0.45526619E+03</pdfrwt>
<pdfrwt beam="2">  1       21 0.66517520E-01 0.45526619E+03</pdfrwt>
<totfact> 0.60637083E+04</totfact>
</mgrwt>
</event>
<event>
 7    0  0.4732500E-002  0.4563068E+03  0.7546771E-02  0.1025858E+00
         21   -1    0    0  502  501  0.00000000000E+00  0.00000000000E+00  0.21271734644E+03  0.21271734644E+03  0.00000000000E+00 0.  1.
         21   -1    0    0  501  502 -0.00000000000E+00 -0.00000000000E+00 -0.24470959064E+03  0.24470959064E+03  0.00000000000E+00 0.  1.
      99926    2    1    2    0    0  0.00000000000E+00  0.00000000000E+00 -0.31992244200E+02  0.45742693708E+03  0.45630680368E+03 0.  0.
      99925    2    3    3    0    0 -0.56266996259E+02 -0.95462348277E+02 -0.49055270559E+02  0.28944571856E+03  0.26285617668E+03 0.  0.
         25    1    4    4    0    0 -0.94785467811E+01 -0.21019870750E+02 -0.49651623515E+02  0.13654475322E+03  0.12509000000E+03 0.  0.
         25    1    3    3    0    0  0.56266996259E+02  0.95462348277E+02  0.17063026359E+02  0.16798121852E+03  0.12509000000E+03 0.  0.
         25    1    4    4    0    0 -0.46788449478E+02 -0.74442477528E+02  0.59635295616E+00  0.15290096534E+03  0.12509000000E+03 0.  0.
<mgrwt>
<rscale>  2 0.45630680E+03</rscale>
<asrwt>0</asrwt>
<pdfrwt beam="1">  1       21 0.31281963E-01 0.45630680E+03</pdfrwt>
<pdfrwt beam="2">  1       21 0.35986704E-01 0.45630680E+03</pdfrwt>
<totfact> 0.67660171E+04</totfact>
</mgrwt>
</event>
<event>
 7    0  0.4732500E-002  0.4026352E+03  0.7546771E-02  0.1042871E+00
         21   -1    0    0  502  501  0.00000000000E+00  0.00000000000E+00  0.47964716100E+03  0.47964716100E+03  0.00000000000E+00 0. -1.
         21   -1    0    0  501  502 -0.00000000000E+00 -0.00000000000E+00 -0.84497045219E+02  0.84497045219E+02  0.00000000000E+00 0. -1.
      99926    2    1    2    0    0 -0.17208456882E-14  0.00000000000E+00  0.39515011578E+03  0.56414420622E+03  0.40263515918E+03 0.  0.
      99925    2    3    3    0    0 -0.20001808328E+00  0.40127015706E+02  0.30536047917E+03  0.40502191256E+03  0.26303518780E+03 0.  0.
         25    1    4    4    0    0 -0.23481674841E+02  0.53078854999E+02  0.16775084560E+03  0.21715572339E+03  0.12509000000E+03 0.  0.
         25    1    3    3    0    0  0.20001808328E+00 -0.40127015706E+02  0.89789636610E+02  0.15912229366E+03  0.12509000000E+03 0.  0.
         25    1    4    4    0    0  0.23281656757E+02 -0.12951839293E+02  0.13760963357E+03  0.18786618917E+03  0.12509000000E+03 0.  0.
<mgrwt>
<rscale>  2 0.40263516E+03</rscale>
<asrwt>0</asrwt>
<pdfrwt beam="1">  1       21 0.70536346E-01 0.40263516E+03</pdfrwt>
<pdfrwt beam="2">  1       21 0.12426036E-01 0.40263516E+03</pdfrwt>
<totfact> 0.94351580E+04</totfact>
</mgrwt>
</event>
<event>
 7    0  0.4732500E-002  0.4512529E+03  0.7546771E-02  0.1027349E+00
         21   -1    0    0  502  501  0.00000000000E+00  0.00000000000E+00  0.69734094256E+03  0.69734094256E+03  0.00000000000E+00 0. -1.
         21   -1    0    0  501  502 -0.00000000000E+00 -0.00000000000E+00 -0.73002014961E+02  0.73002014961E+02  0.00000000000E+00 0. -1.
      99926    2    1    2    0    0  0.00000000000E+00  0.00000000000E+00  0.62433892760E+03  0.77034295752E+03  0.45125289549E+03 0.  0.
      99925    2    3    3    0    0  0.45665250608E+02 -0.83898421775E+02  0.48593397724E+03  0.56075360027E+03  0.26303708805E+03 0.  0.
         25    1    4    4    0    0  0.55874494421E+02 -0.39924888941E+02  0.29939426304E+03  0.33166306506E+03  0.12509000000E+03 0.  0.
         25    1    3    3    0    0 -0.45665250608E+02  0.83898421775E+02  0.13840495036E+03  0.20958935725E+03  0.12509000000E+03 0.  0.
         25    1    4    4    0    0 -0.10209243813E+02 -0.43973532834E+02  0.18653971421E+03  0.22909053522E+03  0.12509000000E+03 0.  0.
<mgrwt>
<rscale>  2 0.45125290E+03</rscale>
<asrwt>0</asrwt>
<pdfrwt beam="1">  1       21 0.10255013E+00 0.45125290E+03</pdfrwt>
<pdfrwt beam="2">  1       21 0.10735591E-01 0.45125290E+03</pdfrwt>
<totfact> 0.50707909E+04</totfact>
</mgrwt>
</event>
<event>
 7    0  0.4732500E-002  0.4407666E+03  0.7546771E-02  0.1030512E+00
         21   -1    0    0  502  501  0.00000000000E+00  0.00000000000E+00  0.15950032011E+03  0.15950032011E+03  0.00000000000E+00 0.  1.
         21   -1    0    0  501  502 -0.00000000000E+00 -0.00000000000E+00 -0.30450601977E+03  0.30450601977E+03  0.00000000000E+00 0.  1.
      99926    2    1    2    0    0  0.00000000000E+00  0.00000000000E+00 -0.14500569966E+03  0.46400633988E+03  0.44076663952E+03 0.  0.
      99925    2    3    3    0    0 -0.34530772310E+02  0.51467783301E+02 -0.17326556762E+03  0.32157237205E+03  0.26371675447E+03 0.  0.
         25    1    4    4    0    0 -0.38614770853E+02  0.42780118196E+01 -0.51674854961E+02  0.14080909292E+03  0.12509000000E+03 0.  0.
         25    1    3    3    0    0  0.34530772310E+02 -0.51467783301E+02  0.28259867963E+02  0.14243396783E+03  0.12509000000E+03 0.  0.
         25    1    4    4    0    0  0.40839985429E+01  0.47189771481E+02 -0.12159071266E+03  0.18076327913E+03  0.12509000000E+03 0.  0.
<mgrwt>
<rscale>  2 0.44076664E+03</rscale>
<asrwt>0</asrwt>
<pdfrwt beam="1">  1       21 0.23455930E-01 0.44076664E+03</pdfrwt>
<pdfrwt beam="2">  1       21 0.44780297E-01 0.44076664E+03</pdfrwt>
<totfact> 0.76124866E+04</totfact>
</mgrwt>
</event>
<event>
 7    0  0.4732500E-002  0.4286052E+03  0.7546771E-02  0.1034301E+00
         21   -1    0    0  502  501  0.00000000000E+00  0.00000000000E+00  0.22795122785E+03  0.22795122785E+03  0.00000000000E+00 0. -1.
         21   -1    0    0  501  502 -0.00000000000E+00 -0.00000000000E+00 -0.20147121686E+03  0.20147121686E+03  0.00000000000E+00 0. -1.
      99926    2    1    2    0    0  0.00000000000E+00  0.00000000000E+00  0.26480010990E+02  0.42942244471E+03  0.42860523216E+03 0.  0.
      99925    2    3    3    0    0  0.27812529658E+02  0.77954873236E+02 -0.71125046191E+01  0.27571342002E+03  0.26290074779E+03 0.  0.
         25    1    4    4    0    0  0.19380905585E+02 -0.31995677299E+00 -0.16287830515E+02  0.12762649959E+03  0.12509000000E+03 0.  0.
         25    1    3    3    0    0 -0.27812529658E+02 -0.77954873236E+02  0.33592515609E+02  0.15370902469E+03  0.12509000000E+03 0.  0.
         25    1    4    4    0    0  0.84316240735E+01  0.78274830009E+02  0.91753258964E+01  0.14808692043E+03  0.12509000000E+03 0.  0.
<mgrwt>
<rscale>  2 0.42860523E+03</rscale>
<asrwt>0</asrwt>
<pdfrwt beam="1">  1       21 0.33522239E-01 0.42860523E+03</pdfrwt>
<pdfrwt beam="2">  1       21 0.29628120E-01 0.42860523E+03</pdfrwt>
<totfact> 0.87484519E+04</totfact>
</mgrwt>
</event>
<event>
 7    0  0.4732500E-002  0.4354646E+03  0.7546771E-02  0.1032148E+00
         21   -1    0    0  502  501  0.00000000000E+00  0.00000000000E+00  0.37739862687E+03  0.37739862687E+03  0.00000000000E+00 0.  1.
         21   -1    0    0  501  502 -0.00000000000E+00 -0.00000000000E+00 -0.12561614900E+03  0.12561614900E+03  0.00000000000E+00 0.  1.
      99926    2    1    2    0    0  0.00000000000E+00  0.71054273576E-14  0.25178247787E+03  0.50301477586E+03  0.43546463528E+03 0.  0.
      99925    2    3    3    0    0  0.32193714136E+02 -0.47098237668E+02  0.75979917111E+02  0.27983608582E+03  0.26321209680E+03 0.  0.
         25    1    4    4    0    0  0.22488187998E+02 -0.37695844862E+02  0.78361330994E+02  0.15399578441E+03  0.12509000000E+03 0.  0.
         25    1    4    4    0    0  0.97055261372E+01 -0.94023928057E+01 -0.23814138836E+01  0.12584030141E+03  0.12509000000E+03 0.  0.
         25    1    3    3    0    0 -0.32193714136E+02  0.47098237668E+02  0.17580256076E+03  0.22317869005E+03  0.12509000000E+03 0.  0.
<mgrwt>
<rscale>  2 0.43546464E+03</rscale>
<asrwt>0</asrwt>
<pdfrwt beam="1">  1       21 0.55499798E-01 0.43546464E+03</pdfrwt>
<pdfrwt beam="2">  1       21 0.18472963E-01 0.43546464E+03</pdfrwt>
<totfact> 0.76203081E+04</totfact>
</mgrwt>
</event>
<event>
 7    0  0.4732500E-002  0.4552021E+03  0.7546771E-02  0.1026182E+00
         21   -1    0    0  502  501  0.00000000000E+00  0.00000000000E+00  0.27123629131E+03  0.27123629131E+03  0.00000000000E+00 0.  1.
         21   -1    0    0  501  502 -0.00000000000E+00 -0.00000000000E+00 -0.19098563498E+03  0.19098563498E+03  0.00000000000E+00 0.  1.
      99926    2    1    2    0    0  0.00000000000E+00  0.00000000000E+00  0.80250656335E+02  0.46222192629E+03  0.45520208842E+03 0.  0.
      99925    2    3    3    0    0 -0.86358898829E+02  0.54546164156E+02  0.10045013688E+03  0.29946852219E+03  0.26297912912E+03 0.  0.
         25    1    4    4    0    0 -0.40272110256E+02  0.71909998513E+01  0.86100811741E+02  0.15727177504E+03  0.12509000000E+03 0.  0.
         25    1    3    3    0    0  0.86358898829E+02 -0.54546164156E+02 -0.20199480540E+02  0.16275340410E+03  0.12509000000E+03 0.  0.
         25    1    4    4    0    0 -0.46086788573E+02  0.47355164305E+02  0.14349325134E+02  0.14219674715E+03  0.12509000000E+03 0.  0.
<mgrwt>
<rscale>  2 0.45520209E+03</rscale>
<asrwt>0</asrwt>
<pdfrwt beam="1">  1       21 0.39887690E-01 0.45520209E+03</pdfrwt>
<pdfrwt beam="2">  1       21 0.28086123E-01 0.45520209E+03</pdfrwt>
<totfact> 0.67907669E+04</totfact>
</mgrwt>
</event>
<event>
 7    0  0.4732500E-002  0.4491061E+03  0.7546771E-02  0.1027989E+00
         21   -1    0    0  502  501  0.00000000000E+00  0.00000000000E+00  0.23045101463E+03  0.23045101463E+03  0.00000000000E+00 0. -1.
         21   -1    0    0  501  502 -0.00000000000E+00 -0.00000000000E+00 -0.21880604267E+03  0.21880604267E+03  0.00000000000E+00 0. -1.
      99926    2    1    2    0    0  0.00000000000E+00 -0.71054273576E-14  0.11644971962E+02  0.44925705730E+03  0.44910611014E+03 0.  0.
      99925    2    3    3    0    0 -0.18714899886E+02  0.51167000194E+02  0.10010093607E+03  0.28665239847E+03  0.26302298523E+03 0.  0.
         25    1    4    4    0    0 -0.15944083646E+02  0.54316272620E+02  0.82708709623E+02  0.16028945699E+03  0.12509000000E+03 0.  0.
         25    1    3    3    0    0  0.18714899886E+02 -0.51167000194E+02 -0.88455964113E+02  0.16260465883E+03  0.12509000000E+03 0.  0.
         25    1    4    4    0    0 -0.27708162406E+01 -0.31492724267E+01  0.17392226452E+02  0.12636294148E+03  0.12509000000E+03 0.  0.
<mgrwt>
<rscale>  2 0.44910611E+03</rscale>
<asrwt>0</asrwt>
<pdfrwt beam="1">  1       21 0.33889855E-01 0.44910611E+03</pdfrwt>
<pdfrwt beam="2">  1       21 0.32177359E-01 0.44910611E+03</pdfrwt>
<totfact> 0.72309732E+04</totfact>
</mgrwt>
</event>
<event>
 7    0  0.4732500E-002  0.4630247E+03  0.7546771E-02  0.1023908E+00
         21   -1    0    0  502  501  0.00000000000E+00  0.00000000000E+00  0.84919114857E+02  0.84919114857E+02  0.00000000000E+00 0. -1.
         21   -1    0    0  501  502 -0.00000000000E+00 -0.00000000000E+00 -0.63116491499E+03  0.63116491499E+03  0.00000000000E+00 0. -1.
      99926    2    1    2    0    0  0.00000000000E+00  0.00000000000E+00 -0.54624580013E+03  0.71608402984E+03  0.46302469010E+03 0.  0.
      99925    2    3    3    0    0  0.14110031454E+02 -0.11368645414E+03 -0.28256281638E+03  0.40255583835E+03  0.26284169180E+03 0.  0.
         25    1    3    3    0    0 -0.14110031454E+02  0.11368645414E+03 -0.26368298375E+03  0.31352819149E+03  0.12509000000E+03 0.  0.
         25    1    4    4    0    0  0.31026653905E+02 -0.69602769761E+02 -0.10471955292E+03  0.18005802308E+03  0.12509000000E+03 0.  0.
         25    1    4    4    0    0 -0.16916622451E+02 -0.44083684377E+02 -0.17784326346E+03  0.22249781527E+03  0.12509000000E+03 0.  0.
<mgrwt>
<rscale>  2 0.46302469E+03</rscale>
<asrwt>0</asrwt>
<pdfrwt beam="1">  1       21 0.12488105E-01 0.46302469E+03</pdfrwt>
<pdfrwt beam="2">  1       21 0.92818372E-01 0.46302469E+03</pdfrwt>
<totfact> 0.48878981E+04</totfact>
</mgrwt>
</event>
<event>
 7    0  0.4732500E-002  0.4522206E+03  0.7546771E-02  0.1027062E+00
         21   -1    0    0  502  501  0.00000000000E+00  0.00000000000E+00  0.51266398067E+03  0.51266398067E+03  0.00000000000E+00 0. -1.
         21   -1    0    0  501  502 -0.00000000000E+00 -0.00000000000E+00 -0.99725878432E+02  0.99725878432E+02  0.00000000000E+00 0. -1.
      99926    2    1    2    0    0  0.00000000000E+00  0.00000000000E+00  0.41293810224E+03  0.61238985910E+03  0.45222059136E+03 0.  0.
      99925    2    3    3    0    0 -0.35469887827E+02 -0.86116647998E+02  0.34106907259E+03  0.44067248803E+03  0.26303980578E+03 0.  0.
         25    1    4    4    0    0 -0.31007807243E+02 -0.81690930781E+01  0.13035907520E+03  0.18349172945E+03  0.12509000000E+03 0.  0.
         25    1    3    3    0    0  0.35469887827E+02  0.86116647998E+02  0.71869029648E+02  0.17171737107E+03  0.12509000000E+03 0.  0.
         25    1    4    4    0    0 -0.44620805848E+01 -0.77947554920E+02  0.21070999740E+03  0.25718075858E+03  0.12509000000E+03 0.  0.
<mgrwt>
<rscale>  2 0.45222059E+03</rscale>
<asrwt>0</asrwt>
<pdfrwt beam="1">  1       21 0.75391761E-01 0.45222059E+03</pdfrwt>
<pdfrwt beam="2">  1       21 0.14665571E-01 0.45222059E+03</pdfrwt>
<totfact> 0.59211213E+04</totfact>
</mgrwt>
</event>
<event>
 7    0  0.4732500E-002  0.4576881E+03  0.7546771E-02  0.1025454E+00
         21   -1    0    0  502  501  0.00000000000E+00  0.00000000000E+00  0.47957493828E+03  0.47957493828E+03  0.00000000000E+00 0.  1.
         21   -1    0    0  501  502 -0.00000000000E+00 -0.00000000000E+00 -0.10920004844E+03  0.10920004844E+03  0.00000000000E+00 0.  1.
      99926    2    1    2    0    0 -0.71054273576E-14  0.00000000000E+00  0.37037488985E+03  0.58877498672E+03  0.45768813176E+03 0.  0.
      99925    2    3    3    0    0  0.61519183477E+02 -0.19565231395E+02  0.35595202467E+03  0.44727256499E+03  0.26302755618E+03 0.  0.
         25    1    4    4    0    0  0.65309266082E+02 -0.29881275536E+02  0.20954374155E+03  0.25439001275E+03  0.12509000000E+03 0.  0.
         25    1    3    3    0    0 -0.61519183477E+02  0.19565231395E+02  0.14422865178E+02  0.14150242173E+03  0.12509000000E+03 0.  0.
         25    1    4    4    0    0 -0.37900826042E+01  0.10316044142E+02  0.14640828312E+03  0.19288255224E+03  0.12509000000E+03 0.  0.
<mgrwt>
<rscale>  2 0.45768813E+03</rscale>
<asrwt>0</asrwt>
<pdfrwt beam="1">  1       21 0.70525726E-01 0.45768813E+03</pdfrwt>
<pdfrwt beam="2">  1       21 0.16058831E-01 0.45768813E+03</pdfrwt>
<totfact> 0.58129629E+04</totfact>
</mgrwt>
</event>
<event>
 7    0  0.4732500E-002  0.4483623E+03  0.7546771E-02  0.1028212E+00
         21   -1    0    0  502  501  0.00000000000E+00  0.00000000000E+00  0.90248415901E+02  0.90248415901E+02  0.00000000000E+00 0.  1.
         21   -1    0    0  501  502 -0.00000000000E+00 -0.00000000000E+00 -0.55687601133E+03  0.55687601133E+03  0.00000000000E+00 0.  1.
      99926    2    1    2    0    0  0.00000000000E+00 -0.17763568394E-14 -0.46662759543E+03  0.64712442723E+03  0.44836225477E+03 0.  0.
      99925    2    3    3    0    0  0.10248142003E+03  0.54828905697E+01 -0.25291944242E+03  0.37907371132E+03  0.26305157425E+03 0.  0.
         25    1    4    4    0    0  0.34487325294E+02  0.23143146531E+02 -0.79192623161E+02  0.15376592763E+03  0.12509000000E+03 0.  0.
         25    1    4    4    0    0  0.67994094733E+02 -0.17660255962E+02 -0.17372681926E+03  0.22530778369E+03  0.12509000000E+03 0.  0.
         25    1    3    3    0    0 -0.10248142003E+03 -0.54828905697E+01 -0.21370815301E+03  0.26805071591E+03  0.12509000000E+03 0.  0.
<mgrwt>
<rscale>  2 0.44836225E+03</rscale>
<asrwt>0</asrwt>
<pdfrwt beam="1">  1       21 0.13271826E-01 0.44836225E+03</pdfrwt>
<pdfrwt beam="2">  1       21 0.81893532E-01 0.44836225E+03</pdfrwt>
<totfact> 0.58891350E+04</totfact>
</mgrwt>
</event>
<event>
 7    0  0.4732500E-002  0.4577677E+03  0.7546771E-02  0.1025431E+00
         21   -1    0    0  502  501  0.00000000000E+00  0.00000000000E+00  0.25952278183E+03  0.25952278183E+03  0.00000000000E+00 0.  1.
         21   -1    0    0  501  502 -0.00000000000E+00 -0.00000000000E+00 -0.20186211021E+03  0.20186211021E+03  0.00000000000E+00 0.  1.
      99926    2    1    2    0    0  0.71054273576E-14  0.00000000000E+00  0.57660671624E+02  0.46138489204E+03  0.45776769824E+03 0.  0.
      99925    2    3    3    0    0  0.62231684944E+02  0.88848935032E+02  0.76956517548E+02  0.29469129997E+03  0.26297098854E+03 0.  0.
         25    1    4    4    0    0  0.14678398347E+02  0.61200522410E+02  0.73156326216E+02  0.15798833972E+03  0.12509000000E+03 0.  0.
         25    1    3    3    0    0 -0.62231684944E+02 -0.88848935032E+02 -0.19295845924E+02  0.16669359207E+03  0.12509000000E+03 0.  0.
         25    1    4    4    0    0  0.47553286597E+02  0.27648412623E+02  0.38001913322E+01  0.13670296025E+03  0.12509000000E+03 0.  0.
<mgrwt>
<rscale>  2 0.45776770E+03</rscale>
<asrwt>0</asrwt>
<pdfrwt beam="1">  1       21 0.38165115E-01 0.45776770E+03</pdfrwt>
<pdfrwt beam="2">  1       21 0.29685604E-01 0.45776770E+03</pdfrwt>
<totfact> 0.66597599E+04</totfact>
</mgrwt>
</event>
<event>
 7    0  0.4732500E-002  0.4552532E+03  0.7546771E-02  0.1026167E+00
         21   -1    0    0  502  501  0.00000000000E+00  0.00000000000E+00  0.13331761826E+03  0.13331761826E+03  0.00000000000E+00 0. -1.
         21   -1    0    0  501  502 -0.00000000000E+00 -0.00000000000E+00 -0.38864982424E+03  0.38864982424E+03  0.00000000000E+00 0. -1.
      99926    2    1    2    0    0  0.00000000000E+00  0.00000000000E+00 -0.25533220598E+03  0.52196744249E+03  0.45525319945E+03 0.  0.
      99925    2    3    3    0    0 -0.60487047717E+02  0.57260675787E+02 -0.72400646359E+02  0.28522088700E+03  0.26300500538E+03 0.  0.
         25    1    4    4    0    0  0.18396573979E+00  0.97015564442E+01 -0.10918429495E+02  0.12593996285E+03  0.12509000000E+03 0.  0.
         25    1    4    4    0    0 -0.60671013457E+02  0.47559119343E+02 -0.61482216864E+02  0.15928092415E+03  0.12509000000E+03 0.  0.
         25    1    3    3    0    0  0.60487047717E+02 -0.57260675787E+02 -0.18293155962E+03  0.23674655549E+03  0.12509000000E+03 0.  0.
<mgrwt>
<rscale>  2 0.45525320E+03</rscale>
<asrwt>0</asrwt>
<pdfrwt beam="1">  1       21 0.19605533E-01 0.45525320E+03</pdfrwt>
<pdfrwt beam="2">  1       21 0.57154385E-01 0.45525320E+03</pdfrwt>
<totfact> 0.63625499E+04</totfact>
</mgrwt>
</event>
<event>
 7    0  0.4732500E-002  0.4557672E+03  0.7546771E-02  0.1026016E+00
         21   -1    0    0  502  501  0.00000000000E+00  0.00000000000E+00  0.47097336830E+03  0.47097336830E+03  0.00000000000E+00 0. -1.
         21   -1    0    0  501  502 -0.00000000000E+00 -0.00000000000E+00 -0.11026301995E+03  0.11026301995E+03  0.00000000000E+00 0. -1.
      99926    2    1    2    0    0  0.00000000000E+00 -0.14210854715E-13  0.36071034835E+03  0.58123638825E+03  0.45576724719E+03 0.  0.
      99925    2    3    3    0    0  0.24457191365E+02 -0.10754115675E+03  0.26273072443E+03  0.38781775055E+03  0.26308158332E+03 0.  0.
         25    1    3    3    0    0 -0.24457191365E+02  0.10754115675E+03  0.97979623922E+02  0.19341863769E+03  0.12509000000E+03 0.  0.
         25    1    4    4    0    0 -0.99601848300E+01 -0.87594968763E+02  0.12545979769E+03  0.19788823303E+03  0.12509000000E+03 0.  0.
         25    1    4    4    0    0  0.34417376195E+02 -0.19946187983E+02  0.13727092674E+03  0.18992951752E+03  0.12509000000E+03 0.  0.
<mgrwt>
<rscale>  2 0.45576725E+03</rscale>
<asrwt>0</asrwt>
<pdfrwt beam="1">  1       21 0.69260789E-01 0.45576725E+03</pdfrwt>
<pdfrwt beam="2">  1       21 0.16215150E-01 0.45576725E+03</pdfrwt>
<totfact> 0.59486705E+04</totfact>
</mgrwt>
</event>
<event>
 7    0  0.4732500E-002  0.4531978E+03  0.7546771E-02  0.1026773E+00
         21   -1    0    0  502  501  0.00000000000E+00  0.00000000000E+00  0.19504154059E+04  0.19504154059E+04  0.00000000000E+00 0. -1.
         21   -1    0    0  501  502 -0.00000000000E+00 -0.00000000000E+00 -0.26326220340E+02  0.26326220340E+02  0.00000000000E+00 0. -1.
      99926    2    1    2    0    0  0.71054273576E-14  0.00000000000E+00  0.19240891856E+04  0.19767416263E+04  0.45319781876E+03 0.  0.
      99925    2    3    3    0    0 -0.54641237336E+02 -0.88737843704E+02  0.13840708470E+04  0.14127138044E+04  0.26315036372E+03 0.  0.
         25    1    3    3    0    0  0.54641237336E+02  0.88737843704E+02  0.54001833864E+03  0.56402782191E+03  0.12509000000E+03 0.  0.
         25    1    4    4    0    0 -0.10972167711E+02 -0.38088942146E+02  0.85266627878E+03  0.86270414804E+03  0.12509000000E+03 0.  0.
         25    1    4    4    0    0 -0.43669069625E+02 -0.50648901557E+02  0.53140456818E+03  0.55000965632E+03  0.12509000000E+03 0.  0.
<mgrwt>
<rscale>  2 0.45319782E+03</rscale>
<asrwt>0</asrwt>
<pdfrwt beam="1">  1       21 0.28682570E+00 0.45319782E+03</pdfrwt>
<pdfrwt beam="2">  1       21 0.38715043E-02 0.45319782E+03</pdfrwt>
<totfact> 0.14292152E+04</totfact>
</mgrwt>
</event>
<event>
 7    0  0.4732500E-002  0.4542763E+03  0.7546771E-02  0.1026454E+00
         21   -1    0    0  502  501  0.00000000000E+00  0.00000000000E+00  0.31665106149E+03  0.31665106149E+03  0.00000000000E+00 0.  1.
         21   -1    0    0  501  502 -0.00000000000E+00 -0.00000000000E+00 -0.16292932458E+03  0.16292932458E+03  0.00000000000E+00 0.  1.
      99926    2    1    2    0    0  0.00000000000E+00  0.00000000000E+00  0.15372173691E+03  0.47958038607E+03  0.45427631933E+03 0.  0.
      99925    2    3    3    0    0 -0.13141739903E+02 -0.86204277417E+02  0.17186360850E+03  0.32602089149E+03  0.26296128800E+03 0.  0.
         25    1    3    3    0    0  0.13141739903E+02  0.86204277417E+02 -0.18141871588E+02  0.15355949459E+03  0.12509000000E+03 0.  0.
         25    1    4    4    0    0  0.21384674849E+02 -0.71792135846E+02  0.79310825429E+02  0.16597930660E+03  0.12509000000E+03 0.  0.
         25    1    4    4    0    0 -0.34526414751E+02 -0.14412141571E+02  0.92552783073E+02  0.16004158489E+03  0.12509000000E+03 0.  0.
<mgrwt>
<rscale>  2 0.45427632E+03</rscale>
<asrwt>0</asrwt>
<pdfrwt beam="1">  1       21 0.46566333E-01 0.45427632E+03</pdfrwt>
<pdfrwt beam="2">  1       21 0.23960195E-01 0.45427632E+03</pdfrwt>
<totfact> 0.67115349E+04</totfact>
</mgrwt>
</event>
<event>
 7    0  0.4732500E-002  0.4448588E+03  0.7546771E-02  0.1029266E+00
         21   -1    0    0  502  501  0.00000000000E+00  0.00000000000E+00  0.65987372940E+02  0.65987372940E+02  0.00000000000E+00 0.  1.
         21   -1    0    0  501  502 -0.00000000000E+00 -0.00000000000E+00 -0.74976206892E+03  0.74976206892E+03  0.00000000000E+00 0.  1.
      99926    2    1    2    0    0  0.00000000000E+00  0.00000000000E+00 -0.68377469598E+03  0.81574944186E+03  0.44485876077E+03 0.  0.
      99925    2    3    3    0    0 -0.51741333606E+02 -0.48146880007E+02 -0.57288609233E+03  0.63425817987E+03  0.26284915122E+03 0.  0.
         25    1    3    3    0    0  0.51741333606E+02  0.48146880007E+02 -0.11088860366E+03  0.18149126199E+03  0.12509000000E+03 0.  0.
         25    1    4    4    0    0 -0.19605318350E+02 -0.55246704805E+02 -0.35415038285E+03  0.38014019608E+03  0.12509000000E+03 0.  0.
         25    1    4    4    0    0 -0.32136015257E+02  0.70998247986E+01 -0.21873570947E+03  0.25411798379E+03  0.12509000000E+03 0.  0.
<mgrwt>
<rscale>  2 0.44485876E+03</rscale>
<asrwt>0</asrwt>
<pdfrwt beam="1">  1       21 0.97040251E-02 0.44485876E+03</pdfrwt>
<pdfrwt beam="2">  1       21 0.11025913E+00 0.44485876E+03</pdfrwt>
<totfact> 0.50947319E+04</totfact>
</mgrwt>
</event>
<event>
 7    0  0.4732500E-002  0.4633105E+03  0.7546771E-02  0.1023825E+00
         21   -1    0    0  502  501  0.00000000000E+00  0.00000000000E+00  0.45249245133E+02  0.45249245133E+02  0.00000000000E+00 0.  1.
         21   -1    0    0  501  502 -0.00000000000E+00 -0.00000000000E+00 -0.11859677131E+04  0.11859677131E+04  0.00000000000E+00 0.  1.
      99926    2    1    2    0    0  0.00000000000E+00 -0.88817841970E-15 -0.11407184680E+04  0.12312169583E+04  0.46331045217E+03 0.  0.
      99925    2    3    3    0    0 -0.15359081632E+02  0.65817922929E+01 -0.39472295240E+03  0.47462192869E+03  0.26302194712E+03 0.  0.
         25    1    4    4    0    0 -0.22354845967E+02  0.10267545984E+02 -0.26591508101E+03  0.29489574437E+03  0.12509000000E+03 0.  0.
         25    1    3    3    0    0  0.15359081632E+02 -0.65817922929E+01 -0.74599551562E+03  0.75659502959E+03  0.12509000000E+03 0.  0.
         25    1    4    4    0    0  0.69957643352E+01 -0.36857536914E+01 -0.12880787138E+03  0.17972618432E+03  0.12509000000E+03 0.  0.
<mgrwt>
<rscale>  2 0.46331045E+03</rscale>
<asrwt>0</asrwt>
<pdfrwt beam="1">  1       21 0.66543010E-02 0.46331045E+03</pdfrwt>
<pdfrwt beam="2">  1       21 0.17440701E+00 0.46331045E+03</pdfrwt>
<totfact> 0.29241225E+04</totfact>
</mgrwt>
</event>
<event>
 7    0  0.4732500E-002  0.4501335E+03  0.7546771E-02  0.1027682E+00
         21   -1    0    0  502  501  0.00000000000E+00  0.00000000000E+00  0.30798820935E+03  0.30798820935E+03  0.00000000000E+00 0. -1.
         21   -1    0    0  501  502 -0.00000000000E+00 -0.00000000000E+00 -0.16447072800E+03  0.16447072800E+03  0.00000000000E+00 0. -1.
      99926    2    1    2    0    0 -0.35527136788E-14  0.00000000000E+00  0.14351748136E+03  0.47245893735E+03  0.45013351356E+03 0.  0.
      99925    2    3    3    0    0 -0.10066505975E+02  0.55966332118E+02  0.18773466614E+03  0.32811132773E+03  0.26301934081E+03 0.  0.
         25    1    4    4    0    0  0.29826116421E+02  0.19702449384E+02  0.11529528867E+03  0.17383410316E+03  0.12509000000E+03 0.  0.
         25    1    4    4    0    0 -0.39892622396E+02  0.36263882733E+02  0.72439377464E+02  0.15427722457E+03  0.12509000000E+03 0.  0.
         25    1    3    3    0    0  0.10066505975E+02 -0.55966332118E+02 -0.44217184783E+02  0.14434760962E+03  0.12509000000E+03 0.  0.
<mgrwt>
<rscale>  2 0.45013351E+03</rscale>
<asrwt>0</asrwt>
<pdfrwt beam="1">  1       21 0.45292384E-01 0.45013351E+03</pdfrwt>
<pdfrwt beam="2">  1       21 0.24186872E-01 0.45013351E+03</pdfrwt>
<totfact> 0.69914618E+04</totfact>
</mgrwt>
</event>
<event>
 7    0  0.4732500E-002  0.4452400E+03  0.7546771E-02  0.1029151E+00
         21   -1    0    0  502  501  0.00000000000E+00  0.00000000000E+00  0.45809143429E+03  0.45809143429E+03  0.00000000000E+00 0.  1.
         21   -1    0    0  501  502 -0.00000000000E+00 -0.00000000000E+00 -0.10818729940E+03  0.10818729940E+03  0.00000000000E+00 0.  1.
      99926    2    1    2    0    0  0.00000000000E+00  0.00000000000E+00  0.34990413489E+03  0.56627873369E+03  0.44524004831E+03 0.  0.
      99925    2    3    3    0    0  0.74446191856E+02 -0.33362258334E+02  0.14088667763E+03  0.30939144070E+03  0.26309453031E+03 0.  0.
         25    1    4    4    0    0  0.71314469040E+02 -0.25995864843E+02  0.10122636789E+03  0.17792083672E+03  0.12509000000E+03 0.  0.
         25    1    4    4    0    0  0.31317228159E+01 -0.73663934912E+01  0.39660309732E+02  0.13147060397E+03  0.12509000000E+03 0.  0.
         25    1    3    3    0    0 -0.74446191856E+02  0.33362258334E+02  0.20901745726E+03  0.25688729300E+03  0.12509000000E+03 0.  0.
<mgrwt>
<rscale>  2 0.44524005E+03</rscale>
<asrwt>0</asrwt>
<pdfrwt beam="1">  1       21 0.67366387E-01 0.44524005E+03</pdfrwt>
<pdfrwt beam="2">  1       21 0.15909897E-01 0.44524005E+03</pdfrwt>
<totfact> 0.65731996E+04</totfact>
</mgrwt>
</event>
<event>
 7    0  0.4732500E-002  0.4234336E+03  0.7546771E-02  0.1035955E+00
         21   -1    0    0  502  501  0.00000000000E+00  0.00000000000E+00  0.71823965729E+03  0.71823965729E+03  0.00000000000E+00 0. -1.
         21   -1    0    0  501  502 -0.00000000000E+00 -0.00000000000E+00 -0.62408148824E+02  0.62408148824E+02  0.00000000000E+00 0. -1.
      99926    2    1    2    0    0 -0.31086244690E-14  0.00000000000E+00  0.65583150846E+03  0.78064780611E+03  0.42343361899E+03 0.  0.
      99925    2    3    3    0    0 -0.39862691750E+01  0.86804788710E+01  0.27926778502E+03  0.38373599353E+03  0.26300489715E+03 0.  0.
         25    1    3    3    0    0  0.39862691750E+01 -0.86804788710E+01  0.37656372344E+03  0.39691181258E+03  0.12509000000E+03 0.  0.
         25    1    4    4    0    0 -0.35898965236E+02 -0.93082946829E+01  0.11404956737E+03  0.17329221556E+03  0.12509000000E+03 0.  0.
         25    1    4    4    0    0  0.31912696061E+02  0.17988773554E+02  0.16521821765E+03  0.21044377797E+03  0.12509000000E+03 0.  0.
<mgrwt>
<rscale>  2 0.42343362E+03</rscale>
<asrwt>0</asrwt>
<pdfrwt beam="1">  1       21 0.10562347E+00 0.42343362E+03</pdfrwt>
<pdfrwt beam="2">  1       21 0.91776693E-02 0.42343362E+03</pdfrwt>
<totfact> 0.62915339E+04</totfact>
</mgrwt>
</event>
<event>
 7    0  0.4732500E-002  0.4568072E+03  0.7546771E-02  0.1025711E+00
         21   -1    0    0  502  501  0.00000000000E+00  0.00000000000E+00  0.16570165853E+03  0.16570165853E+03  0.00000000000E+00 0.  1.
         21   -1    0    0  501  502 -0.00000000000E+00 -0.00000000000E+00 -0.31483207544E+03  0.31483207544E+03  0.00000000000E+00 0.  1.
      99926    2    1    2    0    0  0.00000000000E+00  0.00000000000E+00 -0.14913041691E+03  0.48053373397E+03  0.45680716745E+03 0.  0.
      99925    2    3    3    0    0 -0.71313532298E+02 -0.77016089821E+02 -0.14272260015E+03  0.31711505022E+03  0.26301162808E+03 0.  0.
         25    1    4    4    0    0 -0.46283543230E+02  0.13286772964E+01 -0.71276840018E+02  0.15123434722E+03  0.12509000000E+03 0.  0.
         25    1    4    4    0    0 -0.25029989067E+02 -0.78344767117E+02 -0.71445760131E+02  0.16588070300E+03  0.12509000000E+03 0.  0.
         25    1    3    3    0    0  0.71313532298E+02  0.77016089821E+02 -0.64078167594E+01  0.16341868374E+03  0.12509000000E+03 0.  0.
<mgrwt>
<rscale>  2 0.45680717E+03</rscale>
<asrwt>0</asrwt>
<pdfrwt beam="1">  1       21 0.24367891E-01 0.45680717E+03</pdfrwt>
<pdfrwt beam="2">  1       21 0.46298834E-01 0.45680717E+03</pdfrwt>
<totfact> 0.65713596E+04</totfact>
</mgrwt>
</event>
<event>
 7    0  0.4732500E-002  0.4524719E+03  0.7546771E-02  0.1026987E+00
         21   -1    0    0  502  501  0.00000000000E+00  0.00000000000E+00  0.12663723951E+04  0.12663723951E+04  0.00000000000E+00 0. -1.
         21   -1    0    0  501  502 -0.00000000000E+00 -0.00000000000E+00 -0.40416792714E+02  0.40416792714E+02  0.00000000000E+00 0. -1.
      99926    2    1    2    0    0  0.00000000000E+00 -0.14210854715E-13  0.12259556024E+04  0.13067891878E+04  0.45247192440E+03 0.  0.
      99925    2    3    3    0    0  0.59385983554E+02  0.84312004276E+02  0.65714116184E+03  0.71532271794E+03  0.26309100158E+03 0.  0.
         25    1    3    3    0    0 -0.59385983554E+02 -0.84312004276E+02  0.56881444058E+03  0.59146646990E+03  0.12509000000E+03 0.  0.
         25    1    4    4    0    0  0.25160808064E+02  0.22483968279E+02  0.40382644132E+03  0.42410128260E+03  0.12509000000E+03 0.  0.
         25    1    4    4    0    0  0.34225175491E+02  0.61828035997E+02  0.25331472052E+03  0.29122143534E+03  0.12509000000E+03 0.  0.
<mgrwt>
<rscale>  2 0.45247192E+03</rscale>
<asrwt>0</asrwt>
<pdfrwt beam="1">  1       21 0.18623121E+00 0.45247192E+03</pdfrwt>
<pdfrwt beam="2">  1       21 0.59436468E-02 0.45247192E+03</pdfrwt>
<totfact> 0.29493750E+04</totfact>
</mgrwt>
</event>
<event>
 6    0  0.4732500E-002  0.4514034E+03  0.7546771E-02  0.1027304E+00
         21   -1    0    0  502  501  0.00000000000E+00  0.00000000000E+00  0.10418539136E+04  0.10418539136E+04  0.00000000000E+00 0.  1.
         21   -1    0    0  501  502 -0.00000000000E+00 -0.00000000000E+00 -0.48894813308E+02  0.48894813308E+02  0.00000000000E+00 0.  1.
      99926    2    1    2    0    0  0.00000000000E+00  0.00000000000E+00  0.99295910029E+03  0.10907487269E+04  0.45140337881E+03 0.  0.
         25    1    3    3    0    0  0.22091917840E+01 -0.41661963859E+02  0.47707915058E+03  0.49496729566E+03  0.12509000000E+03 0.  0.
         25    1    3    3    0    0  0.46499524463E+02 -0.41012959327E+02  0.26364590441E+03  0.29833025261E+03  0.12509000000E+03 0.  0.
         25    1    3    3    0    0 -0.48708716247E+02  0.82674923185E+02  0.25223404530E+03  0.29745117863E+03  0.12509000000E+03 0.  0.
<mgrwt>
<rscale>  2 0.45140338E+03</rscale>
<asrwt>0</asrwt>
<pdfrwt beam="1">  1       21 0.15321380E+00 0.45140338E+03</pdfrwt>
<pdfrwt beam="2">  1       21 0.71904144E-02 0.45140338E+03</pdfrwt>
<totfact> 0.36839626E+04</totfact>
</mgrwt>
</event>
<event>
 7    0  0.4732500E-002  0.4638326E+03  0.7546771E-02  0.1023676E+00
         21   -1    0    0  502  501  0.00000000000E+00  0.00000000000E+00  0.80645199264E+02  0.80645199264E+02  0.00000000000E+00 0. -1.
         21   -1    0    0  501  502 -0.00000000000E+00 -0.00000000000E+00 -0.66693570161E+03  0.66693570161E+03  0.00000000000E+00 0. -1.
      99926    2    1    2    0    0  0.26645352591E-14  0.00000000000E+00 -0.58629050234E+03  0.74758090087E+03  0.46383256700E+03 0.  0.
      99925    2    3    3    0    0 -0.43779052960E+01  0.11784734414E+03 -0.31081263871E+03  0.42286144653E+03  0.26134296241E+03 0.  0.
         25    1    4    4    0    0  0.17326285892E+02  0.28740225575E+02 -0.16705302542E+03  0.21137744003E+03  0.12509000000E+03 0.  0.
         25    1    3    3    0    0  0.43779052960E+01 -0.11784734414E+03 -0.27547786363E+03  0.32471945434E+03  0.12509000000E+03 0.  0.
         25    1    4    4    0    0 -0.21704191188E+02  0.89107118568E+02 -0.14375961329E+03  0.21148400650E+03  0.12509000000E+03 0.  0.
<mgrwt>
<rscale>  2 0.46383257E+03</rscale>
<asrwt>0</asrwt>
<pdfrwt beam="1">  1       21 0.11859588E-01 0.46383257E+03</pdfrwt>
<pdfrwt beam="2">  1       21 0.98078783E-01 0.46383257E+03</pdfrwt>
<totfact> 0.47042592E+04</totfact>
</mgrwt>
</event>
<event>
 7    0  0.4732500E-002  0.4490005E+03  0.7546771E-02  0.1028021E+00
         21   -1    0    0  502  501  0.00000000000E+00  0.00000000000E+00  0.66466452141E+03  0.66466452141E+03  0.00000000000E+00 0.  1.
         21   -1    0    0  501  502 -0.00000000000E+00 -0.00000000000E+00 -0.75828284141E+02  0.75828284141E+02  0.00000000000E+00 0.  1.
      99926    2    1    2    0    0  0.00000000000E+00  0.00000000000E+00  0.58883623727E+03  0.74049280555E+03  0.44900053536E+03 0.  0.
      99925    2    3    3    0    0 -0.57102966460E+02  0.26156342331E+02  0.22893256209E+03  0.35432824668E+03  0.26304654604E+03 0.  0.
         25    1    4    4    0    0 -0.38117624476E+02  0.25158256908E+02  0.67731209170E+02  0.14940186070E+03  0.12509000000E+03 0.  0.
         25    1    4    4    0    0 -0.18985341984E+02  0.99808542311E+00  0.16120135292E+03  0.20492638597E+03  0.12509000000E+03 0.  0.
         25    1    3    3    0    0  0.57102966460E+02 -0.26156342331E+02  0.35990367518E+03  0.38616455887E+03  0.12509000000E+03 0.  0.
<mgrwt>
<rscale>  2 0.44900054E+03</rscale>
<asrwt>0</asrwt>
<pdfrwt beam="1">  1       21 0.97744780E-01 0.44900054E+03</pdfrwt>
<pdfrwt beam="2">  1       21 0.11151219E-01 0.44900054E+03</pdfrwt>
<totfact> 0.53225222E+04</totfact>
</mgrwt>
</event>
<event>
 7    0  0.4732500E-002  0.4571088E+03  0.7546771E-02  0.1025623E+00
         21   -1    0    0  502  501  0.00000000000E+00  0.00000000000E+00  0.36652233267E+03  0.36652233267E+03  0.00000000000E+00 0. -1.
         21   -1    0    0  501  502 -0.00000000000E+00 -0.00000000000E+00 -0.14252092821E+03  0.14252092821E+03  0.00000000000E+00 0. -1.
      99926    2    1    2    0    0 -0.71054273576E-14  0.00000000000E+00  0.22400140446E+03  0.50904326088E+03  0.45710875320E+03 0.  0.
      99925    2    3    3    0    0 -0.35986592615E+02  0.22819862551E+02  0.25974721799E+03  0.37214529794E+03  0.26307361052E+03 0.  0.
         25    1    3    3    0    0  0.35986592615E+02 -0.22819862551E+02 -0.35745813521E+02  0.13689796295E+03  0.12509000000E+03 0.  0.
         25    1    4    4    0    0 -0.22038460453E+02  0.13639819309E+02  0.18703227805E+03  0.22649573847E+03  0.12509000000E+03 0.  0.
         25    1    4    4    0    0 -0.13948132163E+02  0.91800432415E+01  0.72714939934E+02  0.14564955947E+03  0.12509000000E+03 0.  0.
<mgrwt>
<rscale>  2 0.45710875E+03</rscale>
<asrwt>0</asrwt>
<pdfrwt beam="1">  1       21 0.53900343E-01 0.45710875E+03</pdfrwt>
<pdfrwt beam="2">  1       21 0.20958960E-01 0.45710875E+03</pdfrwt>
<totfact> 0.63569283E+04</totfact>
</mgrwt>
</event>
<event>
 7    0  0.4732500E-002  0.4651207E+03  0.7546771E-02  0.1023306E+00
         21   -1    0    0  502  501  0.00000000000E+00  0.00000000000E+00  0.11246422750E+03  0.11246422750E+03  0.00000000000E+00 0.  1.
         21   -1    0    0  501  502 -0.00000000000E+00 -0.00000000000E+00 -0.48090245079E+03  0.48090245079E+03  0.00000000000E+00 0.  1.
      99926    2    1    2    0    0  0.00000000000E+00  0.00000000000E+00 -0.36843822329E+03  0.59336667828E+03  0.46512072682E+03 0.  0.
      99925    2    3    3    0    0  0.44405118441E+02 -0.59541200989E+02 -0.35394087201E+03  0.44716595854E+03  0.26299483728E+03 0.  0.
         25    1    4    4    0    0  0.26252153623E-01 -0.63819128694E+02 -0.17742250459E+03  0.22627225882E+03  0.12509000000E+03 0.  0.
         25    1    3    3    0    0 -0.44405118441E+02  0.59541200989E+02 -0.14497351274E+02  0.14620071974E+03  0.12509000000E+03 0.  0.
         25    1    4    4    0    0  0.44378866288E+02  0.42779277049E+01 -0.17651836742E+03  0.22089369972E+03  0.12509000000E+03 0.  0.
<mgrwt>
<rscale>  2 0.46512073E+03</rscale>
<asrwt>0</asrwt>
<pdfrwt beam="1">  1       21 0.16538857E-01 0.46512073E+03</pdfrwt>
<pdfrwt beam="2">  1       21 0.70720949E-01 0.46512073E+03</pdfrwt>
<totfact> 0.54589296E+04</totfact>
</mgrwt>
</event>
<event>
 7    0  0.4732500E-002  0.4684794E+03  0.7546771E-02  0.1022350E+00
         21   -1    0    0  502  501  0.00000000000E+00  0.00000000000E+00  0.13095654324E+04  0.13095654324E+04  0.00000000000E+00 0. -1.
         21   -1    0    0  501  502 -0.00000000000E+00 -0.00000000000E+00 -0.41898049246E+02  0.41898049246E+02  0.00000000000E+00 0. -1.
      99926    2    1    2    0    0 -0.35527136788E-14  0.00000000000E+00  0.12676673832E+04  0.13514634817E+04  0.46847939968E+03 0.  0.
      99925    2    3    3    0    0 -0.19025672448E+02 -0.74194279004E+02  0.10748544331E+04  0.11092010019E+04  0.26296015518E+03 0.  0.
         25    1    4    4    0    0  0.17224867009E+02 -0.25975275865E+02  0.40201886543E+03  0.42218252837E+03  0.12509000000E+03 0.  0.
         25    1    3    3    0    0  0.19025672448E+02  0.74194279004E+02  0.19281295015E+03  0.24226247975E+03  0.12509000000E+03 0.  0.
         25    1    4    4    0    0 -0.36250539457E+02 -0.48219003139E+02  0.67283556762E+03  0.68701847357E+03  0.12509000000E+03 0.  0.
<mgrwt>
<rscale>  2 0.46847940E+03</rscale>
<asrwt>0</asrwt>
<pdfrwt beam="1">  1       21 0.19258313E+00 0.46847940E+03</pdfrwt>
<pdfrwt beam="2">  1       21 0.61614787E-02 0.46847940E+03</pdfrwt>
<totfact> 0.24937425E+04</totfact>
</mgrwt>
</event>
<event>
 7    0  0.4732500E-002  0.4378411E+03  0.7546771E-02  0.1031411E+00
         21   -1    0    0  502  501  0.00000000000E+00  0.00000000000E+00  0.17101581630E+03  0.17101581630E+03  0.00000000000E+00 0. -1.
         21   -1    0    0  501  502 -0.00000000000E+00 -0.00000000000E+00 -0.28024428687E+03  0.28024428687E+03  0.00000000000E+00 0. -1.
      99926    2    1    2    0    0  0.35527136788E-14 -0.14210854715E-13 -0.10922847057E+03  0.45126010317E+03  0.43784109210E+03 0.  0.
      99925    2    3    3    0    0 -0.19213220767E+02  0.90550148690E+02 -0.96794663383E+02  0.29514929336E+03  0.26301220738E+03 0.  0.
         25    1    4    4    0    0 -0.47098784903E+02  0.40486789477E+02 -0.64412728237E+02  0.15379851534E+03  0.12509000000E+03 0.  0.
         25    1    4    4    0    0  0.27885564136E+02  0.50063359213E+02 -0.32381935146E+02  0.14135077802E+03  0.12509000000E+03 0.  0.
         25    1    3    3    0    0  0.19213220767E+02 -0.90550148690E+02 -0.12433807182E+02  0.15611080981E+03  0.12509000000E+03 0.  0.
<mgrwt>
<rscale>  2 0.43784109E+03</rscale>
<asrwt>0</asrwt>
<pdfrwt beam="1">  1       21 0.25149385E-01 0.43784109E+03</pdfrwt>
<pdfrwt beam="2">  1       21 0.41212395E-01 0.43784109E+03</pdfrwt>
<totfact> 0.79082970E+04</totfact>
</mgrwt>
</event>
<event>
 7    0  0.4732500E-002  0.4662108E+03  0.7546771E-02  0.1022995E+00
         21   -1    0    0  502  501  0.00000000000E+00  0.00000000000E+00  0.26665630300E+03  0.26665630300E+03  0.00000000000E+00 0. -1.
         21   -1    0    0  501  502 -0.00000000000E+00 -0.00000000000E+00 -0.20377593842E+03  0.20377593842E+03  0.00000000000E+00 0. -1.
      99926    2    1    2    0    0 -0.14210854715E-13  0.00000000000E+00  0.62880364583E+02  0.47043224142E+03  0.46621084663E+03 0.  0.
      99925    2    3    3    0    0  0.69733406620E+02 -0.82962462476E+02  0.98592325714E+02  0.30111487537E+03  0.26306691791E+03 0.  0.
         25    1    4    4    0    0  0.55555816490E+02 -0.24379672146E+02  0.81653126016E+02  0.16123138109E+03  0.12509000000E+03 0.  0.
         25    1    4    4    0    0  0.14177590131E+02 -0.58582790331E+02  0.16939199698E+02  0.13988349428E+03  0.12509000000E+03 0.  0.
         25    1    3    3    0    0 -0.69733406620E+02  0.82962462476E+02 -0.35711961131E+02  0.16931736605E+03  0.12509000000E+03 0.  0.
<mgrwt>
<rscale>  2 0.46621085E+03</rscale>
<asrwt>0</asrwt>
<pdfrwt beam="1">  1       21 0.39214162E-01 0.46621085E+03</pdfrwt>
<pdfrwt beam="2">  1       21 0.29967050E-01 0.46621085E+03</pdfrwt>
<totfact> 0.61721359E+04</totfact>
</mgrwt>
</event>
<event>
 6    0  0.4732500E-002  0.4606174E+03  0.7546771E-02  0.1024602E+00
         21   -1    0    0  502  501  0.00000000000E+00  0.00000000000E+00  0.66421565748E+02  0.66421565748E+02  0.00000000000E+00 0. -1.
         21   -1    0    0  501  502 -0.00000000000E+00 -0.00000000000E+00 -0.79856750267E+03  0.79856750267E+03  0.00000000000E+00 0. -1.
      99926    2    1    2    0    0  0.00000000000E+00  0.00000000000E+00 -0.73214593693E+03  0.86498906842E+03  0.46061742860E+03 0.  0.
         25    1    3    3    0    0 -0.30275336829E+02  0.63041009735E+02 -0.17298706154E+03  0.22463925857E+03  0.12509000000E+03 0.  0.
         25    1    3    3    0    0  0.52849153317E+02 -0.65967513349E+02 -0.44342103697E+03  0.46841698298E+03  0.12509000000E+03 0.  0.
         25    1    3    3    0    0 -0.22573816488E+02  0.29265036138E+01 -0.11573783842E+03  0.17193282687E+03  0.12509000000E+03 0.  0.
<mgrwt>
<rscale>  2 0.46061743E+03</rscale>
<asrwt>0</asrwt>
<pdfrwt beam="1">  1       21 0.97678786E-02 0.46061743E+03</pdfrwt>
<pdfrwt beam="2">  1       21 0.11743638E+00 0.46061743E+03</pdfrwt>
<totfact> 0.42856438E+04</totfact>
</mgrwt>
</event>
<event>
 7    0  0.4732500E-002  0.4559697E+03  0.7546771E-02  0.1025957E+00
         21   -1    0    0  502  501  0.00000000000E+00  0.00000000000E+00  0.24758458190E+03  0.24758458190E+03  0.00000000000E+00 0. -1.
         21   -1    0    0  501  502 -0.00000000000E+00 -0.00000000000E+00 -0.20993669437E+03  0.20993669437E+03  0.00000000000E+00 0. -1.
      99926    2    1    2    0    0  0.35527136788E-14  0.71054273576E-14  0.37647887525E+02  0.45752127628E+03  0.45596968628E+03 0.  0.
      99925    2    3    3    0    0  0.31469364973E+02  0.46603916753E+02 -0.75872465801E+02  0.27948581714E+03  0.26304646914E+03 0.  0.
         25    1    4    4    0    0  0.28022479036E+02 -0.26199825866E+01 -0.70108159101E+01  0.12840865734E+03  0.12509000000E+03 0.  0.
         25    1    4    4    0    0  0.34468859365E+01  0.49223899340E+02 -0.68861649891E+02  0.15107715980E+03  0.12509000000E+03 0.  0.
         25    1    3    3    0    0 -0.31469364973E+02 -0.46603916753E+02  0.11352035333E+03  0.17803545913E+03  0.12509000000E+03 0.  0.
<mgrwt>
<rscale>  2 0.45596969E+03</rscale>
<asrwt>0</asrwt>
<pdfrwt beam="1">  1       21 0.36409497E-01 0.45596969E+03</pdfrwt>
<pdfrwt beam="2">  1       21 0.30873043E-01 0.45596969E+03</pdfrwt>
<totfact> 0.67835159E+04</totfact>
</mgrwt>
</event>
<event>
 7    0  0.4732500E-002  0.4031640E+03  0.7546771E-02  0.1042690E+00
         21   -1    0    0  502  501  0.00000000000E+00  0.00000000000E+00  0.32193173643E+03  0.32193173643E+03  0.00000000000E+00 0. -1.
         21   -1    0    0  501  502 -0.00000000000E+00 -0.00000000000E+00 -0.12622332740E+03  0.12622332740E+03  0.00000000000E+00 0. -1.
      99926    2    1    2    0    0  0.00000000000E+00  0.88817841970E-15  0.19570840903E+03  0.44815506383E+03  0.40316396153E+03 0.  0.
      99925    2    3    3    0    0 -0.49076528858E+02  0.21067518870E+01  0.11233002467E+03  0.29000195079E+03  0.26281201063E+03 0.  0.
         25    1    3    3    0    0  0.49076528858E+02 -0.21067518870E+01  0.83378384355E+02  0.15815311305E+03  0.12509000000E+03 0.  0.
         25    1    4    4    0    0 -0.24168424650E+02  0.26938214084E+02  0.89652095222E+02  0.15809739532E+03  0.12509000000E+03 0.  0.
         25    1    4    4    0    0 -0.24908104207E+02 -0.24831462197E+02  0.22677929450E+02  0.13190455547E+03  0.12509000000E+03 0.  0.
<mgrwt>
<rscale>  2 0.40316396E+03</rscale>
<asrwt>0</asrwt>
<pdfrwt beam="1">  1       21 0.47342902E-01 0.40316396E+03</pdfrwt>
<pdfrwt beam="2">  1       21 0.18562254E-01 0.40316396E+03</pdfrwt>
<totfact> 0.10667797E+05</totfact>
</mgrwt>
</event>
<event>
 7    0  0.4732500E-002  0.4564043E+03  0.7546771E-02  0.1025829E+00
         21   -1    0    0  502  501  0.00000000000E+00  0.00000000000E+00  0.31822651297E+03  0.31822651297E+03  0.00000000000E+00 0. -1.
         21   -1    0    0  501  502 -0.00000000000E+00 -0.00000000000E+00 -0.16364513655E+03  0.16364513655E+03  0.00000000000E+00 0. -1.
      99926    2    1    2    0    0  0.00000000000E+00  0.71054273576E-14  0.15458137642E+03  0.48187164952E+03  0.45640429958E+03 0.  0.
      99925    2    3    3    0    0  0.10001369176E+03  0.50328566006E+02  0.12239597714E+03  0.31093566407E+03  0.26299146160E+03 0.  0.
         25    1    4    4    0    0  0.85363614159E+02  0.16276427604E+02  0.88417229656E+02  0.17611639139E+03  0.12509000000E+03 0.  0.
         25    1    4    4    0    0  0.14650077596E+02  0.34052138402E+02  0.33978747487E+02  0.13481927267E+03  0.12509000000E+03 0.  0.
         25    1    3    3    0    0 -0.10001369176E+03 -0.50328566006E+02  0.32185399280E+02  0.17093598545E+03  0.12509000000E+03 0.  0.
<mgrwt>
<rscale>  2 0.45640430E+03</rscale>
<asrwt>0</asrwt>
<pdfrwt beam="1">  1       21 0.46798017E-01 0.45640430E+03</pdfrwt>
<pdfrwt beam="2">  1       21 0.24065461E-01 0.45640430E+03</pdfrwt>
<totfact> 0.65827272E+04</totfact>
</mgrwt>
</event>
<event>
 7    0  0.4732500E-002  0.4433814E+03  0.7546771E-02  0.1029714E+00
         21   -1    0    0  502  501  0.00000000000E+00  0.00000000000E+00  0.31655326276E+03  0.31655326276E+03  0.00000000000E+00 0.  1.
         21   -1    0    0  501  502 -0.00000000000E+00 -0.00000000000E+00 -0.15525589591E+03  0.15525589591E+03  0.00000000000E+00 0.  1.
      99926    2    1    2    0    0  0.00000000000E+00  0.71054273576E-14  0.16129736685E+03  0.47180915867E+03  0.44338137270E+03 0.  0.
      99925    2    3    3    0    0 -0.76830590221E+02 -0.57881871351E+02  0.67974970403E+02  0.28847932367E+03  0.26333718491E+03 0.  0.
         25    1    4    4    0    0 -0.71098762355E+02 -0.42058716980E+01  0.39951405598E+02  0.14938656658E+03  0.12509000000E+03 0.  0.
         25    1    4    4    0    0 -0.57318278656E+01 -0.53675999653E+02  0.28023564805E+02  0.13909275709E+03  0.12509000000E+03 0.  0.
         25    1    3    3    0    0  0.76830590221E+02  0.57881871351E+02  0.93322396450E+02  0.18332983501E+03  0.12509000000E+03 0.  0.
<mgrwt>
<rscale>  2 0.44338137E+03</rscale>
<asrwt>0</asrwt>
<pdfrwt beam="1">  1       21 0.46551950E-01 0.44338137E+03</pdfrwt>
<pdfrwt beam="2">  1       21 0.22831749E-01 0.44338137E+03</pdfrwt>
<totfact> 0.73883095E+04</totfact>
</mgrwt>
</event>
<event>
 7    0  0.4732500E-002  0.4743327E+03  0.7546771E-02  0.1020704E+00
         21   -1    0    0  502  501  0.00000000000E+00  0.00000000000E+00  0.14599641664E+03  0.14599641664E+03  0.00000000000E+00 0. -1.
         21   -1    0    0  501  502 -0.00000000000E+00 -0.00000000000E+00 -0.38526893914E+03  0.38526893914E+03  0.00000000000E+00 0. -1.
      99926    2    1    2    0    0  0.00000000000E+00  0.14210854715E-13 -0.23927252250E+03  0.53126535578E+03  0.47433272945E+03 0.  0.
      99925    2    3    3    0    0 -0.52247471364E+02  0.76674952400E+02 -0.25082265568E+03  0.37509314230E+03  0.26300953254E+03 0.  0.
         25    1    4    4    0    0 -0.50415472680E+02  0.38862101279E+02 -0.17378475409E+03  0.22338449287E+03  0.12509000000E+03 0.  0.
         25    1    3    3    0    0  0.52247471364E+02 -0.76674952400E+02  0.11550133173E+02  0.15617221349E+03  0.12509000000E+03 0.  0.
         25    1    4    4    0    0 -0.18319986847E+01  0.37812851120E+02 -0.77037901584E+02  0.15170864942E+03  0.12509000000E+03 0.  0.
<mgrwt>
<rscale>  2 0.47433273E+03</rscale>
<asrwt>0</asrwt>
<pdfrwt beam="1">  1       21 0.21470062E-01 0.47433273E+03</pdfrwt>
<pdfrwt beam="2">  1       21 0.56657196E-01 0.47433273E+03</pdfrwt>
<totfact> 0.54306023E+04</totfact>
</mgrwt>
</event>
<event>
 7    0  0.4732500E-002  0.4566951E+03  0.7546771E-02  0.1025744E+00
         21   -1    0    0  502  501  0.00000000000E+00  0.00000000000E+00  0.23051270936E+03  0.23051270936E+03  0.00000000000E+00 0.  1.
         21   -1    0    0  501  502 -0.00000000000E+00 -0.00000000000E+00 -0.22620269470E+03  0.22620269470E+03  0.00000000000E+00 0.  1.
      99926    2    1    2    0    0 -0.71054273576E-14  0.14210854715E-13  0.43100146620E+01  0.45671540406E+03  0.45669506684E+03 0.  0.
      99925    2    3    3    0    0 -0.42765328400E+02  0.10560949081E+03  0.15594625668E+02  0.28713625319E+03  0.26310035668E+03 0.  0.
         25    1    4    4    0    0 -0.55031018567E+02  0.58217224712E+02 -0.15214104931E+02  0.14932057911E+03  0.12509000000E+03 0.  0.
         25    1    3    3    0    0  0.42765328400E+02 -0.10560949081E+03 -0.11284611006E+02  0.16957915087E+03  0.12509000000E+03 0.  0.
         25    1    4    4    0    0  0.12265690167E+02  0.47392266101E+02  0.30808730599E+02  0.13781567408E+03  0.12509000000E+03 0.  0.
<mgrwt>
<rscale>  2 0.45669507E+03</rscale>
<asrwt>0</asrwt>
<pdfrwt beam="1">  1       21 0.33898928E-01 0.45669507E+03</pdfrwt>
<pdfrwt beam="2">  1       21 0.33265102E-01 0.45669507E+03</pdfrwt>
<totfact> 0.67502709E+04</totfact>
</mgrwt>
</event>
<event>
 6    0  0.4732500E-002  0.4473771E+03  0.7546771E-02  0.1028507E+00
         21   -1    0    0  502  501  0.00000000000E+00  0.00000000000E+00  0.17633435196E+03  0.17633435196E+03  0.00000000000E+00 0. -1.
         21   -1    0    0  501  502 -0.00000000000E+00 -0.00000000000E+00 -0.28375965470E+03  0.28375965470E+03  0.00000000000E+00 0. -1.
      99926    2    1    2    0    0  0.00000000000E+00  0.00000000000E+00 -0.10742530274E+03  0.46009400665E+03  0.44737713318E+03 0.  0.
         25    1    3    3    0    0 -0.85199744290E+01 -0.43717531045E+02 -0.13121861459E+03  0.18668059727E+03  0.12509000000E+03 0.  0.
         25    1    3    3    0    0  0.12647381317E+02 -0.27027033296E+02  0.12276913778E+02  0.12918454820E+03  0.12509000000E+03 0.  0.
         25    1    3    3    0    0 -0.41274068879E+01  0.70744564341E+02  0.11516398073E+02  0.14422886118E+03  0.12509000000E+03 0.  0.
<mgrwt>
<rscale>  2 0.44737713E+03</rscale>
<asrwt>0</asrwt>
<pdfrwt beam="1">  1       21 0.25931522E-01 0.44737713E+03</pdfrwt>
<pdfrwt beam="2">  1       21 0.41729361E-01 0.44737713E+03</pdfrwt>
<totfact> 0.72463183E+04</totfact>
</mgrwt>
</event>
<event>
 7    0  0.4732500E-002  0.4560857E+03  0.7546771E-02  0.1025923E+00
         21   -1    0    0  502  501  0.00000000000E+00  0.00000000000E+00  0.29468778920E+03  0.29468778920E+03  0.00000000000E+00 0. -1.
         21   -1    0    0  501  502 -0.00000000000E+00 -0.00000000000E+00 -0.17646996656E+03  0.17646996656E+03  0.00000000000E+00 0. -1.
      99926    2    1    2    0    0 -0.71054273576E-14  0.00000000000E+00  0.11821782264E+03  0.47115775576E+03  0.45608571258E+03 0.  0.
      99925    2    3    3    0    0 -0.49074222032E+02 -0.96383174676E+02  0.36443762619E+02  0.28667875798E+03  0.26298016430E+03 0.  0.
         25    1    4    4    0    0  0.11590189912E+02 -0.33719759128E+02  0.80172977889E+00  0.13007499963E+03  0.12509000000E+03 0.  0.
         25    1    3    3    0    0  0.49074222032E+02  0.96383174676E+02  0.81774060019E+02  0.18447899778E+03  0.12509000000E+03 0.  0.
         25    1    4    4    0    0 -0.60664411944E+02 -0.62663415548E+02  0.35642032840E+02  0.15660375835E+03  0.12509000000E+03 0.  0.
<mgrwt>
<rscale>  2 0.45608571E+03</rscale>
<asrwt>0</asrwt>
<pdfrwt beam="1">  1       21 0.43336439E-01 0.45608571E+03</pdfrwt>
<pdfrwt beam="2">  1       21 0.25951466E-01 0.45608571E+03</pdfrwt>
<totfact> 0.66772724E+04</totfact>
</mgrwt>
</event>
<event>
 7    0  0.4732500E-002  0.4753063E+03  0.7546771E-02  0.1020433E+00
         21   -1    0    0  502  501  0.00000000000E+00  0.00000000000E+00  0.54457601364E+02  0.54457601364E+02  0.00000000000E+00 0.  1.
         21   -1    0    0  501  502 -0.00000000000E+00 -0.00000000000E+00 -0.10371189289E+04  0.10371189289E+04  0.00000000000E+00 0.  1.
      99926    2    1    2    0    0  0.00000000000E+00  0.35527136788E-14 -0.98266132756E+03  0.10915765303E+04  0.47530625579E+03 0.  0.
      99925    2    3    3    0    0  0.84924406639E+02 -0.20930927393E+02 -0.83326916920E+03  0.87799801160E+03  0.26247426822E+03 0.  0.
         25    1    3    3    0    0 -0.84924406639E+02  0.20930927393E+02 -0.14939215837E+03  0.21357851869E+03  0.12509000000E+03 0.  0.
         25    1    4    4    0    0  0.77043629508E+02  0.86721313146E+01 -0.41289398143E+03  0.43833762639E+03  0.12509000000E+03 0.  0.
         25    1    4    4    0    0  0.78807771312E+01 -0.29603058707E+02 -0.42037518777E+03  0.43966038521E+03  0.12509000000E+03 0.  0.
<mgrwt>
<rscale>  2 0.47530626E+03</rscale>
<asrwt>0</asrwt>
<pdfrwt beam="1">  1       21 0.80084706E-02 0.47530626E+03</pdfrwt>
<pdfrwt beam="2">  1       21 0.15251749E+00 0.47530626E+03</pdfrwt>
<totfact> 0.30638152E+04</totfact>
</mgrwt>
</event>
<event>
 7    0  0.4732500E-002  0.4500036E+03  0.7546771E-02  0.1027721E+00
         21   -1    0    0  502  501  0.00000000000E+00  0.00000000000E+00  0.11326133372E+03  0.11326133372E+03  0.00000000000E+00 0.  1.
         21   -1    0    0  501  502 -0.00000000000E+00 -0.00000000000E+00 -0.44698237310E+03  0.44698237310E+03  0.00000000000E+00 0.  1.
      99926    2    1    2    0    0  0.00000000000E+00  0.71054273576E-14 -0.33372103938E+03  0.56024370682E+03  0.45000364321E+03 0.  0.
      99925    2    3    3    0    0  0.24027464267E+01 -0.33396987494E+02 -0.82811053282E+02  0.27788850288E+03  0.26314106013E+03 0.  0.
         25    1    4    4    0    0  0.84473396460E+01  0.22528350260E+02 -0.50137512134E+02  0.13689471259E+03  0.12509000000E+03 0.  0.
         25    1    3    3    0    0 -0.24027464267E+01  0.33396987494E+02 -0.25090998610E+03  0.28235520393E+03  0.12509000000E+03 0.  0.
         25    1    4    4    0    0 -0.60445932194E+01 -0.55925337754E+02 -0.32673541148E+02  0.14099379029E+03  0.12509000000E+03 0.  0.
<mgrwt>
<rscale>  2 0.45000364E+03</rscale>
<asrwt>0</asrwt>
<pdfrwt beam="1">  1       21 0.16656078E-01 0.45000364E+03</pdfrwt>
<pdfrwt beam="2">  1       21 0.65732703E-01 0.45000364E+03</pdfrwt>
<totfact> 0.63673960E+04</totfact>
</mgrwt>
</event>
<event>
 7    0  0.4732500E-002  0.4663299E+03  0.7546771E-02  0.1022961E+00
         21   -1    0    0  502  501  0.00000000000E+00  0.00000000000E+00  0.24642667620E+02  0.24642667620E+02  0.00000000000E+00 0. -1.
         21   -1    0    0  501  502 -0.00000000000E+00 -0.00000000000E+00 -0.22061689010E+04  0.22061689010E+04  0.00000000000E+00 0. -1.
      99926    2    1    2    0    0  0.71054273576E-14  0.00000000000E+00 -0.21815262334E+04  0.22308115686E+04  0.46632987012E+03 0.  0.
      99925    2    3    3    0    0  0.62721906993E+02  0.41323251185E+02 -0.88958886601E+03  0.93066107040E+03  0.26290688224E+03 0.  0.
         25    1    4    4    0    0  0.15434266101E+02 -0.11412796932E+02 -0.48708574336E+03  0.50325788418E+03  0.12509000000E+03 0.  0.
         25    1    4    4    0    0  0.47287640891E+02  0.52736048117E+02 -0.40250312265E+03  0.42740318622E+03  0.12509000000E+03 0.  0.
         25    1    3    3    0    0 -0.62721906993E+02 -0.41323251185E+02 -0.12919373673E+04  0.13001504982E+04  0.12509000000E+03 0.  0.
<mgrwt>
<rscale>  2 0.46632987E+03</rscale>
<asrwt>0</asrwt>
<pdfrwt beam="1">  1       21 0.36239205E-02 0.46632987E+03</pdfrwt>
<pdfrwt beam="2">  1       21 0.32443671E+00 0.46632987E+03</pdfrwt>
<totfact> 0.94360901E+03</totfact>
</mgrwt>
</event>
<event>
 7    0  0.4732500E-002  0.4531828E+03  0.7546771E-02  0.1026777E+00
         21   -1    0    0  502  501  0.00000000000E+00  0.00000000000E+00  0.15641263002E+04  0.15641263002E+04  0.00000000000E+00 0.  1.
         21   -1    0    0  501  502 -0.00000000000E+00 -0.00000000000E+00 -0.32825774991E+02  0.32825774991E+02  0.00000000000E+00 0.  1.
      99926    2    1    2    0    0  0.14210854715E-13  0.00000000000E+00  0.15313005252E+04  0.15969520752E+04  0.45318277985E+03 0.  0.
      99925    2    3    3    0    0  0.94326016077E+02  0.58242519835E+02  0.92444231607E+03  0.96749676898E+03  0.26299584371E+03 0.  0.
         25    1    4    4    0    0  0.34821775189E+02  0.39384765593E+02  0.32938716807E+03  0.35624027057E+03  0.12509000000E+03 0.  0.
         25    1    4    4    0    0  0.59504240888E+02  0.18857754242E+02  0.59505514800E+03  0.61125649840E+03  0.12509000000E+03 0.  0.
         25    1    3    3    0    0 -0.94326016077E+02 -0.58242519835E+02  0.60685820916E+03  0.62945530624E+03  0.12509000000E+03 0.  0.
<mgrwt>
<rscale>  2 0.45318278E+03</rscale>
<asrwt>0</asrwt>
<pdfrwt beam="1">  1       21 0.23001852E+00 0.45318278E+03</pdfrwt>
<pdfrwt beam="2">  1       21 0.48273209E-02 0.45318278E+03</pdfrwt>
<totfact> 0.21804815E+04</totfact>
</mgrwt>
</event>
<event>
 7    0  0.4732500E-002  0.4508549E+03  0.7546771E-02  0.1027467E+00
         21   -1    0    0  502  501  0.00000000000E+00  0.00000000000E+00  0.23027875630E+04  0.23027875630E+04  0.00000000000E+00 0. -1.
         21   -1    0    0  501  502 -0.00000000000E+00 -0.00000000000E+00 -0.22067834179E+02  0.22067834179E+02  0.00000000000E+00 0. -1.
      99926    2    1    2    0    0  0.00000000000E+00  0.00000000000E+00  0.22807197288E+04  0.23248553972E+04  0.45085489502E+03 0.  0.
      99925    2    3    3    0    0  0.84938534066E+02 -0.59774138989E+02  0.12639817324E+04  0.12951995500E+04  0.26287744692E+03 0.  0.
         25    1    3    3    0    0 -0.84938534066E+02  0.59774138989E+02  0.10167379964E+04  0.10296558472E+04  0.12509000000E+03 0.  0.
         25    1    4    4    0    0  0.75402025676E+02 -0.57959787733E+02  0.71463464664E+03  0.73170690084E+03  0.12509000000E+03 0.  0.
         25    1    4    4    0    0  0.95365083898E+01 -0.18143512560E+01  0.54934708577E+03  0.56349264911E+03  0.12509000000E+03 0.  0.
<mgrwt>
<rscale>  2 0.45085490E+03</rscale>
<asrwt>0</asrwt>
<pdfrwt beam="1">  1       21 0.33864506E+00 0.45085490E+03</pdfrwt>
<pdfrwt beam="2">  1       21 0.32452713E-02 0.45085490E+03</pdfrwt>
<totfact> 0.93931444E+03</totfact>
</mgrwt>
</event>
<event>
 7    0  0.4732500E-002  0.4528543E+03  0.7546771E-02  0.1026874E+00
         21   -1    0    0  502  501  0.00000000000E+00  0.00000000000E+00  0.82551709303E+02  0.82551709303E+02  0.00000000000E+00 0. -1.
         21   -1    0    0  501  502 -0.00000000000E+00 -0.00000000000E+00 -0.62105631761E+03  0.62105631761E+03  0.00000000000E+00 0. -1.
      99926    2    1    2    0    0  0.71054273576E-14  0.00000000000E+00 -0.53850460830E+03  0.70360802691E+03  0.45285432798E+03 0.  0.
      99925    2    3    3    0    0  0.58738178536E+02 -0.68250124040E+02 -0.23830691457E+03  0.36615519099E+03  0.26300415454E+03 0.  0.
         25    1    3    3    0    0 -0.58738178536E+02  0.68250124040E+02 -0.30019769373E+03  0.33745283592E+03  0.12509000000E+03 0.  0.
         25    1    4    4    0    0  0.39726633158E+02 -0.63682414727E+02 -0.16340780619E+03  0.21905084924E+03  0.12509000000E+03 0.  0.
         25    1    4    4    0    0  0.19011545379E+02 -0.45677093128E+01 -0.74899108380E+02  0.14710434175E+03  0.12509000000E+03 0.  0.
<mgrwt>
<rscale>  2 0.45285433E+03</rscale>
<asrwt>0</asrwt>
<pdfrwt beam="1">  1       21 0.12139957E-01 0.45285433E+03</pdfrwt>
<pdfrwt beam="2">  1       21 0.91331810E-01 0.45285433E+03</pdfrwt>
<totfact> 0.53606893E+04</totfact>
</mgrwt>
</event>
<event>
 7    0  0.4732500E-002  0.4516298E+03  0.7546771E-02  0.1027237E+00
         21   -1    0    0  502  501  0.00000000000E+00  0.00000000000E+00  0.23871598931E+03  0.23871598931E+03  0.00000000000E+00 0. -1.
         21   -1    0    0  501  502 -0.00000000000E+00 -0.00000000000E+00 -0.21361102519E+03  0.21361102519E+03  0.00000000000E+00 0. -1.
      99926    2    1    2    0    0  0.00000000000E+00 -0.14210854715E-13  0.25104964115E+02  0.45232701450E+03  0.45162979178E+03 0.  0.
      99925    2    3    3    0    0  0.19446689650E+02  0.10194582721E+03  0.52413586439E+02  0.28751077022E+03  0.26295272108E+03 0.  0.
         25    1    4    4    0    0  0.25151292861E+02  0.29903586618E+02 -0.71559175433E+01  0.13124605625E+03  0.12509000000E+03 0.  0.
         25    1    4    4    0    0 -0.57046032112E+01  0.72042240596E+02  0.59569503982E+02  0.15626471397E+03  0.12509000000E+03 0.  0.
         25    1    3    3    0    0 -0.19446689650E+02 -0.10194582721E+03 -0.27308622324E+02  0.16481624428E+03  0.12509000000E+03 0.  0.
<mgrwt>
<rscale>  2 0.45162979E+03</rscale>
<asrwt>0</asrwt>
<pdfrwt beam="1">  1       21 0.35105293E-01 0.45162979E+03</pdfrwt>
<pdfrwt beam="2">  1       21 0.31413386E-01 0.45162979E+03</pdfrwt>
<totfact> 0.70622122E+04</totfact>
</mgrwt>
</event>
<event>
 7    0  0.4732500E-002  0.4558672E+03  0.7546771E-02  0.1025987E+00
         21   -1    0    0  502  501  0.00000000000E+00  0.00000000000E+00  0.50838155000E+03  0.50838155000E+03  0.00000000000E+00 0. -1.
         21   -1    0    0  501  502 -0.00000000000E+00 -0.00000000000E+00 -0.10219436589E+03  0.10219436589E+03  0.00000000000E+00 0. -1.
      99926    2    1    2    0    0  0.00000000000E+00 -0.14210854715E-13  0.40618718412E+03  0.61057591589E+03  0.45586721808E+03 0.  0.
      99925    2    3    3    0    0  0.49829536771E+02 -0.10133440470E+03  0.27647948071E+03  0.39791834905E+03  0.26295715421E+03 0.  0.
         25    1    4    4    0    0  0.52561025005E+02 -0.20689590203E+02  0.13698550742E+03  0.19391559462E+03  0.12509000000E+03 0.  0.
         25    1    3    3    0    0 -0.49829536771E+02  0.10133440470E+03  0.12970770341E+03  0.21265756684E+03  0.12509000000E+03 0.  0.
         25    1    4    4    0    0 -0.27314882339E+01 -0.80644814494E+02  0.13949397329E+03  0.20400275443E+03  0.12509000000E+03 0.  0.
<mgrwt>
<rscale>  2 0.45586722E+03</rscale>
<asrwt>0</asrwt>
<pdfrwt beam="1">  1       21 0.74761992E-01 0.45586722E+03</pdfrwt>
<pdfrwt beam="2">  1       21 0.15028583E-01 0.45586722E+03</pdfrwt>
<totfact> 0.57636148E+04</totfact>
</mgrwt>
</event>
<event>
 7    0  0.4732500E-002  0.4536136E+03  0.7546771E-02  0.1026650E+00
         21   -1    0    0  502  501  0.00000000000E+00  0.00000000000E+00  0.27869698555E+03  0.27869698555E+03  0.00000000000E+00 0. -1.
         21   -1    0    0  501  502 -0.00000000000E+00 -0.00000000000E+00 -0.18457795505E+03  0.18457795505E+03  0.00000000000E+00 0. -1.
      99926    2    1    2    0    0  0.00000000000E+00  0.00000000000E+00  0.94119030498E+02  0.46327494060E+03  0.45361357860E+03 0.  0.
      99925    2    3    3    0    0  0.38834240217E+02  0.10376430705E+03  0.43486178889E+02  0.28867160904E+03  0.26299262438E+03 0.  0.
         25    1    4    4    0    0  0.30966102969E+02  0.91479819120E+02  0.38390116189E+02  0.16263076572E+03  0.12509000000E+03 0.  0.
         25    1    3    3    0    0 -0.38834240217E+02 -0.10376430705E+03  0.50632851609E+02  0.17460333157E+03  0.12509000000E+03 0.  0.
         25    1    4    4    0    0  0.78681372476E+01  0.12284487935E+02  0.50960627003E+01  0.12604084331E+03  0.12509000000E+03 0.  0.
<mgrwt>
<rscale>  2 0.45361358E+03</rscale>
<asrwt>0</asrwt>
<pdfrwt beam="1">  1       21 0.40984851E-01 0.45361358E+03</pdfrwt>
<pdfrwt beam="2">  1       21 0.27143817E-01 0.45361358E+03</pdfrwt>
<totfact> 0.68692282E+04</totfact>
</mgrwt>
</event>
<event>
 7    0  0.4732500E-002  0.4542645E+03  0.7546771E-02  0.1026458E+00
         21   -1    0    0  502  501  0.00000000000E+00  0.00000000000E+00  0.31219677729E+03  0.31219677729E+03  0.00000000000E+00 0. -1.
         21   -1    0    0  501  502 -0.00000000000E+00 -0.00000000000E+00 -0.16524532057E+03  0.16524532057E+03  0.00000000000E+00 0. -1.
      99926    2    1    2    0    0  0.00000000000E+00  0.00000000000E+00  0.14695145672E+03  0.47744209787E+03  0.45426448924E+03 0.  0.
      99925    2    3    3    0    0  0.94728295914E+01 -0.45343021756E+02 -0.15137691297E+02  0.26752277020E+03  0.26304668551E+03 0.  0.
         25    1    4    4    0    0  0.85642136944E+00  0.16713881864E+02  0.42897869759E+01  0.12627746306E+03  0.12509000000E+03 0.  0.
         25    1    3    3    0    0 -0.94728295914E+01  0.45343021756E+02  0.16208914802E+03  0.20991932767E+03  0.12509000000E+03 0.  0.
         25    1    4    4    0    0  0.86164082219E+01 -0.62056903620E+02 -0.19427478273E+02  0.14124530714E+03  0.12509000000E+03 0.  0.
<mgrwt>
<rscale>  2 0.45426449E+03</rscale>
<asrwt>0</asrwt>
<pdfrwt beam="1">  1       21 0.45911291E-01 0.45426449E+03</pdfrwt>
<pdfrwt beam="2">  1       21 0.24300782E-01 0.45426449E+03</pdfrwt>
<totfact> 0.67278658E+04</totfact>
</mgrwt>
</event>
<event>
 7    0  0.4732500E-002  0.4261293E+03  0.7546771E-02  0.1035090E+00
         21   -1    0    0  502  501  0.00000000000E+00  0.00000000000E+00  0.17104879858E+03  0.17104879858E+03  0.00000000000E+00 0.  1.
         21   -1    0    0  501  502 -0.00000000000E+00 -0.00000000000E+00 -0.26540111156E+03  0.26540111156E+03  0.00000000000E+00 0.  1.
      99926    2    1    2    0    0  0.00000000000E+00  0.00000000000E+00 -0.94352312985E+02  0.43644991014E+03  0.42612928214E+03 0.  0.
      99925    2    3    3    0    0  0.55404273633E+02  0.55101626346E+02 -0.31241642530E+02  0.27602457677E+03  0.26288344183E+03 0.  0.
         25    1    3    3    0    0 -0.55404273633E+02 -0.55101626346E+02 -0.63110670455E+02  0.16042533337E+03  0.12509000000E+03 0.  0.
         25    1    4    4    0    0  0.13358100516E+02  0.25891419647E+02 -0.53330657348E+02  0.13907002399E+03  0.12509000000E+03 0.  0.
         25    1    4    4    0    0  0.42046173117E+02  0.29210206699E+02  0.22089014818E+02  0.13695455277E+03  0.12509000000E+03 0.  0.
<mgrwt>
<rscale>  2 0.42612928E+03</rscale>
<asrwt>0</asrwt>
<pdfrwt beam="1">  1       21 0.25154235E-01 0.42612928E+03</pdfrwt>
<pdfrwt beam="2">  1       21 0.39029575E-01 0.42612928E+03</pdfrwt>
<totfact> 0.88635672E+04</totfact>
</mgrwt>
</event>
<event>
 7    0  0.4732500E-002  0.3965283E+03  0.7546771E-02  0.1044988E+00
         21   -1    0    0  502  501  0.00000000000E+00  0.00000000000E+00  0.10073941646E+03  0.10073941646E+03  0.00000000000E+00 0.  1.
         21   -1    0    0  501  502 -0.00000000000E+00 -0.00000000000E+00 -0.39020151733E+03  0.39020151733E+03  0.00000000000E+00 0.  1.
      99926    2    1    2    0    0  0.00000000000E+00 -0.17763568394E-14 -0.28946210087E+03  0.49094093379E+03  0.39652829992E+03 0.  0.
      99925    2    3    3    0    0  0.35941264054E+02 -0.13616920461E+02 -0.19171721128E+03  0.32760457371E+03  0.26285370956E+03 0.  0.
         25    1    4    4    0    0 -0.15544109624E+02  0.15448992375E+02 -0.84052679854E+02  0.15229133856E+03  0.12509000000E+03 0.  0.
         25    1    3    3    0    0 -0.35941264054E+02  0.13616920461E+02 -0.97744889583E+02  0.16333636008E+03  0.12509000000E+03 0.  0.
         25    1    4    4    0    0  0.51485373678E+02 -0.29065912836E+02 -0.10766453143E+03  0.17531323515E+03  0.12509000000E+03 0.  0.
<mgrwt>
<rscale>  2 0.39652830E+03</rscale>
<asrwt>0</asrwt>
<pdfrwt beam="1">  1       21 0.14814620E-01 0.39652830E+03</pdfrwt>
<pdfrwt beam="2">  1       21 0.57382576E-01 0.39652830E+03</pdfrwt>
<totfact> 0.10791348E+05</totfact>
</mgrwt>
</event>
<event>
 7    0  0.4732500E-002  0.4599014E+03  0.7546771E-02  0.1024810E+00
         21   -1    0    0  502  501  0.00000000000E+00  0.00000000000E+00  0.78691163526E+03  0.78691163526E+03  0.00000000000E+00 0.  1.
         21   -1    0    0  501  502 -0.00000000000E+00 -0.00000000000E+00 -0.67196011510E+02  0.67196011510E+02  0.00000000000E+00 0.  1.
      99926    2    1    2    0    0  0.00000000000E+00  0.00000000000E+00  0.71971562375E+03  0.85410764677E+03  0.45990139508E+03 0.  0.
      99925    2    3    3    0    0  0.45854118109E+02 -0.10405870267E+03  0.50799921400E+03  0.58317931675E+03  0.26287658761E+03 0.  0.
         25    1    4    4    0    0  0.59410561807E+02 -0.45912421504E+02  0.29406875556E+03  0.32827047750E+03  0.12509000000E+03 0.  0.
         25    1    3    3    0    0 -0.45854118109E+02  0.10405870267E+03  0.21171640974E+03  0.27092833001E+03  0.12509000000E+03 0.  0.
         25    1    4    4    0    0 -0.13556443698E+02 -0.58146281165E+02  0.21393045844E+03  0.25490883925E+03  0.12509000000E+03 0.  0.
<mgrwt>
<rscale>  2 0.45990140E+03</rscale>
<asrwt>0</asrwt>
<pdfrwt beam="1">  1       21 0.11572229E+00 0.45990140E+03</pdfrwt>
<pdfrwt beam="2">  1       21 0.98817668E-02 0.45990140E+03</pdfrwt>
<totfact> 0.43557192E+04</totfact>
</mgrwt>
</event>
<event>
 7    0  0.4732500E-002  0.4692191E+03  0.7546771E-02  0.1022141E+00
         21   -1    0    0  502  501  0.00000000000E+00  0.00000000000E+00  0.99987005619E+02  0.99987005619E+02  0.00000000000E+00 0.  1.
         21   -1    0    0  501  502 -0.00000000000E+00 -0.00000000000E+00 -0.55048790332E+03  0.55048790332E+03  0.00000000000E+00 0.  1.
      99926    2    1    2    0    0  0.00000000000E+00  0.00000000000E+00 -0.45050089771E+03  0.65047490894E+03  0.46921908351E+03 0.  0.
      99925    2    3    3    0    0  0.89237852317E+02  0.63473656776E+02 -0.19372170952E+03  0.34457401164E+03  0.26307954950E+03 0.  0.
         25    1    3    3    0    0 -0.89237852317E+02 -0.63473656776E+02 -0.25677918818E+03  0.30590089731E+03  0.12509000000E+03 0.  0.
         25    1    4    4    0    0  0.39744694178E+02  0.67437403319E+02 -0.77099603051E+02  0.16649114383E+03  0.12509000000E+03 0.  0.
         25    1    4    4    0    0  0.49493158139E+02 -0.39637465424E+01 -0.11662210647E+03  0.17808286781E+03  0.12509000000E+03 0.  0.
<mgrwt>
<rscale>  2 0.46921908E+03</rscale>
<asrwt>0</asrwt>
<pdfrwt beam="1">  1       21 0.14703971E-01 0.46921908E+03</pdfrwt>
<pdfrwt beam="2">  1       21 0.80954106E-01 0.46921908E+03</pdfrwt>
<totfact> 0.49842690E+04</totfact>
</mgrwt>
</event>
<event>
 7    0  0.4732500E-002  0.4586163E+03  0.7546771E-02  0.1025183E+00
         21   -1    0    0  502  501  0.00000000000E+00  0.00000000000E+00  0.20718300310E+03  0.20718300310E+03  0.00000000000E+00 0.  1.
         21   -1    0    0  501  502 -0.00000000000E+00 -0.00000000000E+00 -0.25379607095E+03  0.25379607095E+03  0.00000000000E+00 0.  1.
      99926    2    1    2    0    0  0.00000000000E+00  0.00000000000E+00 -0.46613067851E+02  0.46097907406E+03  0.45861631962E+03 0.  0.
      99925    2    3    3    0    0 -0.54636593036E+02  0.90720896080E+02  0.19598333988E+02  0.28421115808E+03  0.26301416198E+03 0.  0.
         25    1    3    3    0    0  0.54636593036E+02 -0.90720896080E+02 -0.66211401840E+02  0.17676791597E+03  0.12509000000E+03 0.  0.
         25    1    4    4    0    0 -0.51576350759E+02  0.78193148568E+02  0.25394764578E+02  0.15832463677E+03  0.12509000000E+03 0.  0.
         25    1    4    4    0    0 -0.30602422767E+01  0.12527747512E+02 -0.57964305900E+01  0.12588652131E+03  0.12509000000E+03 0.  0.
<mgrwt>
<rscale>  2 0.45861632E+03</rscale>
<asrwt>0</asrwt>
<pdfrwt beam="1">  1       21 0.30468089E-01 0.45861632E+03</pdfrwt>
<pdfrwt beam="2">  1       21 0.37322951E-01 0.45861632E+03</pdfrwt>
<totfact> 0.66179759E+04</totfact>
</mgrwt>
</event>
<event>
 7    0  0.4732500E-002  0.4533414E+03  0.7546771E-02  0.1026730E+00
         21   -1    0    0  502  501  0.00000000000E+00  0.00000000000E+00  0.21955120576E+03  0.21955120576E+03  0.00000000000E+00 0.  1.
         21   -1    0    0  501  502 -0.00000000000E+00 -0.00000000000E+00 -0.23402105714E+03  0.23402105714E+03  0.00000000000E+00 0.  1.
      99926    2    1    2    0    0  0.00000000000E+00  0.00000000000E+00 -0.14469851377E+02  0.45357226291E+03  0.45334139573E+03 0.  0.
      99925    2    3    3    0    0 -0.87748219669E+02  0.38275886427E+02 -0.66398709400E+02  0.28771416714E+03  0.26307006638E+03 0.  0.
         25    1    4    4    0    0 -0.76236857716E+02 -0.46250423907E+01 -0.25113429018E+02  0.14869983829E+03  0.12509000000E+03 0.  0.
         25    1    4    4    0    0 -0.11511361953E+02  0.42900928818E+02 -0.41285280382E+02  0.13901432884E+03  0.12509000000E+03 0.  0.
         25    1    3    3    0    0  0.87748219669E+02 -0.38275886427E+02  0.51928858023E+02  0.16585809577E+03  0.12509000000E+03 0.  0.
<mgrwt>
<rscale>  2 0.45334140E+03</rscale>
<asrwt>0</asrwt>
<pdfrwt beam="1">  1       21 0.32286942E-01 0.45334140E+03</pdfrwt>
<pdfrwt beam="2">  1       21 0.34414861E-01 0.45334140E+03</pdfrwt>
<totfact> 0.69566613E+04</totfact>
</mgrwt>
</event>
<event>
 7    0  0.4732500E-002  0.4583010E+03  0.7546771E-02  0.1025275E+00
         21   -1    0    0  502  501  0.00000000000E+00  0.00000000000E+00  0.39941012412E+03  0.39941012412E+03  0.00000000000E+00 0.  1.
         21   -1    0    0  501  502 -0.00000000000E+00 -0.00000000000E+00 -0.13146874349E+03  0.13146874349E+03  0.00000000000E+00 0.  1.
      99926    2    1    2    0    0  0.00000000000E+00  0.00000000000E+00  0.26794138063E+03  0.53087886762E+03  0.45830098040E+03 0.  0.
      99925    2    3    3    0    0  0.51647338146E+02  0.10048066957E+03  0.20343494911E+03  0.35040061325E+03  0.26197518728E+03 0.  0.
         25    1    4    4    0    0  0.50971002899E+02  0.54735353812E+02  0.14284179117E+03  0.20407177046E+03  0.12509000000E+03 0.  0.
         25    1    3    3    0    0 -0.51647338146E+02 -0.10048066957E+03  0.64506431517E+02  0.18047825437E+03  0.12509000000E+03 0.  0.
         25    1    4    4    0    0  0.67633524749E+00  0.45745315753E+02  0.60593157943E+02  0.14632884279E+03  0.12509000000E+03 0.  0.
<mgrwt>
<rscale>  2 0.45830098E+03</rscale>
<asrwt>0</asrwt>
<pdfrwt beam="1">  1       21 0.58736783E-01 0.45830098E+03</pdfrwt>
<pdfrwt beam="2">  1       21 0.19333639E-01 0.45830098E+03</pdfrwt>
<totfact> 0.61521576E+04</totfact>
</mgrwt>
</event>
<event>
 7    0  0.4732500E-002  0.4573129E+03  0.7546771E-02  0.1025563E+00
         21   -1    0    0  502  501  0.00000000000E+00  0.00000000000E+00  0.13332521802E+04  0.13332521802E+04  0.00000000000E+00 0.  1.
         21   -1    0    0  501  502 -0.00000000000E+00 -0.00000000000E+00 -0.39215213657E+02  0.39215213657E+02  0.00000000000E+00 0.  1.
      99926    2    1    2    0    0  0.00000000000E+00  0.00000000000E+00  0.12940369665E+04  0.13724673939E+04  0.45731288678E+03 0.  0.
      99925    2    3    3    0    0  0.89555833458E+01 -0.11117907574E+03  0.90031099376E+03  0.94455544135E+03  0.26302871885E+03 0.  0.
         25    1    3    3    0    0 -0.89555833458E+01  0.11117907574E+03  0.39372597278E+03  0.42791195251E+03  0.12509000000E+03 0.  0.
         25    1    4    4    0    0  0.35204932340E+02 -0.33402736335E+02  0.48040321341E+03  0.49878841768E+03  0.12509000000E+03 0.  0.
         25    1    4    4    0    0 -0.26249348995E+02 -0.77776339402E+02  0.41990778034E+03  0.44576702367E+03  0.12509000000E+03 0.  0.
<mgrwt>
<rscale>  2 0.45731289E+03</rscale>
<asrwt>0</asrwt>
<pdfrwt beam="1">  1       21 0.19606647E+00 0.45731289E+03</pdfrwt>
<pdfrwt beam="2">  1       21 0.57669441E-02 0.45731289E+03</pdfrwt>
<totfact> 0.26593758E+04</totfact>
</mgrwt>
</event>
<event>
 7    0  0.4732500E-002  0.3974573E+03  0.7546771E-02  0.1044664E+00
         21   -1    0    0  502  501  0.00000000000E+00  0.00000000000E+00  0.16113424933E+03  0.16113424933E+03  0.00000000000E+00 0.  1.
         21   -1    0    0  501  502 -0.00000000000E+00 -0.00000000000E+00 -0.24509422878E+03  0.24509422878E+03  0.00000000000E+00 0.  1.
      99926    2    1    2    0    0  0.00000000000E+00  0.35527136788E-14 -0.83959979449E+02  0.40622847810E+03  0.39745729113E+03 0.  0.
      99925    2    3    3    0    0 -0.41047664571E+01  0.23564688910E+02 -0.89209921240E+02  0.27876391966E+03  0.26301857194E+03 0.  0.
         25    1    3    3    0    0  0.41047664571E+01 -0.23564688910E+02  0.52499417906E+01  0.12746455845E+03  0.12509000000E+03 0.  0.
         25    1    4    4    0    0  0.10201988708E+02 -0.14378772887E+02 -0.73958598149E+02  0.14638378334E+03  0.12509000000E+03 0.  0.
         25    1    4    4    0    0 -0.14306755165E+02  0.37943461797E+02 -0.15251323090E+02  0.13238013632E+03  0.12509000000E+03 0.  0.
<mgrwt>
<rscale>  2 0.39745729E+03</rscale>
<asrwt>0</asrwt>
<pdfrwt beam="1">  1       21 0.23696213E-01 0.39745729E+03</pdfrwt>
<pdfrwt beam="2">  1       21 0.36043269E-01 0.39745729E+03</pdfrwt>
<totfact> 0.11769978E+05</totfact>
</mgrwt>
</event>
<event>
 7    0  0.4732500E-002  0.4548305E+03  0.7546771E-02  0.1026291E+00
         21   -1    0    0  502  501  0.00000000000E+00  0.00000000000E+00  0.15741033410E+03  0.15741033410E+03  0.00000000000E+00 0.  1.
         21   -1    0    0  501  502 -0.00000000000E+00 -0.00000000000E+00 -0.32855333822E+03  0.32855333822E+03  0.00000000000E+00 0.  1.
      99926    2    1    2    0    0 -0.35527136788E-14  0.00000000000E+00 -0.17114300412E+03  0.48596367231E+03  0.45483047715E+03 0.  0.
      99925    2    3    3    0    0  0.92816396184E+01 -0.11043456870E+03 -0.83960719975E+02  0.29746910590E+03  0.26297627967E+03 0.  0.
         25    1    4    4    0    0 -0.30324234198E+02 -0.62137216588E+02 -0.22286896503E+02  0.14465409334E+03  0.12509000000E+03 0.  0.
         25    1    4    4    0    0  0.39605873816E+02 -0.48297352110E+02 -0.61673823472E+02  0.15281501256E+03  0.12509000000E+03 0.  0.
         25    1    3    3    0    0 -0.92816396184E+01  0.11043456870E+03 -0.87182284145E+02  0.18849456641E+03  0.12509000000E+03 0.  0.
<mgrwt>
<rscale>  2 0.45483048E+03</rscale>
<asrwt>0</asrwt>
<pdfrwt beam="1">  1       21 0.23148579E-01 0.45483048E+03</pdfrwt>
<pdfrwt beam="2">  1       21 0.48316667E-01 0.45483048E+03</pdfrwt>
<totfact> 0.66357744E+04</totfact>
</mgrwt>
</event>
<event>
 7    0  0.4732500E-002  0.4507689E+03  0.7546771E-02  0.1027493E+00
         21   -1    0    0  502  501  0.00000000000E+00  0.00000000000E+00  0.29564347475E+02  0.29564347475E+02  0.00000000000E+00 0.  1.
         21   -1    0    0  501  502 -0.00000000000E+00 -0.00000000000E+00 -0.17182230982E+04  0.17182230982E+04  0.00000000000E+00 0.  1.
      99926    2    1    2    0    0 -0.71054273576E-14  0.00000000000E+00 -0.16886587507E+04  0.17477874457E+04  0.45076887521E+03 0.  0.
      99925    2    3    3    0    0  0.35632743234E+02  0.97730032134E+02 -0.94018814669E+03  0.98183927198E+03  0.26312307628E+03 0.  0.
         25    1    4    4    0    0  0.39520640917E+02  0.64236792251E+02 -0.60755273710E+03  0.62486485179E+03  0.12509000000E+03 0.  0.
         25    1    4    4    0    0 -0.38878976828E+01  0.33493239883E+02 -0.33263540958E+03  0.35697442020E+03  0.12509000000E+03 0.  0.
         25    1    3    3    0    0 -0.35632743234E+02 -0.97730032134E+02 -0.74847060402E+03  0.76594817367E+03  0.12509000000E+03 0.  0.
<mgrwt>
<rscale>  2 0.45076888E+03</rscale>
<asrwt>0</asrwt>
<pdfrwt beam="1">  1       21 0.43476982E-02 0.45076888E+03</pdfrwt>
<pdfrwt beam="2">  1       21 0.25267987E+00 0.45076888E+03</pdfrwt>
<totfact> 0.18897819E+04</totfact>
</mgrwt>
</event>
<event>
 7    0  0.4732500E-002  0.4438328E+03  0.7546771E-02  0.1029577E+00
         21   -1    0    0  502  501  0.00000000000E+00  0.00000000000E+00  0.59630843574E+02  0.59630843574E+02  0.00000000000E+00 0. -1.
         21   -1    0    0  501  502 -0.00000000000E+00 -0.00000000000E+00 -0.82586250655E+03  0.82586250655E+03  0.00000000000E+00 0. -1.
      99926    2    1    2    0    0  0.00000000000E+00  0.00000000000E+00 -0.76623166298E+03  0.88549335013E+03  0.44383275202E+03 0.  0.
      99925    2    3    3    0    0  0.43395678220E+02  0.92146472680E+02 -0.46213475289E+03  0.54126000465E+03  0.26271601680E+03 0.  0.
         25    1    3    3    0    0 -0.43395678220E+02 -0.92146472680E+02 -0.30409691009E+03  0.34423334548E+03  0.12509000000E+03 0.  0.
         25    1    4    4    0    0  0.91867535015E+01  0.82243849812E+02 -0.21750996005E+03  0.26420926951E+03  0.12509000000E+03 0.  0.
         25    1    4    4    0    0  0.34208924718E+02  0.99026228677E+01 -0.24462479284E+03  0.27705073514E+03  0.12509000000E+03 0.  0.
<mgrwt>
<rscale>  2 0.44383275E+03</rscale>
<asrwt>0</asrwt>
<pdfrwt beam="1">  1       21 0.87692427E-02 0.44383275E+03</pdfrwt>
<pdfrwt beam="2">  1       21 0.12145035E+00 0.44383275E+03</pdfrwt>
<totfact> 0.47921571E+04</totfact>
</mgrwt>
</event>
<event>
 7    0  0.4732500E-002  0.4549436E+03  0.7546771E-02  0.1026258E+00
         21   -1    0    0  502  501  0.00000000000E+00  0.00000000000E+00  0.70740548290E+03  0.70740548290E+03  0.00000000000E+00 0. -1.
         21   -1    0    0  501  502 -0.00000000000E+00 -0.00000000000E+00 -0.73145345278E+02  0.73145345278E+02  0.00000000000E+00 0. -1.
      99926    2    1    2    0    0  0.00000000000E+00  0.35527136788E-14  0.63426013762E+03  0.78055082817E+03  0.45494359342E+03 0.  0.
      99925    2    3    3    0    0 -0.23331440746E+02  0.84079559275E+01  0.58849985525E+03  0.64506443996E+03  0.26298479464E+03 0.  0.
         25    1    4    4    0    0 -0.19250331095E+02 -0.35184167591E+02  0.30721598822E+03  0.33412224172E+03  0.12509000000E+03 0.  0.
         25    1    4    4    0    0 -0.40811096502E+01  0.43592123519E+02  0.28128386703E+03  0.31094219823E+03  0.12509000000E+03 0.  0.
         25    1    3    3    0    0  0.23331440746E+02 -0.84079559275E+01  0.45760282366E+02  0.13548638822E+03  0.12509000000E+03 0.  0.
<mgrwt>
<rscale>  2 0.45494359E+03</rscale>
<asrwt>0</asrwt>
<pdfrwt beam="1">  1       21 0.10403021E+00 0.45494359E+03</pdfrwt>
<pdfrwt beam="2">  1       21 0.10756669E-01 0.45494359E+03</pdfrwt>
<totfact> 0.48741547E+04</totfact>
</mgrwt>
</event>
<event>
 7    0  0.4732500E-002  0.4544621E+03  0.7546771E-02  0.1026400E+00
         21   -1    0    0  502  501  0.00000000000E+00  0.00000000000E+00  0.38831826332E+02  0.38831826332E+02  0.00000000000E+00 0. -1.
         21   -1    0    0  501  502 -0.00000000000E+00 -0.00000000000E+00 -0.13296811317E+04  0.13296811317E+04  0.00000000000E+00 0. -1.
      99926    2    1    2    0    0  0.00000000000E+00  0.71054273576E-14 -0.12908493054E+04  0.13685129580E+04  0.45446208547E+03 0.  0.
      99925    2    3    3    0    0  0.84079821458E+02 -0.34501682252E+02 -0.61135509993E+03  0.67164879209E+03  0.26286357535E+03 0.  0.
         25    1    4    4    0    0  0.49754513002E+02 -0.53724641495E+02 -0.36144265042E+03  0.38942283742E+03  0.12509000000E+03 0.  0.
         25    1    4    4    0    0  0.34325308457E+02  0.19222959243E+02 -0.24991244952E+03  0.28222595466E+03  0.12509000000E+03 0.  0.
         25    1    3    3    0    0 -0.84079821458E+02  0.34501682252E+02 -0.67949420542E+03  0.69686416593E+03  0.12509000000E+03 0.  0.
<mgrwt>
<rscale>  2 0.45446209E+03</rscale>
<asrwt>0</asrwt>
<pdfrwt beam="1">  1       21 0.57105639E-02 0.45446209E+03</pdfrwt>
<pdfrwt beam="2">  1       21 0.19554130E+00 0.45446209E+03</pdfrwt>
<totfact> 0.27297259E+04</totfact>
</mgrwt>
</event>
<event>
 7    0  0.4732500E-002  0.4967692E+03  0.7546771E-02  0.1014626E+00
         21   -1    0    0  502  501  0.00000000000E+00  0.00000000000E+00  0.10614759430E+04  0.10614759430E+04  0.00000000000E+00 0.  1.
         21   -1    0    0  501  502 -0.00000000000E+00 -0.00000000000E+00 -0.58121820976E+02  0.58121820976E+02  0.00000000000E+00 0.  1.
      99926    2    1    2    0    0 -0.17763568394E-14  0.00000000000E+00  0.10033541221E+04  0.11195977640E+04  0.49676922100E+03 0.  0.
      99925    2    3    3    0    0 -0.13915039920E+02 -0.45371982797E+02  0.92862546909E+03  0.96635245468E+03  0.26313410966E+03 0.  0.
         25    1    3    3    0    0  0.13915039920E+02  0.45371982797E+02  0.74728652977E+02  0.15324530934E+03  0.12509000000E+03 0.  0.
         25    1    4    4    0    0  0.78069280558E+01  0.12832932115E+02  0.38602137241E+03  0.40606112881E+03  0.12509000000E+03 0.  0.
         25    1    4    4    0    0 -0.21721967976E+02 -0.58204914912E+02  0.54260409667E+03  0.56029132587E+03  0.12509000000E+03 0.  0.
<mgrwt>
<rscale>  2 0.49676922E+03</rscale>
<asrwt>0</asrwt>
<pdfrwt beam="1">  1       21 0.15609939E+00 0.49676922E+03</pdfrwt>
<pdfrwt beam="2">  1       21 0.85473272E-02 0.49676922E+03</pdfrwt>
<totfact> 0.25457278E+04</totfact>
</mgrwt>
</event>
<event>
 7    0  0.4732500E-002  0.4414104E+03  0.7546771E-02  0.1030315E+00
         21   -1    0    0  502  501  0.00000000000E+00  0.00000000000E+00  0.28406526858E+03  0.28406526858E+03  0.00000000000E+00 0. -1.
         21   -1    0    0  501  502 -0.00000000000E+00 -0.00000000000E+00 -0.17147741874E+03  0.17147741874E+03  0.00000000000E+00 0. -1.
      99926    2    1    2    0    0  0.00000000000E+00  0.00000000000E+00  0.11258784984E+03  0.45554268732E+03  0.44141037146E+03 0.  0.
      99925    2    3    3    0    0  0.78023466174E+02  0.31181953273E+02  0.12762888027E+03  0.30410386739E+03  0.26292595079E+03 0.  0.
         25    1    4    4    0    0  0.43896253231E+02 -0.19423967292E+02  0.84429409614E+02  0.15836667851E+03  0.12509000000E+03 0.  0.
         25    1    4    4    0    0  0.34127212943E+02  0.50605920565E+02  0.43199470654E+02  0.14573718889E+03  0.12509000000E+03 0.  0.
         25    1    3    3    0    0 -0.78023466174E+02 -0.31181953273E+02 -0.15041030431E+02  0.15143881992E+03  0.12509000000E+03 0.  0.
<mgrwt>
<rscale>  2 0.44141037E+03</rscale>
<asrwt>0</asrwt>
<pdfrwt beam="1">  1       21 0.41774304E-01 0.44141037E+03</pdfrwt>
<pdfrwt beam="2">  1       21 0.25217267E-01 0.44141037E+03</pdfrwt>
<totfact> 0.76439736E+04</totfact>
</mgrwt>
</event>
<event>
 7    0  0.4732500E-002  0.4521573E+03  0.7546771E-02  0.1027081E+00
         21   -1    0    0  502  501  0.00000000000E+00  0.00000000000E+00  0.72211806700E+03  0.72211806700E+03  0.00000000000E+00 0.  1.
         21   -1    0    0  501  502 -0.00000000000E+00 -0.00000000000E+00 -0.70780041877E+02  0.70780041877E+02  0.00000000000E+00 0.  1.
      99926    2    1    2    0    0  0.14210854715E-13  0.71054273576E-14  0.65133802512E+03  0.79289810888E+03  0.45215726035E+03 0.  0.
      99925    2    3    3    0    0  0.87703385963E+02  0.50431865006E+02  0.33312497429E+03  0.43632790437E+03  0.26301052208E+03 0.  0.
         25    1    3    3    0    0 -0.87703385963E+02 -0.50431865006E+02  0.31821305084E+03  0.35657020450E+03  0.12509000000E+03 0.  0.
         25    1    4    4    0    0  0.59774301531E+02  0.12982093025E+02  0.11507644605E+03  0.18064218333E+03  0.12509000000E+03 0.  0.
         25    1    4    4    0    0  0.27929084432E+02  0.37449771981E+02  0.21804852824E+03  0.25568572104E+03  0.12509000000E+03 0.  0.
<mgrwt>
<rscale>  2 0.45215726E+03</rscale>
<asrwt>0</asrwt>
<pdfrwt beam="1">  1       21 0.10619383E+00 0.45215726E+03</pdfrwt>
<pdfrwt beam="2">  1       21 0.10408830E-01 0.45215726E+03</pdfrwt>
<totfact> 0.49198754E+04</totfact>
</mgrwt>
</event>
<event>
 7    0  0.4732500E-002  0.4570922E+03  0.7546771E-02  0.1025628E+00
         21   -1    0    0  502  501  0.00000000000E+00  0.00000000000E+00  0.30977174588E+03  0.30977174588E+03  0.00000000000E+00 0. -1.
         21   -1    0    0  501  502 -0.00000000000E+00 -0.00000000000E+00 -0.16861870062E+03  0.16861870062E+03  0.00000000000E+00 0. -1.
      99926    2    1    2    0    0  0.13877787808E-15  0.00000000000E+00  0.14115304525E+03  0.47839044650E+03  0.45709215386E+03 0.  0.
      99925    2    3    3    0    0 -0.17091454730E+00 -0.58041860547E+02 -0.14600619122E+02  0.27036256651E+03  0.26365479799E+03 0.  0.
         25    1    3    3    0    0  0.17091454730E+00  0.58041860547E+02  0.15575366438E+03  0.20802787999E+03  0.12509000000E+03 0.  0.
         25    1    4    4    0    0 -0.15265819792E+02 -0.30434837319E+02 -0.46085738518E+02  0.13758898201E+03  0.12509000000E+03 0.  0.
         25    1    4    4    0    0  0.15094905245E+02 -0.27607023229E+02  0.31485119396E+02  0.13277358449E+03  0.12509000000E+03 0.  0.
<mgrwt>
<rscale>  2 0.45709215E+03</rscale>
<asrwt>0</asrwt>
<pdfrwt beam="1">  1       21 0.45554669E-01 0.45709215E+03</pdfrwt>
<pdfrwt beam="2">  1       21 0.24796868E-01 0.45709215E+03</pdfrwt>
<totfact> 0.65719403E+04</totfact>
</mgrwt>
</event>
<event>
 7    0  0.4732500E-002  0.4583168E+03  0.7546771E-02  0.1025271E+00
         21   -1    0    0  502  501  0.00000000000E+00  0.00000000000E+00  0.31100692597E+02  0.31100692597E+02  0.00000000000E+00 0.  1.
         21   -1    0    0  501  502 -0.00000000000E+00 -0.00000000000E+00 -0.16885016903E+04  0.16885016903E+04  0.00000000000E+00 0.  1.
      99926    2    1    2    0    0  0.00000000000E+00  0.00000000000E+00 -0.16574009977E+04  0.17196023829E+04  0.45831679882E+03 0.  0.
      99925    2    3    3    0    0 -0.29270627824E+02 -0.66507436167E+02 -0.13799819604E+04  0.14067304617E+04  0.26317365390E+03 0.  0.
         25    1    3    3    0    0  0.29270627824E+02  0.66507436167E+02 -0.27741903729E+03  0.31287192119E+03  0.12509000000E+03 0.  0.
         25    1    4    4    0    0 -0.32406468210E+02 -0.69251503890E+02 -0.81109816677E+03  0.82424128398E+03  0.12509000000E+03 0.  0.
         25    1    4    4    0    0  0.31358403854E+01  0.27440677227E+01 -0.56888379364E+03  0.58248917773E+03  0.12509000000E+03 0.  0.
<mgrwt>
<rscale>  2 0.45831680E+03</rscale>
<asrwt>0</asrwt>
<pdfrwt beam="1">  1       21 0.45736312E-02 0.45831680E+03</pdfrwt>
<pdfrwt beam="2">  1       21 0.24830908E+00 0.45831680E+03</pdfrwt>
<totfact> 0.18378827E+04</totfact>
</mgrwt>
</event>
<event>
 7    0  0.4732500E-002  0.4485912E+03  0.7546771E-02  0.1028143E+00
         21   -1    0    0  502  501  0.00000000000E+00  0.00000000000E+00  0.80102576018E+03  0.80102576018E+03  0.00000000000E+00 0. -1.
         21   -1    0    0  501  502 -0.00000000000E+00 -0.00000000000E+00 -0.62805115932E+02  0.62805115932E+02  0.00000000000E+00 0. -1.
      99926    2    1    2    0    0 -0.14210854715E-13  0.00000000000E+00  0.73822064425E+03  0.86383087611E+03  0.44859119801E+03 0.  0.
      99925    2    3    3    0    0 -0.10623353648E+03 -0.23724979425E+01  0.48849949188E+03  0.56500089927E+03  0.26325476176E+03 0.  0.
         25    1    4    4    0    0 -0.48365406473E+02 -0.15248617727E+02  0.16532905652E+03  0.21343134240E+03  0.12509000000E+03 0.  0.
         25    1    4    4    0    0 -0.57868130008E+02  0.12876119784E+02  0.32317043536E+03  0.35156955688E+03  0.12509000000E+03 0.  0.
         25    1    3    3    0    0  0.10623353648E+03  0.23724979425E+01  0.24972115237E+03  0.29882997684E+03  0.12509000000E+03 0.  0.
<mgrwt>
<rscale>  2 0.44859120E+03</rscale>
<asrwt>0</asrwt>
<pdfrwt beam="1">  1       21 0.11779790E+00 0.44859120E+03</pdfrwt>
<pdfrwt beam="2">  1       21 0.92360469E-02 0.44859120E+03</pdfrwt>
<totfact> 0.47152560E+04</totfact>
</mgrwt>
</event>
<event>
 7    0  0.4732500E-002  0.4000578E+03  0.7546771E-02  0.1043760E+00
         21   -1    0    0  502  501  0.00000000000E+00  0.00000000000E+00  0.11106474009E+04  0.11106474009E+04  0.00000000000E+00 0. -1.
         21   -1    0    0  501  502 -0.00000000000E+00 -0.00000000000E+00 -0.36025434338E+02  0.36025434338E+02  0.00000000000E+00 0. -1.
      99926    2    1    2    0    0  0.00000000000E+00 -0.71054273576E-14  0.10746219666E+04  0.11466728352E+04  0.40005777090E+03 0.  0.
      99925    2    3    3    0    0 -0.30649258620E+01  0.45293513134E+02  0.72694158313E+03  0.77439598499E+03  0.26302885810E+03 0.  0.
         25    1    4    4    0    0  0.26475124124E+01 -0.69932907654E+01  0.26870197600E+03  0.29648638324E+03  0.12509000000E+03 0.  0.
         25    1    3    3    0    0  0.30649258620E+01 -0.45293513134E+02  0.34768038343E+03  0.37227685024E+03  0.12509000000E+03 0.  0.
         25    1    4    4    0    0 -0.57124382744E+01  0.52286803899E+02  0.45823960712E+03  0.47790960175E+03  0.12509000000E+03 0.  0.
<mgrwt>
<rscale>  2 0.40005777E+03</rscale>
<asrwt>0</asrwt>
<pdfrwt beam="1">  1       21 0.16333048E+00 0.40005777E+03</pdfrwt>
<pdfrwt beam="2">  1       21 0.52978587E-02 0.40005777E+03</pdfrwt>
<totfact> 0.53323064E+04</totfact>
</mgrwt>
</event>
<event>
 7    0  0.4732500E-002  0.4513969E+03  0.7546771E-02  0.1027306E+00
         21   -1    0    0  502  501  0.00000000000E+00  0.00000000000E+00  0.18306780879E+04  0.18306780879E+04  0.00000000000E+00 0. -1.
         21   -1    0    0  501  502 -0.00000000000E+00 -0.00000000000E+00 -0.27825637670E+02  0.27825637670E+02  0.00000000000E+00 0. -1.
      99926    2    1    2    0    0  0.00000000000E+00  0.00000000000E+00  0.18028524503E+04  0.18585037256E+04  0.45139687710E+03 0.  0.
      99925    2    3    3    0    0  0.10090911425E+03 -0.35296894273E+02  0.10311018040E+04  0.10694060839E+04  0.26273545995E+03 0.  0.
         25    1    4    4    0    0  0.92762124917E+02 -0.15892968627E+02  0.59238941762E+03  0.61272353348E+03  0.12509000000E+03 0.  0.
         25    1    3    3    0    0 -0.10090911425E+03  0.35296894273E+02  0.77175064625E+03  0.78909764172E+03  0.12509000000E+03 0.  0.
         25    1    4    4    0    0  0.81469893373E+01 -0.19403925646E+02  0.43871238638E+03  0.45668255039E+03  0.12509000000E+03 0.  0.
<mgrwt>
<rscale>  2 0.45139688E+03</rscale>
<asrwt>0</asrwt>
<pdfrwt beam="1">  1       21 0.26921728E+00 0.45139688E+03</pdfrwt>
<pdfrwt beam="2">  1       21 0.40920068E-02 0.45139688E+03</pdfrwt>
<totfact> 0.16620610E+04</totfact>
</mgrwt>
</event>
<event>
 7    0  0.4732500E-002  0.4548740E+03  0.7546771E-02  0.1026278E+00
         21   -1    0    0  502  501  0.00000000000E+00  0.00000000000E+00  0.69659778137E+02  0.69659778137E+02  0.00000000000E+00 0. -1.
         21   -1    0    0  501  502 -0.00000000000E+00 -0.00000000000E+00 -0.74257482963E+03  0.74257482963E+03  0.00000000000E+00 0. -1.
      99926    2    1    2    0    0  0.00000000000E+00  0.00000000000E+00 -0.67291505150E+03  0.81223460777E+03  0.45487403919E+03 0.  0.
      99925    2    3    3    0    0  0.10032679394E+03  0.38345288369E+02 -0.48644193712E+03  0.56332587508E+03  0.26301037362E+03 0.  0.
         25    1    3    3    0    0 -0.10032679394E+03 -0.38345288369E+02 -0.18647311438E+03  0.24890873269E+03  0.12509000000E+03 0.  0.
         25    1    4    4    0    0  0.10544233185E+02  0.57233257948E+00 -0.21166743190E+03  0.24609371842E+03  0.12509000000E+03 0.  0.
         25    1    4    4    0    0  0.89782560753E+02  0.37772955789E+02 -0.27477450521E+03  0.31723215666E+03  0.12509000000E+03 0.  0.
<mgrwt>
<rscale>  2 0.45487404E+03</rscale>
<asrwt>0</asrwt>
<pdfrwt beam="1">  1       21 0.10244085E-01 0.45487404E+03</pdfrwt>
<pdfrwt beam="2">  1       21 0.10920218E+00 0.45487404E+03</pdfrwt>
<totfact> 0.47225386E+04</totfact>
</mgrwt>
</event>
<event>
 7    0  0.4732500E-002  0.4458098E+03  0.7546771E-02  0.1028979E+00
         21   -1    0    0  502  501  0.00000000000E+00  0.00000000000E+00  0.76172459230E+03  0.76172459230E+03  0.00000000000E+00 0.  1.
         21   -1    0    0  501  502 -0.00000000000E+00 -0.00000000000E+00 -0.65229066656E+02  0.65229066656E+02  0.00000000000E+00 0.  1.
      99926    2    1    2    0    0  0.00000000000E+00  0.00000000000E+00  0.69649552564E+03  0.82695365895E+03  0.44580975406E+03 0.  0.
      99925    2    3    3    0    0 -0.20042401063E+02  0.10223670532E+03  0.44696536815E+03  0.52901599877E+03  0.26310804791E+03 0.  0.
         25    1    3    3    0    0  0.20042401063E+02 -0.10223670532E+03  0.24953015749E+03  0.29793766018E+03  0.12509000000E+03 0.  0.
         25    1    4    4    0    0 -0.39594472384E+02  0.22182731622E+02  0.20257525727E+03  0.24237169551E+03  0.12509000000E+03 0.  0.
         25    1    4    4    0    0  0.19552071321E+02  0.80053973703E+02  0.24439011088E+03  0.28664430327E+03  0.12509000000E+03 0.  0.
<mgrwt>
<rscale>  2 0.44580975E+03</rscale>
<asrwt>0</asrwt>
<pdfrwt beam="1">  1       21 0.11201832E+00 0.44580975E+03</pdfrwt>
<pdfrwt beam="2">  1       21 0.95925103E-02 0.44580975E+03</pdfrwt>
<totfact> 0.49997493E+04</totfact>
</mgrwt>
</event>
<event>
 7    0  0.4732500E-002  0.4575977E+03  0.7546771E-02  0.1025480E+00
         21   -1    0    0  502  501  0.00000000000E+00  0.00000000000E+00  0.99586721049E+02  0.99586721049E+02  0.00000000000E+00 0.  1.
         21   -1    0    0  501  502 -0.00000000000E+00 -0.00000000000E+00 -0.52566161520E+03  0.52566161520E+03  0.00000000000E+00 0.  1.
      99926    2    1    2    0    0  0.00000000000E+00  0.00000000000E+00 -0.42607489415E+03  0.62524833625E+03  0.45759771258E+03 0.  0.
      99925    2    3    3    0    0  0.48212407739E+02  0.10499473977E+03 -0.27088414940E+03  0.39485734902E+03  0.26303188408E+03 0.  0.
         25    1    3    3    0    0 -0.48212407739E+02 -0.10499473977E+03 -0.15519074475E+03  0.23039098723E+03  0.12509000000E+03 0.  0.
         25    1    4    4    0    0  0.39612236644E+02  0.73108006453E+02 -0.19030054944E+03  0.24243703743E+03  0.12509000000E+03 0.  0.
         25    1    4    4    0    0  0.86001710954E+01  0.31886733315E+02 -0.80583599964E+02  0.15242031160E+03  0.12509000000E+03 0.  0.
<mgrwt>
<rscale>  2 0.45759771E+03</rscale>
<asrwt>0</asrwt>
<pdfrwt beam="1">  1       21 0.14645106E-01 0.45759771E+03</pdfrwt>
<pdfrwt beam="2">  1       21 0.77303180E-01 0.45759771E+03</pdfrwt>
<totfact> 0.55993186E+04</totfact>
</mgrwt>
</event>
<event>
 7    0  0.4732500E-002  0.4502737E+03  0.7546771E-02  0.1027640E+00
         21   -1    0    0  502  501  0.00000000000E+00  0.00000000000E+00  0.14159188918E+03  0.14159188918E+03  0.00000000000E+00 0. -1.
         21   -1    0    0  501  502 -0.00000000000E+00 -0.00000000000E+00 -0.35797672510E+03  0.35797672510E+03  0.00000000000E+00 0. -1.
      99926    2    1    2    0    0  0.00000000000E+00  0.00000000000E+00 -0.21638483592E+03  0.49956861428E+03  0.45027369805E+03 0.  0.
      99925    2    3    3    0    0 -0.68128702654E+02  0.12586118307E+02 -0.43909373612E+02  0.27552570835E+03  0.26303317732E+03 0.  0.
         25    1    4    4    0    0 -0.50233084327E+02  0.28307474949E+02  0.80967451003E+01  0.13797732162E+03  0.12509000000E+03 0.  0.
         25    1    3    3    0    0  0.68128702654E+02 -0.12586118307E+02 -0.17247546231E+03  0.22404290593E+03  0.12509000000E+03 0.  0.
         25    1    4    4    0    0 -0.17895618327E+02 -0.15721356643E+02 -0.52006118713E+02  0.13754838674E+03  0.12509000000E+03 0.  0.
<mgrwt>
<rscale>  2 0.45027370E+03</rscale>
<asrwt>0</asrwt>
<pdfrwt beam="1">  1       21 0.20822337E-01 0.45027370E+03</pdfrwt>
<pdfrwt beam="2">  1       21 0.52643635E-01 0.45027370E+03</pdfrwt>
<totfact> 0.67809439E+04</totfact>
</mgrwt>
</event>
<event>
 7    0  0.4732500E-002  0.4068123E+03  0.7546771E-02  0.1041446E+00
         21   -1    0    0  502  501  0.00000000000E+00  0.00000000000E+00  0.24931657177E+03  0.24931657177E+03  0.00000000000E+00 0.  1.
         21   -1    0    0  501  502 -0.00000000000E+00 -0.00000000000E+00 -0.16594990148E+03  0.16594990148E+03  0.00000000000E+00 0.  1.
      99926    2    1    2    0    0  0.00000000000E+00  0.00000000000E+00  0.83366670298E+02  0.41526647325E+03  0.40681229344E+03 0.  0.
      99925    2    3    3    0    0 -0.28266013016E+01 -0.41420109013E+02  0.14826712909E+02  0.26671059500E+03  0.26304200228E+03 0.  0.
         25    1    3    3    0    0  0.28266013016E+01  0.41420109013E+02  0.68539957389E+02  0.14855587826E+03  0.12509000000E+03 0.  0.
         25    1    4    4    0    0 -0.28808522903E+01  0.14768107919E+02 -0.13411126207E+02  0.12670344402E+03  0.12509000000E+03 0.  0.
         25    1    4    4    0    0  0.54250988709E-01 -0.56188216932E+02  0.28237839116E+02  0.14000715097E+03  0.12509000000E+03 0.  0.
<mgrwt>
<rscale>  2 0.40681229E+03</rscale>
<asrwt>0</asrwt>
<pdfrwt beam="1">  1       21 0.36664202E-01 0.40681229E+03</pdfrwt>
<pdfrwt beam="2">  1       21 0.24404397E-01 0.40681229E+03</pdfrwt>
<totfact> 0.10719885E+05</totfact>
</mgrwt>
</event>
<event>
 7    0  0.4732500E-002  0.4527290E+03  0.7546771E-02  0.1026911E+00
         21   -1    0    0  502  501  0.00000000000E+00  0.00000000000E+00  0.29611948493E+03  0.29611948493E+03  0.00000000000E+00 0. -1.
         21   -1    0    0  501  502 -0.00000000000E+00 -0.00000000000E+00 -0.17304123309E+03  0.17304123309E+03  0.00000000000E+00 0. -1.
      99926    2    1    2    0    0  0.00000000000E+00  0.00000000000E+00  0.12307825184E+03  0.46916071801E+03  0.45272897329E+03 0.  0.
      99925    2    3    3    0    0 -0.75575249323E+02  0.81137867522E+02  0.84415897816E+02  0.29758782512E+03  0.26294010345E+03 0.  0.
         25    1    4    4    0    0 -0.46916975711E+02  0.47949425850E+02  0.28940928036E+01  0.14197265202E+03  0.12509000000E+03 0.  0.
         25    1    4    4    0    0 -0.28658273611E+02  0.33188441672E+02  0.81521805012E+02  0.15561517310E+03  0.12509000000E+03 0.  0.
         25    1    3    3    0    0  0.75575249323E+02 -0.81137867522E+02  0.38662354022E+02  0.17157289289E+03  0.12509000000E+03 0.  0.
<mgrwt>
<rscale>  2 0.45272897E+03</rscale>
<asrwt>0</asrwt>
<pdfrwt beam="1">  1       21 0.43546983E-01 0.45272897E+03</pdfrwt>
<pdfrwt beam="2">  1       21 0.25447240E-01 0.45272897E+03</pdfrwt>
<totfact> 0.68728117E+04</totfact>
</mgrwt>
</event>
<event>
 7    0  0.4732500E-002  0.4542357E+03  0.7546771E-02  0.1026466E+00
         21   -1    0    0  502  501  0.00000000000E+00  0.00000000000E+00  0.78915850060E+02  0.78915850060E+02  0.00000000000E+00 0.  1.
         21   -1    0    0  501  502 -0.00000000000E+00 -0.00000000000E+00 -0.65363949424E+03  0.65363949424E+03  0.00000000000E+00 0.  1.
      99926    2    1    2    0    0  0.71054273576E-14  0.00000000000E+00 -0.57472364418E+03  0.73255534430E+03  0.45423569354E+03 0.  0.
      99925    2    3    3    0    0 -0.54169890771E+02 -0.96367964841E+02 -0.32904634672E+03  0.43552671891E+03  0.26304156113E+03 0.  0.
         25    1    4    4    0    0  0.10313404574E+02 -0.64131920916E+02 -0.16317872333E+03  0.21562484421E+03  0.12509000000E+03 0.  0.
         25    1    3    3    0    0  0.54169890771E+02  0.96367964841E+02 -0.24567729746E+03  0.29702862539E+03  0.12509000000E+03 0.  0.
         25    1    4    4    0    0 -0.64483295345E+02 -0.32236043925E+02 -0.16586762339E+03  0.21990187470E+03  0.12509000000E+03 0.  0.
<mgrwt>
<rscale>  2 0.45423569E+03</rscale>
<asrwt>0</asrwt>
<pdfrwt beam="1">  1       21 0.11605272E-01 0.45423569E+03</pdfrwt>
<pdfrwt beam="2">  1       21 0.96123457E-01 0.45423569E+03</pdfrwt>
<totfact> 0.51479509E+04</totfact>
</mgrwt>
</event>
<event>
 7    0  0.4732500E-002  0.4023592E+03  0.7546771E-02  0.1042966E+00
         21   -1    0    0  502  501  0.00000000000E+00  0.00000000000E+00  0.58847084100E+03  0.58847084100E+03  0.00000000000E+00 0.  1.
         21   -1    0    0  501  502 -0.00000000000E+00 -0.00000000000E+00 -0.68776969167E+02  0.68776969167E+02  0.00000000000E+00 0.  1.
      99926    2    1    2    0    0  0.00000000000E+00  0.00000000000E+00  0.51969387184E+03  0.65724781017E+03  0.40235924688E+03 0.  0.
      99925    2    3    3    0    0  0.32800730697E+02 -0.11355128087E+02  0.40495041020E+03  0.48398963011E+03  0.26278565499E+03 0.  0.
         25    1    4    4    0    0  0.41949630821E+02 -0.47036432633E+01  0.26418479811E+03  0.29533542192E+03  0.12509000000E+03 0.  0.
         25    1    3    3    0    0 -0.32800730697E+02  0.11355128087E+02  0.11474346164E+03  0.17325818006E+03  0.12509000000E+03 0.  0.
         25    1    4    4    0    0 -0.91489001231E+01 -0.66514848235E+01  0.14076561209E+03  0.18865420819E+03  0.12509000000E+03 0.  0.
<mgrwt>
<rscale>  2 0.40235925E+03</rscale>
<asrwt>0</asrwt>
<pdfrwt beam="1">  1       21 0.86539827E-01 0.40235925E+03</pdfrwt>
<pdfrwt beam="2">  1       21 0.10114261E-01 0.40235925E+03</pdfrwt>
<totfact> 0.85666722E+04</totfact>
</mgrwt>
</event>
<event>
 7    0  0.4732500E-002  0.4548507E+03  0.7546771E-02  0.1026285E+00
         21   -1    0    0  502  501  0.00000000000E+00  0.00000000000E+00  0.13477119555E+04  0.13477119555E+04  0.00000000000E+00 0.  1.
         21   -1    0    0  501  502 -0.00000000000E+00 -0.00000000000E+00 -0.38377850893E+02  0.38377850893E+02  0.00000000000E+00 0.  1.
      99926    2    1    2    0    0  0.00000000000E+00  0.00000000000E+00  0.13093341046E+04  0.13860898064E+04  0.45485069407E+03 0.  0.
      99925    2    3    3    0    0  0.55048340557E+02 -0.97811982241E+02  0.86158398474E+03  0.90783759091E+03  0.26314373458E+03 0.  0.
         25    1    4    4    0    0  0.29567476507E+02 -0.13543699675E+02  0.32142556448E+03  0.34643840588E+03  0.12509000000E+03 0.  0.
         25    1    4    4    0    0  0.25480864051E+02 -0.84268282565E+02  0.54015842025E+03  0.56139918503E+03  0.12509000000E+03 0.  0.
         25    1    3    3    0    0 -0.55048340557E+02  0.97811982241E+02  0.44775011986E+03  0.47825221547E+03  0.12509000000E+03 0.  0.
<mgrwt>
<rscale>  2 0.45485069E+03</rscale>
<asrwt>0</asrwt>
<pdfrwt beam="1">  1       21 0.19819290E+00 0.45485069E+03</pdfrwt>
<pdfrwt beam="2">  1       21 0.56438025E-02 0.45485069E+03</pdfrwt>
<totfact> 0.26736068E+04</totfact>
</mgrwt>
</event>
<event>
 7    0  0.4732500E-002  0.4565817E+03  0.7546771E-02  0.1025777E+00
         21   -1    0    0  502  501  0.00000000000E+00  0.00000000000E+00  0.42772193579E+03  0.42772193579E+03  0.00000000000E+00 0.  1.
         21   -1    0    0  501  502 -0.00000000000E+00 -0.00000000000E+00 -0.12184719878E+03  0.12184719878E+03  0.00000000000E+00 0.  1.
      99926    2    1    2    0    0  0.00000000000E+00  0.00000000000E+00  0.30587473701E+03  0.54956913457E+03  0.45658173302E+03 0.  0.
      99925    2    3    3    0    0  0.15869504252E+01  0.11437766909E+03  0.20178960134E+03  0.35065711088E+03  0.26297641835E+03 0.  0.
         25    1    3    3    0    0 -0.15869504252E+01 -0.11437766909E+03  0.10408513567E+03  0.19891202369E+03  0.12509000000E+03 0.  0.
         25    1    4    4    0    0 -0.48244485556E+01  0.21380831767E+02  0.62601834310E+02  0.14158712170E+03  0.12509000000E+03 0.  0.
         25    1    4    4    0    0  0.64113989808E+01  0.92996837324E+02  0.13918776703E+03  0.20906998919E+03  0.12509000000E+03 0.  0.
<mgrwt>
<rscale>  2 0.45658173E+03</rscale>
<asrwt>0</asrwt>
<pdfrwt beam="1">  1       21 0.62900284E-01 0.45658173E+03</pdfrwt>
<pdfrwt beam="2">  1       21 0.17918706E-01 0.45658173E+03</pdfrwt>
<totfact> 0.61126415E+04</totfact>
</mgrwt>
</event>
<event>
 7    0  0.4732500E-002  0.4488600E+03  0.7546771E-02  0.1028063E+00
         21   -1    0    0  502  501  0.00000000000E+00  0.00000000000E+00  0.16143944135E+03  0.16143944135E+03  0.00000000000E+00 0.  1.
         21   -1    0    0  501  502 -0.00000000000E+00 -0.00000000000E+00 -0.31199832944E+03  0.31199832944E+03  0.00000000000E+00 0.  1.
      99926    2    1    2    0    0 -0.14210854715E-13 -0.71054273576E-14 -0.15055888809E+03  0.47343777079E+03  0.44886004949E+03 0.  0.
      99925    2    3    3    0    0  0.89114615958E+02  0.44270425082E+02 -0.53129466350E+02  0.28624459347E+03  0.26308162570E+03 0.  0.
         25    1    4    4    0    0  0.50580185526E+02  0.44205817187E+02  0.70954903688E+01  0.14216315811E+03  0.12509000000E+03 0.  0.
         25    1    4    4    0    0  0.38534430432E+02  0.64607894307E-01 -0.60224956719E+02  0.14408143536E+03  0.12509000000E+03 0.  0.
         25    1    3    3    0    0 -0.89114615958E+02 -0.44270425082E+02 -0.97429421743E+02  0.18719317732E+03  0.12509000000E+03 0.  0.
<mgrwt>
<rscale>  2 0.44886005E+03</rscale>
<asrwt>0</asrwt>
<pdfrwt beam="1">  1       21 0.23741095E-01 0.44886005E+03</pdfrwt>
<pdfrwt beam="2">  1       21 0.45882107E-01 0.44886005E+03</pdfrwt>
<totfact> 0.70557035E+04</totfact>
</mgrwt>
</event>
<event>
 7    0  0.4732500E-002  0.4618113E+03  0.7546771E-02  0.1024257E+00
         21   -1    0    0  502  501  0.00000000000E+00  0.00000000000E+00  0.17341375778E+03  0.17341375778E+03  0.00000000000E+00 0.  1.
         21   -1    0    0  501  502 -0.00000000000E+00 -0.00000000000E+00 -0.30745778888E+03  0.30745778888E+03  0.00000000000E+00 0.  1.
      99926    2    1    2    0    0  0.00000000000E+00  0.00000000000E+00 -0.13404403110E+03  0.48087154666E+03  0.46181126244E+03 0.  0.
      99925    2    3    3    0    0 -0.10916307623E+03  0.43384012437E+02 -0.10643871467E+03  0.30706616314E+03  0.26298608103E+03 0.  0.
         25    1    3    3    0    0  0.10916307623E+03 -0.43384012437E+02 -0.27605316428E+02  0.17380538353E+03  0.12509000000E+03 0.  0.
         25    1    4    4    0    0 -0.11698988829E+02  0.27904911937E+02 -0.47550031998E+02  0.13720081666E+03  0.12509000000E+03 0.  0.
         25    1    4    4    0    0 -0.97464087405E+02  0.15479100500E+02 -0.58888682671E+02  0.16986534647E+03  0.12509000000E+03 0.  0.
<mgrwt>
<rscale>  2 0.46181126E+03</rscale>
<asrwt>0</asrwt>
<pdfrwt beam="1">  1       21 0.25502023E-01 0.46181126E+03</pdfrwt>
<pdfrwt beam="2">  1       21 0.45214380E-01 0.46181126E+03</pdfrwt>
<totfact> 0.63153141E+04</totfact>
</mgrwt>
</event>
<event>
 7    0  0.4732500E-002  0.4400259E+03  0.7546771E-02  0.1030739E+00
         21   -1    0    0  502  501  0.00000000000E+00  0.00000000000E+00  0.11945146911E+04  0.11945146911E+04  0.00000000000E+00 0. -1.
         21   -1    0    0  501  502 -0.00000000000E+00 -0.00000000000E+00 -0.40523312715E+02  0.40523312715E+02  0.00000000000E+00 0. -1.
      99926    2    1    2    0    0  0.00000000000E+00 -0.35527136788E-14  0.11539913784E+04  0.12350380038E+04  0.44002587365E+03 0.  0.
      99925    2    3    3    0    0 -0.39874335591E+02 -0.16815435945E+02  0.98475508545E+03  0.10201865377E+04  0.26299291237E+03 0.  0.
         25    1    3    3    0    0  0.39874335591E+02  0.16815435945E+02  0.16923629293E+03  0.21485146606E+03  0.12509000000E+03 0.  0.
         25    1    4    4    0    0 -0.38068025869E+02  0.27199500318E+02  0.46773976130E+03  0.48643291399E+03  0.12509000000E+03 0.  0.
         25    1    4    4    0    0 -0.18063097224E+01 -0.44014936263E+02  0.51701532415E+03  0.53375362376E+03  0.12509000000E+03 0.  0.
<mgrwt>
<rscale>  2 0.44002587E+03</rscale>
<asrwt>0</asrwt>
<pdfrwt beam="1">  1       21 0.17566390E+00 0.44002587E+03</pdfrwt>
<pdfrwt beam="2">  1       21 0.59593115E-02 0.44002587E+03</pdfrwt>
<totfact> 0.34961897E+04</totfact>
</mgrwt>
</event>
<event>
 7    0  0.4732500E-002  0.4554889E+03  0.7546771E-02  0.1026098E+00
         21   -1    0    0  502  501  0.00000000000E+00  0.00000000000E+00  0.50007501462E+03  0.50007501462E+03  0.00000000000E+00 0.  1.
         21   -1    0    0  501  502 -0.00000000000E+00 -0.00000000000E+00 -0.10371952779E+03  0.10371952779E+03  0.00000000000E+00 0.  1.
      99926    2    1    2    0    0 -0.71054273576E-14 -0.71054273576E-14  0.39635548683E+03  0.60379454241E+03  0.45548894334E+03 0.  0.
      99925    2    3    3    0    0  0.48103984550E+02  0.40495536897E+02  0.37485851012E+03  0.46214882258E+03  0.26288543087E+03 0.  0.
         25    1    4    4    0    0  0.31557962010E+01 -0.15451116479E+02  0.17329764397E+03  0.21430883686E+03  0.12509000000E+03 0.  0.
         25    1    4    4    0    0  0.44948188349E+02  0.55946653375E+02  0.20156086615E+03  0.24783998573E+03  0.12509000000E+03 0.  0.
         25    1    3    3    0    0 -0.48103984550E+02 -0.40495536897E+02  0.21496976710E+02  0.14164571983E+03  0.12509000000E+03 0.  0.
<mgrwt>
<rscale>  2 0.45548894E+03</rscale>
<asrwt>0</asrwt>
<pdfrwt beam="1">  1       21 0.73540443E-01 0.45548894E+03</pdfrwt>
<pdfrwt beam="2">  1       21 0.15252872E-01 0.45548894E+03</pdfrwt>
<totfact> 0.58220089E+04</totfact>
</mgrwt>
</event>
<event>
 7    0  0.4732500E-002  0.4557551E+03  0.7546771E-02  0.1026020E+00
         21   -1    0    0  502  501  0.00000000000E+00  0.00000000000E+00  0.88102420204E+02  0.88102420204E+02  0.00000000000E+00 0. -1.
         21   -1    0    0  501  502 -0.00000000000E+00 -0.00000000000E+00 -0.58940691788E+03  0.58940691788E+03  0.00000000000E+00 0. -1.
      99926    2    1    2    0    0  0.00000000000E+00  0.00000000000E+00 -0.50130449768E+03  0.67750933809E+03  0.45575509191E+03 0.  0.
      99925    2    3    3    0    0  0.43297963409E+02 -0.10281619856E+02 -0.47094518590E+03  0.54131234380E+03  0.26315254147E+03 0.  0.
         25    1    4    4    0    0  0.30340049689E+02 -0.44234946660E+02 -0.25751758070E+03  0.29127317348E+03  0.12509000000E+03 0.  0.
         25    1    3    3    0    0 -0.43297963409E+02  0.10281619856E+02 -0.30359311776E+02  0.13619699429E+03  0.12509000000E+03 0.  0.
         25    1    4    4    0    0  0.12957913720E+02  0.33953326804E+02 -0.21342760521E+03  0.25003917032E+03  0.12509000000E+03 0.  0.
<mgrwt>
<rscale>  2 0.45575509E+03</rscale>
<asrwt>0</asrwt>
<pdfrwt beam="1">  1       21 0.12956238E-01 0.45575509E+03</pdfrwt>
<pdfrwt beam="2">  1       21 0.86677489E-01 0.45575509E+03</pdfrwt>
<totfact> 0.53820741E+04</totfact>
</mgrwt>
</event>
<event>
 7    0  0.4732500E-002  0.4576681E+03  0.7546771E-02  0.1025460E+00
         21   -1    0    0  502  501  0.00000000000E+00  0.00000000000E+00  0.13897847911E+03  0.13897847911E+03  0.00000000000E+00 0.  1.
         21   -1    0    0  501  502 -0.00000000000E+00 -0.00000000000E+00 -0.37678514382E+03  0.37678514382E+03  0.00000000000E+00 0.  1.
      99926    2    1    2    0    0  0.00000000000E+00  0.00000000000E+00 -0.23780666470E+03  0.51576362293E+03  0.45766811661E+03 0.  0.
      99925    2    3    3    0    0 -0.32041054769E+02 -0.10390508637E+03 -0.10460010017E+03  0.30312685965E+03  0.26291028112E+03 0.  0.
         25    1    4    4    0    0  0.48506735496E+01 -0.80454722225E+02 -0.77862043874E+02  0.16794790067E+03  0.12509000000E+03 0.  0.
         25    1    4    4    0    0 -0.36891728318E+02 -0.23450364143E+02 -0.26738056297E+02  0.13517895898E+03  0.12509000000E+03 0.  0.
         25    1    3    3    0    0  0.32041054769E+02  0.10390508637E+03 -0.13320656453E+03  0.21263676328E+03  0.12509000000E+03 0.  0.
<mgrwt>
<rscale>  2 0.45766812E+03</rscale>
<asrwt>0</asrwt>
<pdfrwt beam="1">  1       21 0.20438012E-01 0.45766812E+03</pdfrwt>
<pdfrwt beam="2">  1       21 0.55409580E-01 0.45766812E+03</pdfrwt>
<totfact> 0.62835863E+04</totfact>
</mgrwt>
</event>
<event>
 7    0  0.4732500E-002  0.4539353E+03  0.7546771E-02  0.1026555E+00
         21   -1    0    0  502  501  0.00000000000E+00  0.00000000000E+00  0.24553976791E+03  0.24553976791E+03  0.00000000000E+00 0.  1.
         21   -1    0    0  501  502 -0.00000000000E+00 -0.00000000000E+00 -0.20980027435E+03  0.20980027435E+03  0.00000000000E+00 0.  1.
      99926    2    1    2    0    0  0.00000000000E+00  0.71054273576E-14  0.35739493562E+02  0.45534004226E+03  0.45393528469E+03 0.  0.
      99925    2    3    3    0    0 -0.27959714912E+02 -0.55236746932E+02  0.11637812198E+03  0.29414779566E+03  0.26295667808E+03 0.  0.
         25    1    3    3    0    0  0.27959714912E+02  0.55236746932E+02 -0.80638628422E+02  0.16119224660E+03  0.12509000000E+03 0.  0.
         25    1    4    4    0    0 -0.49374085974E+02 -0.15265535735E+02  0.41987548530E+02  0.14170850108E+03  0.12509000000E+03 0.  0.
         25    1    4    4    0    0  0.21414371062E+02 -0.39971211197E+02  0.74390573454E+02  0.15243929458E+03  0.12509000000E+03 0.  0.
<mgrwt>
<rscale>  2 0.45393528E+03</rscale>
<asrwt>0</asrwt>
<pdfrwt beam="1">  1       21 0.36108789E-01 0.45393528E+03</pdfrwt>
<pdfrwt beam="2">  1       21 0.30852981E-01 0.45393528E+03</pdfrwt>
<totfact> 0.69106119E+04</totfact>
</mgrwt>
</event>
<event>
 7    0  0.4732500E-002  0.4591838E+03  0.7546771E-02  0.1025018E+00
         21   -1    0    0  502  501  0.00000000000E+00  0.00000000000E+00  0.62300156724E+02  0.62300156724E+02  0.00000000000E+00 0.  1.
         21   -1    0    0  501  502 -0.00000000000E+00 -0.00000000000E+00 -0.84610446244E+03  0.84610446244E+03  0.00000000000E+00 0.  1.
      99926    2    1    2    0    0  0.00000000000E+00  0.44408920985E-14 -0.78380430572E+03  0.90840461917E+03  0.45918380030E+03 0.  0.
      99925    2    3    3    0    0 -0.94663693581E+02 -0.33770032323E+01 -0.35515294738E+03  0.45193762788E+03  0.26294749366E+03 0.  0.
         25    1    4    4    0    0 -0.29650071819E+02  0.32002668308E+02 -0.14487216176E+03  0.19631288518E+03  0.12509000000E+03 0.  0.
         25    1    3    3    0    0  0.94663693581E+02  0.33770032323E+01 -0.42865135834E+03  0.45646699129E+03  0.12509000000E+03 0.  0.
         25    1    4    4    0    0 -0.65013621762E+02 -0.35379671541E+02 -0.21028078562E+03  0.25562474269E+03  0.12509000000E+03 0.  0.
<mgrwt>
<rscale>  2 0.45918380E+03</rscale>
<asrwt>0</asrwt>
<pdfrwt beam="1">  1       21 0.91617880E-02 0.45918380E+03</pdfrwt>
<pdfrwt beam="2">  1       21 0.12442712E+00 0.45918380E+03</pdfrwt>
<totfact> 0.41496403E+04</totfact>
</mgrwt>
</event>
<event>
 7    0  0.4732500E-002  0.4498917E+03  0.7546771E-02  0.1027754E+00
         21   -1    0    0  502  501  0.00000000000E+00  0.00000000000E+00  0.25190944479E+03  0.25190944479E+03  0.00000000000E+00 0.  1.
         21   -1    0    0  501  502 -0.00000000000E+00 -0.00000000000E+00 -0.20086838109E+03  0.20086838109E+03  0.00000000000E+00 0.  1.
      99926    2    1    2    0    0  0.00000000000E+00  0.00000000000E+00  0.51041063695E+02  0.45277782588E+03  0.44989173079E+03 0.  0.
      99925    2    3    3    0    0 -0.37273085548E+02 -0.71451974044E+02  0.10509519175E+03  0.29446160953E+03  0.26299804687E+03 0.  0.
         25    1    4    4    0    0 -0.12491399610E+02 -0.66251139047E+01  0.80187503116E+02  0.14925639335E+03  0.12509000000E+03 0.  0.
         25    1    4    4    0    0 -0.24781685939E+02 -0.64826860140E+02  0.24907688638E+02  0.14520521618E+03  0.12509000000E+03 0.  0.
         25    1    3    3    0    0  0.37273085548E+02  0.71451974044E+02 -0.54054128059E+02  0.15831621636E+03  0.12509000000E+03 0.  0.
<mgrwt>
<rscale>  2 0.44989173E+03</rscale>
<asrwt>0</asrwt>
<pdfrwt beam="1">  1       21 0.37045507E-01 0.44989173E+03</pdfrwt>
<pdfrwt beam="2">  1       21 0.29539468E-01 0.44989173E+03</pdfrwt>
<totfact> 0.71582036E+04</totfact>
</mgrwt>
</event>
<event>
 7    0  0.4732500E-002  0.4562925E+03  0.7546771E-02  0.1025862E+00
         21   -1    0    0  502  501  0.00000000000E+00  0.00000000000E+00  0.80472374167E+02  0.80472374167E+02  0.00000000000E+00 0. -1.
         21   -1    0    0  501  502 -0.00000000000E+00 -0.00000000000E+00 -0.64681477263E+03  0.64681477263E+03  0.00000000000E+00 0. -1.
      99926    2    1    2    0    0  0.00000000000E+00  0.71054273576E-14 -0.56634239846E+03  0.72728714680E+03  0.45629253949E+03 0.  0.
      99925    2    3    3    0    0 -0.22427300698E+02 -0.62388400532E+02 -0.20767034189E+03  0.34168573522E+03  0.26311000441E+03 0.  0.
         25    1    3    3    0    0  0.22427300698E+02  0.62388400532E+02 -0.35867205658E+03  0.38560141157E+03  0.12509000000E+03 0.  0.
         25    1    4    4    0    0  0.20661932445E+02 -0.41503413229E+02 -0.74452682147E+02  0.15277486292E+03  0.12509000000E+03 0.  0.
         25    1    4    4    0    0 -0.43089233143E+02 -0.20884987303E+02 -0.13321765974E+03  0.18891087230E+03  0.12509000000E+03 0.  0.
<mgrwt>
<rscale>  2 0.45629254E+03</rscale>
<asrwt>0</asrwt>
<pdfrwt beam="1">  1       21 0.11834173E-01 0.45629254E+03</pdfrwt>
<pdfrwt beam="2">  1       21 0.95119817E-01 0.45629254E+03</pdfrwt>
<totfact> 0.50926768E+04</totfact>
</mgrwt>
</event>
<event>
 7    0  0.4732500E-002  0.4454871E+03  0.7546771E-02  0.1029076E+00
         21   -1    0    0  502  501  0.00000000000E+00  0.00000000000E+00  0.74937255827E+03  0.74937255827E+03  0.00000000000E+00 0.  1.
         21   -1    0    0  501  502 -0.00000000000E+00 -0.00000000000E+00 -0.66208311459E+02  0.66208311459E+02  0.00000000000E+00 0.  1.
      99926    2    1    2    0    0  0.00000000000E+00  0.00000000000E+00  0.68316424681E+03  0.81558086973E+03  0.44548711199E+03 0.  0.
      99925    2    3    3    0    0 -0.91132033510E+02 -0.32514525095E+02  0.50384222766E+03  0.57648646049E+03  0.26290189594E+03 0.  0.
         25    1    4    4    0    0 -0.42282928694E+02 -0.53032418842E+02  0.22331075304E+03  0.26479328547E+03  0.12509000000E+03 0.  0.
         25    1    4    4    0    0 -0.48849104816E+02  0.20517893747E+02  0.28053147461E+03  0.31169317502E+03  0.12509000000E+03 0.  0.
         25    1    3    3    0    0  0.91132033510E+02  0.32514525095E+02  0.17932201915E+03  0.23909440923E+03  0.12509000000E+03 0.  0.
<mgrwt>
<rscale>  2 0.44548711E+03</rscale>
<asrwt>0</asrwt>
<pdfrwt beam="1">  1       21 0.11020184E+00 0.44548711E+03</pdfrwt>
<pdfrwt beam="2">  1       21 0.97365168E-02 0.44548711E+03</pdfrwt>
<totfact> 0.50700405E+04</totfact>
</mgrwt>
</event>
<event>
 7    0  0.4732500E-002  0.4575157E+03  0.7546771E-02  0.1025504E+00
         21   -1    0    0  502  501  0.00000000000E+00  0.00000000000E+00  0.38377861716E+03  0.38377861716E+03  0.00000000000E+00 0. -1.
         21   -1    0    0  501  502 -0.00000000000E+00 -0.00000000000E+00 -0.13635502652E+03  0.13635502652E+03  0.00000000000E+00 0. -1.
      99926    2    1    2    0    0  0.00000000000E+00  0.14210854715E-13  0.24742359065E+03  0.52013364368E+03  0.45751565446E+03 0.  0.
      99925    2    3    3    0    0 -0.14052055256E+02  0.10793593767E+03  0.11175516401E+03  0.30588832405E+03  0.26311750837E+03 0.  0.
         25    1    4    4    0    0  0.25518066154E+02  0.59383461456E+02  0.81744453344E+02  0.16281041412E+03  0.12509000000E+03 0.  0.
         25    1    3    3    0    0  0.14052055256E+02 -0.10793593767E+03  0.13566842664E+03  0.21424531963E+03  0.12509000000E+03 0.  0.
         25    1    4    4    0    0 -0.39570121410E+02  0.48552476211E+02  0.30010710670E+02  0.14307790993E+03  0.12509000000E+03 0.  0.
<mgrwt>
<rscale>  2 0.45751565E+03</rscale>
<asrwt>0</asrwt>
<pdfrwt beam="1">  1       21 0.56438032E-01 0.45751565E+03</pdfrwt>
<pdfrwt beam="2">  1       21 0.20052210E-01 0.45751565E+03</pdfrwt>
<totfact> 0.62618954E+04</totfact>
</mgrwt>
</event>
<event>
 7    0  0.4732500E-002  0.4577437E+03  0.7546771E-02  0.1025438E+00
         21   -1    0    0  502  501  0.00000000000E+00  0.00000000000E+00  0.62670088605E+03  0.62670088605E+03  0.00000000000E+00 0.  1.
         21   -1    0    0  501  502 -0.00000000000E+00 -0.00000000000E+00 -0.83584268455E+02  0.83584268455E+02  0.00000000000E+00 0.  1.
      99926    2    1    2    0    0  0.00000000000E+00  0.00000000000E+00  0.54311661760E+03  0.71028515451E+03  0.45774374972E+03 0.  0.
      99925    2    3    3    0    0 -0.47343888566E+02  0.10516042575E+03  0.33091208361E+03  0.43829539133E+03  0.26324871140E+03 0.  0.
         25    1    3    3    0    0  0.47343888566E+02 -0.10516042575E+03  0.21220453399E+03  0.27198976318E+03  0.12509000000E+03 0.  0.
         25    1    4    4    0    0 -0.59284383652E+02  0.62900341936E+02  0.20689419486E+03  0.25675631857E+03  0.12509000000E+03 0.  0.
         25    1    4    4    0    0  0.11940495086E+02  0.42260083816E+02  0.12401788875E+03  0.18153907276E+03  0.12509000000E+03 0.  0.
<mgrwt>
<rscale>  2 0.45774375E+03</rscale>
<asrwt>0</asrwt>
<pdfrwt beam="1">  1       21 0.92161892E-01 0.45774375E+03</pdfrwt>
<pdfrwt beam="2">  1       21 0.12291805E-01 0.45774375E+03</pdfrwt>
<totfact> 0.51233153E+04</totfact>
</mgrwt>
</event>
<event>
 7    0  0.4732500E-002  0.4420046E+03  0.7546771E-02  0.1030134E+00
         21   -1    0    0  502  501  0.00000000000E+00  0.00000000000E+00  0.36798464285E+03  0.36798464285E+03  0.00000000000E+00 0.  1.
         21   -1    0    0  501  502 -0.00000000000E+00 -0.00000000000E+00 -0.13272839637E+03  0.13272839637E+03  0.00000000000E+00 0.  1.
      99926    2    1    2    0    0  0.00000000000E+00  0.00000000000E+00  0.23525624648E+03  0.50071303922E+03  0.44200457705E+03 0.  0.
      99925    2    3    3    0    0 -0.46696354525E+02  0.41952341130E+02  0.60324730672E+02  0.27668381841E+03  0.26262961331E+03 0.  0.
         25    1    4    4    0    0 -0.21719541118E+02  0.34387836570E+02 -0.80032093006E+01  0.13177944160E+03  0.12509000000E+03 0.  0.
         25    1    3    3    0    0  0.46696354525E+02 -0.41952341130E+02  0.17493151581E+03  0.22402922081E+03  0.12509000000E+03 0.  0.
         25    1    4    4    0    0 -0.24976813408E+02  0.75645045600E+01  0.68327939973E+02  0.14490437681E+03  0.12509000000E+03 0.  0.
<mgrwt>
<rscale>  2 0.44200458E+03</rscale>
<asrwt>0</asrwt>
<pdfrwt beam="1">  1       21 0.54115389E-01 0.44200458E+03</pdfrwt>
<pdfrwt beam="2">  1       21 0.19518882E-01 0.44200458E+03</pdfrwt>
<totfact> 0.72405178E+04</totfact>
</mgrwt>
</event>
<event>
 7    0  0.4732500E-002  0.4387982E+03  0.7546771E-02  0.1031116E+00
         21   -1    0    0  502  501  0.00000000000E+00  0.00000000000E+00  0.59510740312E+02  0.59510740312E+02  0.00000000000E+00 0.  1.
         21   -1    0    0  501  502 -0.00000000000E+00 -0.00000000000E+00 -0.80886190881E+03  0.80886190881E+03  0.00000000000E+00 0.  1.
      99926    2    1    2    0    0  0.35527136788E-14  0.00000000000E+00 -0.74935116850E+03  0.86837264912E+03  0.43879822700E+03 0.  0.
      99925    2    3    3    0    0 -0.29402962451E+02  0.82655126883E+02 -0.39607246167E+03  0.48347037971E+03  0.26300914236E+03 0.  0.
         25    1    4    4    0    0  0.89193717425E+01  0.23617420260E+02 -0.13652795970E+03  0.18688159249E+03  0.12509000000E+03 0.  0.
         25    1    3    3    0    0  0.29402962451E+02 -0.82655126883E+02 -0.35327870683E+03  0.38490226941E+03  0.12509000000E+03 0.  0.
         25    1    4    4    0    0 -0.38322334193E+02  0.59037706623E+02 -0.25954450197E+03  0.29658878722E+03  0.12509000000E+03 0.  0.
<mgrwt>
<rscale>  2 0.43879823E+03</rscale>
<asrwt>0</asrwt>
<pdfrwt beam="1">  1       21 0.87515799E-02 0.43879823E+03</pdfrwt>
<pdfrwt beam="2">  1       21 0.11895028E+00 0.43879823E+03</pdfrwt>
<totfact> 0.50772147E+04</totfact>
</mgrwt>
</event>
<event>
 7    0  0.4732500E-002  0.4552736E+03  0.7546771E-02  0.1026161E+00
         21   -1    0    0  502  501  0.00000000000E+00  0.00000000000E+00  0.24157145464E+03  0.24157145464E+03  0.00000000000E+00 0. -1.
         21   -1    0    0  501  502 -0.00000000000E+00 -0.00000000000E+00 -0.21450594738E+03  0.21450594738E+03  0.00000000000E+00 0. -1.
      99926    2    1    2    0    0  0.00000000000E+00  0.00000000000E+00  0.27065507255E+02  0.45607740202E+03  0.45527360450E+03 0.  0.
      99925    2    3    3    0    0  0.65865585289E+02  0.40807795139E+02  0.99888583205E+02  0.29189987627E+03  0.26310503082E+03 0.  0.
         25    1    3    3    0    0 -0.65865585289E+02 -0.40807795139E+02 -0.72823075950E+02  0.16417752575E+03  0.12509000000E+03 0.  0.
         25    1    4    4    0    0  0.70395211688E+02  0.24633568928E+02  0.34120070422E+02  0.14957936306E+03  0.12509000000E+03 0.  0.
         25    1    4    4    0    0 -0.45296263993E+01  0.16174226211E+02  0.65768512783E+02  0.14232051322E+03  0.12509000000E+03 0.  0.
<mgrwt>
<rscale>  2 0.45527360E+03</rscale>
<asrwt>0</asrwt>
<pdfrwt beam="1">  1       21 0.35525214E-01 0.45527360E+03</pdfrwt>
<pdfrwt beam="2">  1       21 0.31544992E-01 0.45527360E+03</pdfrwt>
<totfact> 0.68317706E+04</totfact>
</mgrwt>
</event>
<event>
 7    0  0.4732500E-002  0.4559382E+03  0.7546771E-02  0.1025966E+00
         21   -1    0    0  502  501  0.00000000000E+00  0.00000000000E+00  0.39366332819E+03  0.39366332819E+03  0.00000000000E+00 0. -1.
         21   -1    0    0  501  502 -0.00000000000E+00 -0.00000000000E+00 -0.13201612099E+03  0.13201612099E+03  0.00000000000E+00 0. -1.
      99926    2    1    2    0    0  0.71054273576E-14 -0.71054273576E-14  0.26164720721E+03  0.52567944918E+03  0.45593817810E+03 0.  0.
      99925    2    3    3    0    0  0.45203783989E+02 -0.58058180425E+02  0.64110964382E+02  0.28056272243E+03  0.26304199487E+03 0.  0.
         25    1    4    4    0    0 -0.15041492706E+02 -0.20246533596E+02  0.45448018917E+02  0.13545921581E+03  0.12509000000E+03 0.  0.
         25    1    4    4    0    0  0.60245276695E+02 -0.37811646830E+02  0.18662945465E+02  0.14510350662E+03  0.12509000000E+03 0.  0.
         25    1    3    3    0    0 -0.45203783989E+02  0.58058180425E+02  0.19753624282E+03  0.24511672675E+03  0.12509000000E+03 0.  0.
<mgrwt>
<rscale>  2 0.45593818E+03</rscale>
<asrwt>0</asrwt>
<pdfrwt beam="1">  1       21 0.57891666E-01 0.45593818E+03</pdfrwt>
<pdfrwt beam="2">  1       21 0.19414136E-01 0.45593818E+03</pdfrwt>
<totfact> 0.63029875E+04</totfact>
</mgrwt>
</event>
<event>
 7    0  0.4732500E-002  0.4564753E+03  0.7546771E-02  0.1025808E+00
         21   -1    0    0  502  501  0.00000000000E+00  0.00000000000E+00  0.14828355986E+03  0.14828355986E+03  0.00000000000E+00 0. -1.
         21   -1    0    0  501  502 -0.00000000000E+00 -0.00000000000E+00 -0.35130273268E+03  0.35130273268E+03  0.00000000000E+00 0. -1.
      99926    2    1    2    0    0  0.00000000000E+00 -0.14210854715E-13 -0.20301917282E+03  0.49958629255E+03  0.45647527772E+03 0.  0.
      99925    2    3    3    0    0  0.36521364907E+02 -0.88277956203E+02 -0.58697391610E+02  0.28603748717E+03  0.26314492706E+03 0.  0.
         25    1    3    3    0    0 -0.36521364907E+02  0.88277956203E+02 -0.14432178121E+03  0.21354880537E+03  0.12509000000E+03 0.  0.
         25    1    4    4    0    0  0.93209969847E+01 -0.73395482321E+02 -0.22677856660E+01  0.14534933354E+03  0.12509000000E+03 0.  0.
         25    1    4    4    0    0  0.27200367923E+02 -0.14882473882E+02 -0.56429605944E+02  0.14068815363E+03  0.12509000000E+03 0.  0.
<mgrwt>
<rscale>  2 0.45647528E+03</rscale>
<asrwt>0</asrwt>
<pdfrwt beam="1">  1       21 0.21806406E-01 0.45647528E+03</pdfrwt>
<pdfrwt beam="2">  1       21 0.51662166E-01 0.45647528E+03</pdfrwt>
<totfact> 0.64540579E+04</totfact>
</mgrwt>
</event>
<event>
 7    0  0.4732500E-002  0.4763076E+03  0.7546771E-02  0.1020155E+00
         21   -1    0    0  502  501  0.00000000000E+00  0.00000000000E+00  0.80068291627E+03  0.80068291627E+03  0.00000000000E+00 0. -1.
         21   -1    0    0  501  502 -0.00000000000E+00 -0.00000000000E+00 -0.70836065724E+02  0.70836065724E+02  0.00000000000E+00 0. -1.
      99926    2    1    2    0    0  0.88817841970E-15 -0.71054273576E-14  0.72984685054E+03  0.87151898199E+03  0.47630757996E+03 0.  0.
      99925    2    3    3    0    0  0.49443477993E+01  0.39012646937E+02  0.68174070157E+03  0.73184742846E+03  0.26321823867E+03 0.  0.
         25    1    3    3    0    0 -0.49443477993E+01 -0.39012646937E+02  0.48106148970E+02  0.13967155353E+03  0.12509000000E+03 0.  0.
         25    1    4    4    0    0  0.39739875002E+02  0.21280392482E+02  0.38951515247E+03  0.41158434721E+03  0.12509000000E+03 0.  0.
         25    1    4    4    0    0 -0.34795527203E+02  0.17732254454E+02  0.29222554910E+03  0.32026308125E+03  0.12509000000E+03 0.  0.
<mgrwt>
<rscale>  2 0.47630758E+03</rscale>
<asrwt>0</asrwt>
<pdfrwt beam="1">  1       21 0.11774748E+00 0.47630758E+03</pdfrwt>
<pdfrwt beam="2">  1       21 0.10417069E-01 0.47630758E+03</pdfrwt>
<totfact> 0.37772247E+04</totfact>
</mgrwt>
</event>
<event>
 7    0  0.4732500E-002  0.4396882E+03  0.7546771E-02  0.1030843E+00
         21   -1    0    0  502  501  0.00000000000E+00  0.00000000000E+00  0.48570368746E+03  0.48570368746E+03  0.00000000000E+00 0. -1.
         21   -1    0    0  501  502 -0.00000000000E+00 -0.00000000000E+00 -0.99508040833E+02  0.99508040833E+02  0.00000000000E+00 0. -1.
      99926    2    1    2    0    0 -0.71054273576E-14  0.00000000000E+00  0.38619564663E+03  0.58521172829E+03  0.43968817298E+03 0.  0.
      99925    2    3    3    0    0  0.33139180189E+02  0.24641930903E+02  0.36631096983E+03  0.45198883802E+03  0.26154302332E+03 0.  0.
         25    1    4    4    0    0  0.35543023234E+02  0.22592132157E+02  0.13380182993E+03  0.18794719665E+03  0.12509000000E+03 0.  0.
         25    1    3    3    0    0 -0.33139180189E+02 -0.24641930903E+02  0.19884676793E+02  0.13322289028E+03  0.12509000000E+03 0.  0.
         25    1    4    4    0    0 -0.24038430445E+01  0.20497987460E+01  0.23250913991E+03  0.26404164137E+03  0.12509000000E+03 0.  0.
<mgrwt>
<rscale>  2 0.43968817E+03</rscale>
<asrwt>0</asrwt>
<pdfrwt beam="1">  1       21 0.71427012E-01 0.43968817E+03</pdfrwt>
<pdfrwt beam="2">  1       21 0.14633536E-01 0.43968817E+03</pdfrwt>
<totfact> 0.67391131E+04</totfact>
</mgrwt>
</event>
<event>
 7    0  0.4732500E-002  0.4538331E+03  0.7546771E-02  0.1026585E+00
         21   -1    0    0  502  501  0.00000000000E+00  0.00000000000E+00  0.41409851846E+02  0.41409851846E+02  0.00000000000E+00 0.  1.
         21   -1    0    0  501  502 -0.00000000000E+00 -0.00000000000E+00 -0.12434508112E+04  0.12434508112E+04  0.00000000000E+00 0.  1.
      99926    2    1    2    0    0  0.19984014443E-14  0.00000000000E+00 -0.12020409593E+04  0.12848606630E+04  0.45383307006E+03 0.  0.
      99925    2    3    3    0    0 -0.11008970704E+01  0.10431097089E+03 -0.64124994603E+03  0.70089485981E+03  0.26300213042E+03 0.  0.
         25    1    4    4    0    0  0.38120835279E+02  0.40003922852E+02 -0.29816398471E+03  0.32802862955E+03  0.12509000000E+03 0.  0.
         25    1    4    4    0    0 -0.39221732349E+02  0.64307048033E+02 -0.34308596132E+03  0.37286623026E+03  0.12509000000E+03 0.  0.
         25    1    3    3    0    0  0.11008970704E+01 -0.10431097089E+03 -0.56079101331E+03  0.58396580322E+03  0.12509000000E+03 0.  0.
<mgrwt>
<rscale>  2 0.45383307E+03</rscale>
<asrwt>0</asrwt>
<pdfrwt beam="1">  1       21 0.60896833E-02 0.45383307E+03</pdfrwt>
<pdfrwt beam="2">  1       21 0.18286044E+00 0.45383307E+03</pdfrwt>
<totfact> 0.29827447E+04</totfact>
</mgrwt>
</event>
<event>
 7    0  0.4732500E-002  0.4525767E+03  0.7546771E-02  0.1026956E+00
         21   -1    0    0  502  501  0.00000000000E+00  0.00000000000E+00  0.34041980644E+03  0.34041980644E+03  0.00000000000E+00 0.  1.
         21   -1    0    0  501  502 -0.00000000000E+00 -0.00000000000E+00 -0.15042138846E+03  0.15042138846E+03  0.00000000000E+00 0.  1.
      99926    2    1    2    0    0 -0.14210854715E-13 -0.14210854715E-13  0.18999841797E+03  0.49084119490E+03  0.45257671148E+03 0.  0.
      99925    2    3    3    0    0  0.78400348806E+02  0.76975655773E+02  0.12923781930E+03  0.31360907387E+03  0.26377333261E+03 0.  0.
         25    1    4    4    0    0  0.80148506938E+02  0.39259824452E+02  0.54266605739E+02  0.16296468813E+03  0.12509000000E+03 0.  0.
         25    1    4    4    0    0 -0.17481581317E+01  0.37715831321E+02  0.74971213563E+02  0.15064438573E+03  0.12509000000E+03 0.  0.
         25    1    3    3    0    0 -0.78400348806E+02 -0.76975655773E+02  0.60760598671E+02  0.17723212103E+03  0.12509000000E+03 0.  0.
<mgrwt>
<rscale>  2 0.45257671E+03</rscale>
<asrwt>0</asrwt>
<pdfrwt beam="1">  1       21 0.50061736E-01 0.45257671E+03</pdfrwt>
<pdfrwt beam="2">  1       21 0.22120792E-01 0.45257671E+03</pdfrwt>
<totfact> 0.67202549E+04</totfact>
</mgrwt>
</event>
<event>
 7    0  0.4732500E-002  0.4526151E+03  0.7546771E-02  0.1026945E+00
         21   -1    0    0  502  501  0.00000000000E+00  0.00000000000E+00  0.73838445809E+02  0.73838445809E+02  0.00000000000E+00 0.  1.
         21   -1    0    0  501  502 -0.00000000000E+00 -0.00000000000E+00 -0.69361019831E+03  0.69361019831E+03  0.00000000000E+00 0.  1.
      99926    2    1    2    0    0  0.28865798640E-14  0.00000000000E+00 -0.61977175251E+03  0.76744864412E+03  0.45261506400E+03 0.  0.
      99925    2    3    3    0    0  0.17832866619E+01 -0.18140790447E+02 -0.57638546023E+03  0.63379930126E+03  0.26296214010E+03 0.  0.
         25    1    4    4    0    0 -0.22785172022E+02 -0.34227884519E+01 -0.20916907327E+03  0.24480622716E+03  0.12509000000E+03 0.  0.
         25    1    3    3    0    0 -0.17832866619E+01  0.18140790447E+02 -0.43386292272E+02  0.13364934286E+03  0.12509000000E+03 0.  0.
         25    1    4    4    0    0  0.24568458684E+02 -0.14718001995E+02 -0.36721638696E+03  0.38899307410E+03  0.12509000000E+03 0.  0.
<mgrwt>
<rscale>  2 0.45261506E+03</rscale>
<asrwt>0</asrwt>
<pdfrwt beam="1">  1       21 0.10858595E-01 0.45261506E+03</pdfrwt>
<pdfrwt beam="2">  1       21 0.10200150E+00 0.45261506E+03</pdfrwt>
<totfact> 0.50314906E+04</totfact>
</mgrwt>
</event>
<event>
 7    0  0.4732500E-002  0.4609784E+03  0.7546771E-02  0.1024498E+00
         21   -1    0    0  502  501  0.00000000000E+00  0.00000000000E+00  0.10609008711E+04  0.10609008711E+04  0.00000000000E+00 0. -1.
         21   -1    0    0  501  502 -0.00000000000E+00 -0.00000000000E+00 -0.50075612323E+02  0.50075612323E+02  0.00000000000E+00 0. -1.
      99926    2    1    2    0    0  0.00000000000E+00  0.17763568394E-14  0.10108252588E+04  0.11109764834E+04  0.46097835409E+03 0.  0.
      99925    2    3    3    0    0  0.10867546878E+03 -0.74582570418E+01  0.74623672419E+03  0.79869362471E+03  0.26301382950E+03 0.  0.
         25    1    4    4    0    0  0.44812747341E+02 -0.29749714383E+02  0.28179297491E+03  0.31296647846E+03  0.12509000000E+03 0.  0.
         25    1    3    3    0    0 -0.10867546878E+03  0.74582570418E+01  0.26458853461E+03  0.31228285874E+03  0.12509000000E+03 0.  0.
         25    1    4    4    0    0  0.63862721441E+02  0.22291457341E+02  0.46444374928E+03  0.48572714625E+03  0.12509000000E+03 0.  0.
<mgrwt>
<rscale>  2 0.46097835E+03</rscale>
<asrwt>0</asrwt>
<pdfrwt beam="1">  1       21 0.15601482E+00 0.46097835E+03</pdfrwt>
<pdfrwt beam="2">  1       21 0.73640613E-02 0.46097835E+03</pdfrwt>
<totfact> 0.33522176E+04</totfact>
</mgrwt>
</event>
<event>
 7    0  0.4732500E-002  0.4478095E+03  0.7546771E-02  0.1028377E+00
         21   -1    0    0  502  501  0.00000000000E+00  0.00000000000E+00  0.32929129922E+03  0.32929129922E+03  0.00000000000E+00 0.  1.
         21   -1    0    0  501  502 -0.00000000000E+00 -0.00000000000E+00 -0.15224613361E+03  0.15224613361E+03  0.00000000000E+00 0.  1.
      99926    2    1    2    0    0 -0.71054273576E-14  0.00000000000E+00  0.17704516561E+03  0.48153743282E+03  0.44780945562E+03 0.  0.
      99925    2    3    3    0    0 -0.45362839251E+02  0.94373741788E+02  0.92479593729E+02  0.29779023047E+03  0.26298736811E+03 0.  0.
         25    1    3    3    0    0  0.45362839251E+02 -0.94373741788E+02  0.84565571883E+02  0.18374720235E+03  0.12509000000E+03 0.  0.
         25    1    4    4    0    0 -0.31306342235E+02  0.58971401625E+01  0.46557768728E+02  0.13722243714E+03  0.12509000000E+03 0.  0.
         25    1    4    4    0    0 -0.14056497016E+02  0.88476601625E+02  0.45921825001E+02  0.16056779333E+03  0.12509000000E+03 0.  0.
<mgrwt>
<rscale>  2 0.44780946E+03</rscale>
<asrwt>0</asrwt>
<pdfrwt beam="1">  1       21 0.48425191E-01 0.44780946E+03</pdfrwt>
<pdfrwt beam="2">  1       21 0.22389137E-01 0.44780946E+03</pdfrwt>
<totfact> 0.70529098E+04</totfact>
</mgrwt>
</event>
<event>
 7    0  0.4732500E-002  0.4542581E+03  0.7546771E-02  0.1026460E+00
         21   -1    0    0  502  501  0.00000000000E+00  0.00000000000E+00  0.39352463568E+03  0.39352463568E+03  0.00000000000E+00 0.  1.
         21   -1    0    0  501  502 -0.00000000000E+00 -0.00000000000E+00 -0.13109119254E+03  0.13109119254E+03  0.00000000000E+00 0.  1.
      99926    2    1    2    0    0  0.00000000000E+00 -0.71054273576E-14  0.26243344314E+03  0.52461582822E+03  0.45425813713E+03 0.  0.
      99925    2    3    3    0    0  0.19732146455E+02  0.35064100890E+02  0.28657715587E+03  0.39101464657E+03  0.26295843548E+03 0.  0.
         25    1    3    3    0    0 -0.19732146455E+02 -0.35064100890E+02 -0.24143712733E+02  0.13360118165E+03  0.12509000000E+03 0.  0.
         25    1    4    4    0    0  0.37065395079E+02 -0.10178569958E+02  0.15855926935E+03  0.20558695678E+03  0.12509000000E+03 0.  0.
         25    1    4    4    0    0 -0.17333248624E+02  0.45242670848E+02  0.12801788651E+03  0.18542768979E+03  0.12509000000E+03 0.  0.
<mgrwt>
<rscale>  2 0.45425814E+03</rscale>
<asrwt>0</asrwt>
<pdfrwt beam="1">  1       21 0.57871270E-01 0.45425814E+03</pdfrwt>
<pdfrwt beam="2">  1       21 0.19278117E-01 0.45425814E+03</pdfrwt>
<totfact> 0.63947709E+04</totfact>
</mgrwt>
</event>
<event>
 7    0  0.4732500E-002  0.4535938E+03  0.7546771E-02  0.1026656E+00
         21   -1    0    0  502  501  0.00000000000E+00  0.00000000000E+00  0.11886184398E+04  0.11886184398E+04  0.00000000000E+00 0.  1.
         21   -1    0    0  501  502 -0.00000000000E+00 -0.00000000000E+00 -0.43274472409E+02  0.43274472409E+02  0.00000000000E+00 0.  1.
      99926    2    1    2    0    0  0.71054273576E-14  0.00000000000E+00  0.11453439674E+04  0.12318929122E+04  0.45359380895E+03 0.  0.
      99925    2    3    3    0    0 -0.44951542872E+02 -0.10118631843E+03  0.70811719631E+03  0.76383942201E+03  0.26412380933E+03 0.  0.
         25    1    4    4    0    0 -0.72458647563E+01 -0.85600343813E+02  0.32310620923E+03  0.35696645775E+03  0.12509000000E+03 0.  0.
         25    1    3    3    0    0  0.44951542872E+02  0.10118631843E+03  0.43722677111E+03  0.46805349023E+03  0.12509000000E+03 0.  0.
         25    1    4    4    0    0 -0.37705678116E+02 -0.15585974617E+02  0.38501098709E+03  0.40687296426E+03  0.12509000000E+03 0.  0.
<mgrwt>
<rscale>  2 0.45359381E+03</rscale>
<asrwt>0</asrwt>
<pdfrwt beam="1">  1       21 0.17479681E+00 0.45359381E+03</pdfrwt>
<pdfrwt beam="2">  1       21 0.63638938E-02 0.45359381E+03</pdfrwt>
<totfact> 0.31502067E+04</totfact>
</mgrwt>
</event>
<event>
 7    0  0.4732500E-002  0.4544384E+03  0.7546771E-02  0.1026407E+00
         21   -1    0    0  502  501  0.00000000000E+00  0.00000000000E+00  0.12849232590E+03  0.12849232590E+03  0.00000000000E+00 0.  1.
         21   -1    0    0  501  502 -0.00000000000E+00 -0.00000000000E+00 -0.40180278991E+03  0.40180278991E+03  0.00000000000E+00 0.  1.
      99926    2    1    2    0    0  0.71054273576E-14 -0.53290705182E-14 -0.27331046400E+03  0.53029511581E+03  0.45443844481E+03 0.  0.
      99925    2    3    3    0    0 -0.48535704800E+02 -0.27065183540E+01 -0.53431400033E+02  0.27269591015E+03  0.26295456836E+03 0.  0.
         25    1    4    4    0    0 -0.25591124289E+02 -0.39119738960E+02 -0.12023675248E+02  0.13407959011E+03  0.12509000000E+03 0.  0.
         25    1    4    4    0    0 -0.22944580511E+02  0.36413220606E+02 -0.41407724785E+02  0.13861632004E+03  0.12509000000E+03 0.  0.
         25    1    3    3    0    0  0.48535704800E+02  0.27065183540E+01 -0.21987906397E+03  0.25759920566E+03  0.12509000000E+03 0.  0.
<mgrwt>
<rscale>  2 0.45443844E+03</rscale>
<asrwt>0</asrwt>
<pdfrwt beam="1">  1       21 0.18895930E-01 0.45443844E+03</pdfrwt>
<pdfrwt beam="2">  1       21 0.59088646E-01 0.45443844E+03</pdfrwt>
<totfact> 0.63468564E+04</totfact>
</mgrwt>
</event>
<event>
 7    0  0.4732500E-002  0.4536719E+03  0.7546771E-02  0.1026633E+00
         21   -1    0    0  502  501  0.00000000000E+00  0.00000000000E+00  0.41929760389E+03  0.41929760389E+03  0.00000000000E+00 0.  1.
         21   -1    0    0  501  502 -0.00000000000E+00 -0.00000000000E+00 -0.12271604733E+03  0.12271604733E+03  0.00000000000E+00 0.  1.
      99926    2    1    2    0    0  0.00000000000E+00  0.00000000000E+00  0.29658155656E+03  0.54201365122E+03  0.45367188410E+03 0.  0.
      99925    2    3    3    0    0  0.29383963671E+02  0.10580109825E+03  0.21203050649E+03  0.35532225378E+03  0.26313433572E+03 0.  0.
         25    1    3    3    0    0 -0.29383963671E+02 -0.10580109825E+03  0.84551050068E+02  0.18669139744E+03  0.12509000000E+03 0.  0.
         25    1    4    4    0    0 -0.18363568794E+02  0.67922931458E+02  0.13090037669E+03  0.19425025610E+03  0.12509000000E+03 0.  0.
         25    1    4    4    0    0  0.47747532465E+02  0.37878166790E+02  0.81130129803E+02  0.16107199768E+03  0.12509000000E+03 0.  0.
<mgrwt>
<rscale>  2 0.45367188E+03</rscale>
<asrwt>0</asrwt>
<pdfrwt beam="1">  1       21 0.61661412E-01 0.45367188E+03</pdfrwt>
<pdfrwt beam="2">  1       21 0.18046478E-01 0.45367188E+03</pdfrwt>
<totfact> 0.63057490E+04</totfact>
</mgrwt>
</event>
<event>
 7    0  0.4732500E-002  0.4566845E+03  0.7546771E-02  0.1025747E+00
         21   -1    0    0  502  501  0.00000000000E+00  0.00000000000E+00  0.10643664409E+03  0.10643664409E+03  0.00000000000E+00 0.  1.
         21   -1    0    0  501  502 -0.00000000000E+00 -0.00000000000E+00 -0.48987067172E+03  0.48987067172E+03  0.00000000000E+00 0.  1.
      99926    2    1    2    0    0  0.00000000000E+00  0.00000000000E+00 -0.38343402763E+03  0.59630731581E+03  0.45668453153E+03 0.  0.
      99925    2    3    3    0    0 -0.19417773540E+02 -0.10808686373E+03 -0.28445124300E+03  0.40264544607E+03  0.26296582582E+03 0.  0.
         25    1    4    4    0    0  0.30656383079E+01 -0.27547025992E+02 -0.17357735921E+03  0.21574254219E+03  0.12509000000E+03 0.  0.
         25    1    3    3    0    0  0.19417773540E+02  0.10808686373E+03 -0.98982784630E+02  0.19366186974E+03  0.12509000000E+03 0.  0.
         25    1    4    4    0    0 -0.22483411847E+02 -0.80539837736E+02 -0.11087388380E+03  0.18690290388E+03  0.12509000000E+03 0.  0.
<mgrwt>
<rscale>  2 0.45668453E+03</rscale>
<asrwt>0</asrwt>
<pdfrwt beam="1">  1       21 0.15652448E-01 0.45668453E+03</pdfrwt>
<pdfrwt beam="2">  1       21 0.72039804E-01 0.45668453E+03</pdfrwt>
<totfact> 0.58128491E+04</totfact>
</mgrwt>
</event>
<event>
 7    0  0.4732500E-002  0.4490277E+03  0.7546771E-02  0.1028012E+00
         21   -1    0    0  502  501  0.00000000000E+00  0.00000000000E+00  0.36404849417E+03  0.36404849417E+03  0.00000000000E+00 0. -1.
         21   -1    0    0  501  502 -0.00000000000E+00 -0.00000000000E+00 -0.13846088813E+03  0.13846088813E+03  0.00000000000E+00 0. -1.
      99926    2    1    2    0    0  0.00000000000E+00  0.35527136788E-14  0.22558760604E+03  0.50250938230E+03  0.44902774001E+03 0.  0.
      99925    2    3    3    0    0  0.58615263665E+02  0.31979528143E+02  0.48507545453E+02  0.27565415244E+03  0.26300910714E+03 0.  0.
         25    1    4    4    0    0  0.37152219931E+01 -0.14652922199E+02  0.10793879122E+02  0.12646156305E+03  0.12509000000E+03 0.  0.
         25    1    3    3    0    0 -0.58615263665E+02 -0.31979528143E+02  0.17708006059E+03  0.22685522985E+03  0.12509000000E+03 0.  0.
         25    1    4    4    0    0  0.54900041672E+02  0.46632450342E+02  0.37713666331E+02  0.14919258939E+03  0.12509000000E+03 0.  0.
<mgrwt>
<rscale>  2 0.44902774E+03</rscale>
<asrwt>0</asrwt>
<pdfrwt beam="1">  1       21 0.53536543E-01 0.44902774E+03</pdfrwt>
<pdfrwt beam="2">  1       21 0.20361895E-01 0.44902774E+03</pdfrwt>
<totfact> 0.68274143E+04</totfact>
</mgrwt>
</event>
<event>
 7    0  0.4732500E-002  0.4542225E+03  0.7546771E-02  0.1026470E+00
         21   -1    0    0  502  501  0.00000000000E+00  0.00000000000E+00  0.17066820162E+03  0.17066820162E+03  0.00000000000E+00 0.  1.
         21   -1    0    0  501  502 -0.00000000000E+00 -0.00000000000E+00 -0.30222106485E+03  0.30222106485E+03  0.00000000000E+00 0.  1.
      99926    2    1    2    0    0  0.14210854715E-13  0.35527136788E-14 -0.13155286323E+03  0.47288926648E+03  0.45422252534E+03 0.  0.
      99925    2    3    3    0    0  0.78441496080E+02  0.25570326944E+02 -0.16236525494E+03  0.31990619058E+03  0.26300301298E+03 0.  0.
         25    1    4    4    0    0  0.68061288375E+02  0.43074818939E+02 -0.92496720602E+02  0.17518827137E+03  0.12509000000E+03 0.  0.
         25    1    4    4    0    0  0.10380207705E+02 -0.17504491994E+02 -0.69868534337E+02  0.14471791922E+03  0.12509000000E+03 0.  0.
         25    1    3    3    0    0 -0.78441496080E+02 -0.25570326944E+02  0.30812391706E+02  0.15298307589E+03  0.12509000000E+03 0.  0.
<mgrwt>
<rscale>  2 0.45422253E+03</rscale>
<asrwt>0</asrwt>
<pdfrwt beam="1">  1       21 0.25098265E-01 0.45422253E+03</pdfrwt>
<pdfrwt beam="2">  1       21 0.44444274E-01 0.45422253E+03</pdfrwt>
<totfact> 0.67637816E+04</totfact>
</mgrwt>
</event>
<event>
 7    0  0.4732500E-002  0.4569455E+03  0.7546771E-02  0.1025671E+00
         21   -1    0    0  502  501  0.00000000000E+00  0.00000000000E+00  0.95974546828E+03  0.95974546828E+03  0.00000000000E+00 0.  1.
         21   -1    0    0  501  502 -0.00000000000E+00 -0.00000000000E+00 -0.54389209479E+02  0.54389209479E+02  0.00000000000E+00 0.  1.
      99926    2    1    2    0    0  0.14210854715E-13  0.00000000000E+00  0.90535625880E+03  0.10141346778E+04  0.45694549925E+03 0.  0.
      99925    2    3    3    0    0  0.68988292514E+02  0.81286725833E+02  0.66166627449E+03  0.72019721357E+03  0.26365669219E+03 0.  0.
         25    1    4    4    0    0  0.66715516953E+02  0.44803549927E+02  0.28212015657E+03  0.31890062579E+03  0.12509000000E+03 0.  0.
         25    1    3    3    0    0 -0.68988292514E+02 -0.81286725833E+02  0.24368998432E+03  0.29393746420E+03  0.12509000000E+03 0.  0.
         25    1    4    4    0    0  0.22727755615E+01  0.36483175906E+02  0.37954611792E+03  0.40129658778E+03  0.12509000000E+03 0.  0.
<mgrwt>
<rscale>  2 0.45694550E+03</rscale>
<asrwt>0</asrwt>
<pdfrwt beam="1">  1       21 0.14113903E+00 0.45694550E+03</pdfrwt>
<pdfrwt beam="2">  1       21 0.79984138E-02 0.45694550E+03</pdfrwt>
<totfact> 0.38040294E+04</totfact>
</mgrwt>
</event>
<event>
 7    0  0.4732500E-002  0.4471149E+03  0.7546771E-02  0.1028586E+00
         21   -1    0    0  502  501  0.00000000000E+00  0.00000000000E+00  0.88660260748E+03  0.88660260748E+03  0.00000000000E+00 0.  1.
         21   -1    0    0  501  502 -0.00000000000E+00 -0.00000000000E+00 -0.56370151685E+02  0.56370151685E+02  0.00000000000E+00 0.  1.
      99926    2    1    2    0    0  0.14210854715E-13  0.00000000000E+00  0.83023245580E+03  0.94297275917E+03  0.44711485535E+03 0.  0.
      99925    2    3    3    0    0  0.66033509422E+02  0.82561482044E+02  0.53393057075E+03  0.60441827631E+03  0.26279797500E+03 0.  0.
         25    1    4    4    0    0  0.36507796683E+02  0.37330106280E+02  0.18123253801E+03  0.22631636482E+03  0.12509000000E+03 0.  0.
         25    1    4    4    0    0  0.29525712739E+02  0.45231375763E+02  0.35269803274E+03  0.37810191148E+03  0.12509000000E+03 0.  0.
         25    1    3    3    0    0 -0.66033509422E+02 -0.82561482044E+02  0.29630188505E+03  0.33855448286E+03  0.12509000000E+03 0.  0.
<mgrwt>
<rscale>  2 0.44711486E+03</rscale>
<asrwt>0</asrwt>
<pdfrwt beam="1">  1       21 0.13038273E+00 0.44711486E+03</pdfrwt>
<pdfrwt beam="2">  1       21 0.82897287E-02 0.44711486E+03</pdfrwt>
<totfact> 0.44082871E+04</totfact>
</mgrwt>
</event>
<event>
 7    0  0.4732500E-002  0.4689792E+03  0.7546771E-02  0.1022209E+00
         21   -1    0    0  502  501  0.00000000000E+00  0.00000000000E+00  0.56323293119E+02  0.56323293119E+02  0.00000000000E+00 0.  1.
         21   -1    0    0  501  502 -0.00000000000E+00 -0.00000000000E+00 -0.97624569108E+03  0.97624569108E+03  0.00000000000E+00 0.  1.
      99926    2    1    2    0    0  0.00000000000E+00  0.00000000000E+00 -0.91992239796E+03  0.10325689842E+04  0.46897919875E+03 0.  0.
      99925    2    3    3    0    0 -0.90595339160E+02 -0.64981229592E+02 -0.70020717578E+03  0.75624967138E+03  0.26304638522E+03 0.  0.
         25    1    4    4    0    0 -0.15742721619E+02 -0.60459064219E+02 -0.33731546045E+03  0.36514703845E+03  0.12509000000E+03 0.  0.
         25    1    3    3    0    0  0.90595339160E+02  0.64981229592E+02 -0.21971522218E+03  0.27631931282E+03  0.12509000000E+03 0.  0.
         25    1    4    4    0    0 -0.74852617541E+02 -0.45221653728E+01 -0.36289171533E+03  0.39110263293E+03  0.12509000000E+03 0.  0.
<mgrwt>
<rscale>  2 0.46897920E+03</rscale>
<asrwt>0</asrwt>
<pdfrwt beam="1">  1       21 0.82828382E-02 0.46897920E+03</pdfrwt>
<pdfrwt beam="2">  1       21 0.14356553E+00 0.46897920E+03</pdfrwt>
<totfact> 0.34052675E+04</totfact>
</mgrwt>
</event>
<event>
 7    0  0.4732500E-002  0.4548735E+03  0.7546771E-02  0.1026279E+00
         21   -1    0    0  502  501  0.00000000000E+00  0.00000000000E+00  0.34773358557E+02  0.34773358557E+02  0.00000000000E+00 0. -1.
         21   -1    0    0  501  502 -0.00000000000E+00 -0.00000000000E+00 -0.14875603230E+04  0.14875603230E+04  0.00000000000E+00 0. -1.
      99926    2    1    2    0    0  0.00000000000E+00  0.00000000000E+00 -0.14527869645E+04  0.15223336816E+04  0.45487347027E+03 0.  0.
      99925    2    3    3    0    0  0.42451161177E+02  0.86029202307E+02 -0.71427541731E+03  0.76718473063E+03  0.26302074901E+03 0.  0.
         25    1    4    4    0    0  0.22637191503E+02  0.56737235288E+02 -0.26313653402E+03  0.29769094703E+03  0.12509000000E+03 0.  0.
         25    1    3    3    0    0 -0.42451161177E+02 -0.86029202307E+02 -0.73851154717E+03  0.75514895096E+03  0.12509000000E+03 0.  0.
         25    1    4    4    0    0  0.19813969674E+02  0.29291967019E+02 -0.45113888329E+03  0.46949378360E+03  0.12509000000E+03 0.  0.
<mgrwt>
<rscale>  2 0.45487347E+03</rscale>
<asrwt>0</asrwt>
<pdfrwt beam="1">  1       21 0.51137299E-02 0.45487347E+03</pdfrwt>
<pdfrwt beam="2">  1       21 0.21875884E+00 0.45487347E+03</pdfrwt>
<totfact> 0.23259880E+04</totfact>
</mgrwt>
</event>
<event>
 7    0  0.4732500E-002  0.4532540E+03  0.7546771E-02  0.1026756E+00
         21   -1    0    0  502  501  0.00000000000E+00  0.00000000000E+00  0.10880064959E+04  0.10880064959E+04  0.00000000000E+00 0.  1.
         21   -1    0    0  501  502 -0.00000000000E+00 -0.00000000000E+00 -0.47205407051E+02  0.47205407051E+02  0.00000000000E+00 0.  1.
      99926    2    1    2    0    0  0.00000000000E+00  0.00000000000E+00  0.10408010889E+04  0.11352119030E+04  0.45325396640E+03 0.  0.
      99925    2    3    3    0    0  0.18334384386E+02  0.97195518547E+02  0.52677984604E+03  0.59702191360E+03  0.26297345998E+03 0.  0.
         25    1    4    4    0    0  0.43635470591E+02  0.27276073057E+02  0.26437234462E+03  0.29696512111E+03  0.12509000000E+03 0.  0.
         25    1    4    4    0    0 -0.25301086205E+02  0.69919445490E+02  0.26240750142E+03  0.30005679250E+03  0.12509000000E+03 0.  0.
         25    1    3    3    0    0 -0.18334384386E+02 -0.97195518547E+02  0.51402124284E+03  0.53818998938E+03  0.12509000000E+03 0.  0.
<mgrwt>
<rscale>  2 0.45325397E+03</rscale>
<asrwt>0</asrwt>
<pdfrwt beam="1">  1       21 0.16000094E+00 0.45325397E+03</pdfrwt>
<pdfrwt beam="2">  1       21 0.69419723E-02 0.45325397E+03</pdfrwt>
<totfact> 0.34750523E+04</totfact>
</mgrwt>
</event>
<event>
 7    0  0.4732500E-002  0.4542377E+03  0.7546771E-02  0.1026466E+00
         21   -1    0    0  502  501  0.00000000000E+00  0.00000000000E+00  0.26537155377E+03  0.26537155377E+03  0.00000000000E+00 0.  1.
         21   -1    0    0  501  502 -0.00000000000E+00 -0.00000000000E+00 -0.19438022121E+03  0.19438022121E+03  0.00000000000E+00 0.  1.
      99926    2    1    2    0    0  0.00000000000E+00  0.00000000000E+00  0.70991332558E+02  0.45975177498E+03  0.45423774095E+03 0.  0.
      99925    2    3    3    0    0 -0.10117296037E+02 -0.92698238012E+02 -0.18656093317E+02  0.27980875046E+03  0.26315311893E+03 0.  0.
         25    1    4    4    0    0 -0.11908155937E+02 -0.69070285739E+02  0.24321800036E+02  0.14543578173E+03  0.12509000000E+03 0.  0.
         25    1    4    4    0    0  0.17908598996E+01 -0.23627952273E+02 -0.42977893353E+02  0.13437296873E+03  0.12509000000E+03 0.  0.
         25    1    3    3    0    0  0.10117296037E+02  0.92698238012E+02  0.89647425874E+02  0.17994302453E+03  0.12509000000E+03 0.  0.
<mgrwt>
<rscale>  2 0.45423774E+03</rscale>
<asrwt>0</asrwt>
<pdfrwt beam="1">  1       21 0.39025229E-01 0.45423774E+03</pdfrwt>
<pdfrwt beam="2">  1       21 0.28585326E-01 0.45423774E+03</pdfrwt>
<totfact> 0.68614784E+04</totfact>
</mgrwt>
</event>
<event>
 7    0  0.4732500E-002  0.4606557E+03  0.7546771E-02  0.1024591E+00
         21   -1    0    0  502  501  0.00000000000E+00  0.00000000000E+00  0.15148904909E+02  0.15148904909E+02  0.00000000000E+00 0.  1.
         21   -1    0    0  501  502 -0.00000000000E+00 -0.00000000000E+00 -0.35019640537E+04  0.35019640537E+04  0.00000000000E+00 0.  1.
      99926    2    1    2    0    0  0.00000000000E+00  0.35527136788E-14 -0.34868151488E+04  0.35171129586E+04  0.46065570851E+03 0.  0.
      99925    2    3    3    0    0  0.25122741423E+02  0.28626176147E+02 -0.30390250600E+04  0.30506217135E+04  0.26299983481E+03 0.  0.
         25    1    3    3    0    0 -0.25122741423E+02 -0.28626176147E+02 -0.44779008872E+03  0.46649124510E+03  0.12509000000E+03 0.  0.
         25    1    4    4    0    0  0.47247347473E+02 -0.49946027086E+01 -0.16294469807E+04  0.16349318729E+04  0.12509000000E+03 0.  0.
         25    1    4    4    0    0 -0.22124606050E+02  0.33620778856E+02 -0.14095780793E+04  0.14156898406E+04  0.12509000000E+03 0.  0.
<mgrwt>
<rscale>  2 0.46065571E+03</rscale>
<asrwt>0</asrwt>
<pdfrwt beam="1">  1       21 0.22277810E-02 0.46065571E+03</pdfrwt>
<pdfrwt beam="2">  1       21 0.51499451E+00 0.46065571E+03</pdfrwt>
<totfact> 0.11920634E+03</totfact>
</mgrwt>
</event>
<event>
 7    0  0.4732500E-002  0.4435165E+03  0.7546771E-02  0.1029673E+00
         21   -1    0    0  502  501  0.00000000000E+00  0.00000000000E+00  0.64308707218E+03  0.64308707218E+03  0.00000000000E+00 0.  1.
         21   -1    0    0  501  502 -0.00000000000E+00 -0.00000000000E+00 -0.76469766294E+02  0.76469766294E+02  0.00000000000E+00 0.  1.
      99926    2    1    2    0    0  0.71054273576E-14  0.00000000000E+00  0.56661730588E+03  0.71955683847E+03  0.44351648500E+03 0.  0.
      99925    2    3    3    0    0  0.56221647561E+02  0.81799687270E+02  0.39869117185E+03  0.48782691575E+03  0.26299883408E+03 0.  0.
         25    1    4    4    0    0 -0.12890573656E+02  0.36059377423E+02  0.19559146062E+03  0.23530825135E+03  0.12509000000E+03 0.  0.
         25    1    4    4    0    0  0.69112221217E+02  0.45740309847E+02  0.20309971123E+03  0.25251866440E+03  0.12509000000E+03 0.  0.
         25    1    3    3    0    0 -0.56221647561E+02 -0.81799687270E+02  0.16792613403E+03  0.23172992272E+03  0.12509000000E+03 0.  0.
<mgrwt>
<rscale>  2 0.44351648E+03</rscale>
<asrwt>0</asrwt>
<pdfrwt beam="1">  1       21 0.94571625E-01 0.44351648E+03</pdfrwt>
<pdfrwt beam="2">  1       21 0.11245554E-01 0.44351648E+03</pdfrwt>
<totfact> 0.56814452E+04</totfact>
</mgrwt>
</event>
<event>
 7    0  0.4732500E-002  0.4520963E+03  0.7546771E-02  0.1027099E+00
         21   -1    0    0  502  501  0.00000000000E+00  0.00000000000E+00  0.55892420592E+02  0.55892420592E+02  0.00000000000E+00 0. -1.
         21   -1    0    0  501  502 -0.00000000000E+00 -0.00000000000E+00 -0.91421636773E+03  0.91421636773E+03  0.00000000000E+00 0. -1.
      99926    2    1    2    0    0  0.35527136788E-14 -0.71054273576E-14 -0.85832394714E+03  0.97010878833E+03  0.45209629832E+03 0.  0.
      99925    2    3    3    0    0 -0.27353342936E+02  0.43134488722E+02 -0.75159038206E+03  0.79792182163E+03  0.26302536290E+03 0.  0.
         25    1    4    4    0    0 -0.50316736794E+02  0.89479987589E+01 -0.41697166367E+03  0.43832033616E+03  0.12509000000E+03 0.  0.
         25    1    3    3    0    0  0.27353342936E+02 -0.43134488722E+02 -0.10673356508E+03  0.17218696670E+03  0.12509000000E+03 0.  0.
         25    1    4    4    0    0  0.22963393858E+02  0.34186489963E+02 -0.33461871839E+03  0.35960148547E+03  0.12509000000E+03 0.  0.
<mgrwt>
<rscale>  2 0.45209630E+03</rscale>
<asrwt>0</asrwt>
<pdfrwt beam="1">  1       21 0.82194741E-02 0.45209630E+03</pdfrwt>
<pdfrwt beam="2">  1       21 0.13444358E+00 0.45209630E+03</pdfrwt>
<totfact> 0.41265944E+04</totfact>
</mgrwt>
</event>
<event>
 6    0  0.4732500E-002  0.4599477E+03  0.7546771E-02  0.1024796E+00
         21   -1    0    0  502  501  0.00000000000E+00  0.00000000000E+00  0.13249264266E+04  0.13249264266E+04  0.00000000000E+00 0. -1.
         21   -1    0    0  501  502 -0.00000000000E+00 -0.00000000000E+00 -0.39917669012E+02  0.39917669012E+02  0.00000000000E+00 0. -1.
      99926    2    1    2    0    0 -0.35527136788E-14  0.00000000000E+00  0.12850087576E+04  0.13648440956E+04  0.45994771251E+03 0.  0.
         25    1    3    3    0    0  0.27482224598E+02 -0.54038543023E+02  0.76377323319E+03  0.77631984171E+03  0.12509000000E+03 0.  0.
         25    1    3    3    0    0 -0.22182149999E+02  0.21423281993E+02  0.35643428905E+03  0.37900384602E+03  0.12509000000E+03 0.  0.
         25    1    3    3    0    0 -0.53000745993E+01  0.32615261030E+02  0.16480123534E+03  0.20952040786E+03  0.12509000000E+03 0.  0.
<mgrwt>
<rscale>  2 0.45994771E+03</rscale>
<asrwt>0</asrwt>
<pdfrwt beam="1">  1       21 0.19484209E+00 0.45994771E+03</pdfrwt>
<pdfrwt beam="2">  1       21 0.58702463E-02 0.45994771E+03</pdfrwt>
<totfact> 0.26259643E+04</totfact>
</mgrwt>
</event>
<event>
 7    0  0.4732500E-002  0.4497008E+03  0.7546771E-02  0.1027811E+00
         21   -1    0    0  502  501  0.00000000000E+00  0.00000000000E+00  0.27903293791E+03  0.27903293791E+03  0.00000000000E+00 0. -1.
         21   -1    0    0  501  502 -0.00000000000E+00 -0.00000000000E+00 -0.18118904220E+03  0.18118904220E+03  0.00000000000E+00 0. -1.
      99926    2    1    2    0    0  0.00000000000E+00  0.71054273576E-14  0.97843895710E+02  0.46022198011E+03  0.44970083728E+03 0.  0.
      99925    2    3    3    0    0  0.46268773591E+02 -0.57180598058E+02  0.14301662256E+03  0.30824006160E+03  0.26295961865E+03 0.  0.
         25    1    4    4    0    0  0.18347698702E+02  0.10167828392E+02  0.51107994840E+02  0.13674632726E+03  0.12509000000E+03 0.  0.
         25    1    4    4    0    0  0.27921074889E+02 -0.67348426450E+02  0.91908627722E+02  0.17149373434E+03  0.12509000000E+03 0.  0.
         25    1    3    3    0    0 -0.46268773591E+02  0.57180598058E+02 -0.45172726853E+02  0.15198191851E+03  0.12509000000E+03 0.  0.
<mgrwt>
<rscale>  2 0.44970084E+03</rscale>
<asrwt>0</asrwt>
<pdfrwt beam="1">  1       21 0.41034256E-01 0.44970084E+03</pdfrwt>
<pdfrwt beam="2">  1       21 0.26645447E-01 0.44970084E+03</pdfrwt>
<totfact> 0.71112810E+04</totfact>
</mgrwt>
</event>
<event>
 7    0  0.4732500E-002  0.4511050E+03  0.7546771E-02  0.1027393E+00
         21   -1    0    0  502  501  0.00000000000E+00  0.00000000000E+00  0.60746942779E+03  0.60746942779E+03  0.00000000000E+00 0.  1.
         21   -1    0    0  501  502 -0.00000000000E+00 -0.00000000000E+00 -0.83747324880E+02  0.83747324880E+02  0.00000000000E+00 0.  1.
      99926    2    1    2    0    0  0.00000000000E+00  0.00000000000E+00  0.52372210291E+03  0.69121675267E+03  0.45110504109E+03 0.  0.
      99925    2    3    3    0    0  0.23434262020E+02 -0.34342540809E+02  0.48595781067E+03  0.55409554857E+03  0.26294164457E+03 0.  0.
         25    1    3    3    0    0 -0.23434262020E+02  0.34342540809E+02  0.37764292240E+02  0.13712120410E+03  0.12509000000E+03 0.  0.
         25    1    4    4    0    0  0.17750675487E+00 -0.14201032991E+02  0.15989093590E+03  0.20350508674E+03  0.12509000000E+03 0.  0.
         25    1    4    4    0    0  0.23256755265E+02 -0.20141507818E+02  0.32606687477E+03  0.35059046182E+03  0.12509000000E+03 0.  0.
<mgrwt>
<rscale>  2 0.45110504E+03</rscale>
<asrwt>0</asrwt>
<pdfrwt beam="1">  1       21 0.89333737E-01 0.45110504E+03</pdfrwt>
<pdfrwt beam="2">  1       21 0.12315783E-01 0.45110504E+03</pdfrwt>
<totfact> 0.55051038E+04</totfact>
</mgrwt>
</event>
<event>
 7    0  0.4732500E-002  0.4569245E+03  0.7546771E-02  0.1025677E+00
         21   -1    0    0  502  501  0.00000000000E+00  0.00000000000E+00  0.22972183700E+03  0.22972183700E+03  0.00000000000E+00 0.  1.
         21   -1    0    0  501  502 -0.00000000000E+00 -0.00000000000E+00 -0.22720954037E+03  0.22720954037E+03  0.00000000000E+00 0.  1.
      99926    2    1    2    0    0  0.14210854715E-13 -0.71054273576E-14  0.25122966260E+01  0.45693137737E+03  0.45692447077E+03 0.  0.
      99925    2    3    3    0    0 -0.78752756570E+02  0.37542612822E+02  0.76520491497E+02  0.28741392856E+03  0.26294473994E+03 0.  0.
         25    1    4    4    0    0 -0.48348928360E+02  0.59033873765E+02  0.40425615283E+02  0.15200116972E+03  0.12509000000E+03 0.  0.
         25    1    4    4    0    0 -0.30403828210E+02 -0.21491260943E+02  0.36094876213E+02  0.13541275884E+03  0.12509000000E+03 0.  0.
         25    1    3    3    0    0  0.78752756570E+02 -0.37542612822E+02 -0.74008194870E+02  0.16951744882E+03  0.12509000000E+03 0.  0.
<mgrwt>
<rscale>  2 0.45692447E+03</rscale>
<asrwt>0</asrwt>
<pdfrwt beam="1">  1       21 0.33782623E-01 0.45692447E+03</pdfrwt>
<pdfrwt beam="2">  1       21 0.33413167E-01 0.45692447E+03</pdfrwt>
<totfact> 0.67364177E+04</totfact>
</mgrwt>
</event>
<event>
 7    0  0.4732500E-002  0.4549457E+03  0.7546771E-02  0.1026257E+00
         21   -1    0    0  502  501  0.00000000000E+00  0.00000000000E+00  0.14716775117E+04  0.14716775117E+04  0.00000000000E+00 0. -1.
         21   -1    0    0  501  502 -0.00000000000E+00 -0.00000000000E+00 -0.35159810210E+02  0.35159810210E+02  0.00000000000E+00 0. -1.
      99926    2    1    2    0    0  0.00000000000E+00  0.14210854715E-13  0.14365177015E+04  0.15068373219E+04  0.45494571985E+03 0.  0.
      99925    2    3    3    0    0  0.65062221970E+02 -0.80805289228E+02  0.10529404757E+04  0.10902540964E+04  0.26307368160E+03 0.  0.
         25    1    4    4    0    0  0.37447714282E+01 -0.27991610947E+02  0.59594522302E+03  0.60958655705E+03  0.12509000000E+03 0.  0.
         25    1    4    4    0    0  0.61317450542E+02 -0.52813678281E+02  0.45699525267E+03  0.48066753938E+03  0.12509000000E+03 0.  0.
         25    1    3    3    0    0 -0.65062221970E+02  0.80805289228E+02  0.38357722581E+03  0.41658322548E+03  0.12509000000E+03 0.  0.
<mgrwt>
<rscale>  2 0.45494572E+03</rscale>
<asrwt>0</asrwt>
<pdfrwt beam="1">  1       21 0.21642312E+00 0.45494572E+03</pdfrwt>
<pdfrwt beam="2">  1       21 0.51705613E-02 0.45494572E+03</pdfrwt>
<totfact> 0.23622005E+04</totfact>
</mgrwt>
</event>
<event>
 7    0  0.4732500E-002  0.4242128E+03  0.7546771E-02  0.1035704E+00
         21   -1    0    0  502  501  0.00000000000E+00  0.00000000000E+00  0.63999582256E+02  0.63999582256E+02  0.00000000000E+00 0. -1.
         21   -1    0    0  501  502 -0.00000000000E+00 -0.00000000000E+00 -0.70295955404E+03  0.70295955404E+03  0.00000000000E+00 0. -1.
      99926    2    1    2    0    0  0.00000000000E+00  0.00000000000E+00 -0.63895997179E+03  0.76695913630E+03  0.42421276644E+03 0.  0.
      99925    2    3    3    0    0  0.25445697284E+02 -0.64424752537E+02 -0.34002825865E+03  0.43558969071E+03  0.26328906116E+03 0.  0.
         25    1    4    4    0    0  0.42409833737E+02 -0.24577163741E+02 -0.12757872566E+03  0.18527404113E+03  0.12509000000E+03 0.  0.
         25    1    3    3    0    0 -0.25445697284E+02  0.64424752537E+02 -0.29893171314E+03  0.33136944559E+03  0.12509000000E+03 0.  0.
         25    1    4    4    0    0 -0.16964136453E+02 -0.39847588796E+02 -0.21244953299E+03  0.25031564958E+03  0.12509000000E+03 0.  0.
<mgrwt>
<rscale>  2 0.42421277E+03</rscale>
<asrwt>0</asrwt>
<pdfrwt beam="1">  1       21 0.94117040E-02 0.42421277E+03</pdfrwt>
<pdfrwt beam="2">  1       21 0.10337640E+00 0.42421277E+03</pdfrwt>
<totfact> 0.63393946E+04</totfact>
</mgrwt>
</event>
<event>
 7    0  0.4732500E-002  0.4307773E+03  0.7546771E-02  0.1033615E+00
         21   -1    0    0  502  501  0.00000000000E+00  0.00000000000E+00  0.14819943762E+04  0.14819943762E+04  0.00000000000E+00 0. -1.
         21   -1    0    0  501  502 -0.00000000000E+00 -0.00000000000E+00 -0.31303950402E+02  0.31303950402E+02  0.00000000000E+00 0. -1.
      99926    2    1    2    0    0  0.35527136788E-14  0.14210854715E-13  0.14506904258E+04  0.15132983266E+04  0.43077733667E+03 0.  0.
      99925    2    3    3    0    0 -0.20438781470E+02 -0.73842000729E+02  0.77973529376E+03  0.82649509265E+03  0.26312853319E+03 0.  0.
         25    1    4    4    0    0 -0.46090098806E+02 -0.55591424272E+02  0.38386777407E+03  0.41014226767E+03  0.12509000000E+03 0.  0.
         25    1    4    4    0    0  0.25651317336E+02 -0.18250576457E+02  0.39586751969E+03  0.41635282498E+03  0.12509000000E+03 0.  0.
         25    1    3    3    0    0  0.20438781470E+02  0.73842000729E+02  0.67095513202E+03  0.68680323394E+03  0.12509000000E+03 0.  0.
<mgrwt>
<rscale>  2 0.43077734E+03</rscale>
<asrwt>0</asrwt>
<pdfrwt beam="1">  1       21 0.21794030E+00 0.43077734E+03</pdfrwt>
<pdfrwt beam="2">  1       21 0.46035231E-02 0.43077734E+03</pdfrwt>
<totfact> 0.28441724E+04</totfact>
</mgrwt>
</event>
<event>
 7    0  0.4732500E-002  0.4333845E+03  0.7546771E-02  0.1032796E+00
         21   -1    0    0  502  501  0.00000000000E+00  0.00000000000E+00  0.13423817720E+03  0.13423817720E+03  0.00000000000E+00 0. -1.
         21   -1    0    0  501  502 -0.00000000000E+00 -0.00000000000E+00 -0.34979262213E+03  0.34979262213E+03  0.00000000000E+00 0. -1.
      99926    2    1    2    0    0  0.00000000000E+00 -0.71054273576E-14 -0.21555444493E+03  0.48403079933E+03  0.43338446669E+03 0.  0.
      99925    2    3    3    0    0 -0.35815336445E+02 -0.40007017891E+02 -0.55505808190E+02  0.27392041399E+03  0.26280829259E+03 0.  0.
         25    1    4    4    0    0 -0.30956416524E+02 -0.28771515899E+02  0.95746169765E+01  0.13238308518E+03  0.12509000000E+03 0.  0.
         25    1    3    3    0    0  0.35815336445E+02  0.40007017891E+02 -0.16004863674E+03  0.21011038534E+03  0.12509000000E+03 0.  0.
         25    1    4    4    0    0 -0.48589199215E+01 -0.11235501993E+02 -0.65080425166E+02  0.14153732881E+03  0.12509000000E+03 0.  0.
<mgrwt>
<rscale>  2 0.43338447E+03</rscale>
<asrwt>0</asrwt>
<pdfrwt beam="1">  1       21 0.19740908E-01 0.43338447E+03</pdfrwt>
<pdfrwt beam="2">  1       21 0.51440092E-01 0.43338447E+03</pdfrwt>
<totfact> 0.79140327E+04</totfact>
</mgrwt>
</event>
<event>
 7    0  0.4732500E-002  0.4523686E+03  0.7546771E-02  0.1027018E+00
         21   -1    0    0  502  501  0.00000000000E+00  0.00000000000E+00  0.11103464325E+04  0.11103464325E+04  0.00000000000E+00 0.  1.
         21   -1    0    0  501  502 -0.00000000000E+00 -0.00000000000E+00 -0.46075113300E+02  0.46075113300E+02  0.00000000000E+00 0.  1.
      99926    2    1    2    0    0  0.00000000000E+00 -0.35527136788E-14  0.10642713192E+04  0.11564215458E+04  0.45236860050E+03 0.  0.
      99925    2    3    3    0    0  0.12248403426E+02 -0.18534740619E+02  0.39392308080E+03  0.47414020440E+03  0.26294482282E+03 0.  0.
         25    1    4    4    0    0  0.90752704027E+01 -0.24245085924E+02  0.26610678520E+03  0.29517878303E+03  0.12509000000E+03 0.  0.
         25    1    3    3    0    0 -0.12248403426E+02  0.18534740619E+02  0.67034823841E+03  0.68228134141E+03  0.12509000000E+03 0.  0.
         25    1    4    4    0    0  0.31731330233E+01  0.57103453051E+01  0.12781629560E+03  0.17896142137E+03  0.12509000000E+03 0.  0.
<mgrwt>
<rscale>  2 0.45236860E+03</rscale>
<asrwt>0</asrwt>
<pdfrwt beam="1">  1       21 0.16328622E+00 0.45236860E+03</pdfrwt>
<pdfrwt beam="2">  1       21 0.67757527E-02 0.45236860E+03</pdfrwt>
<totfact> 0.34266005E+04</totfact>
</mgrwt>
</event>
<event>
 7    0  0.4732500E-002  0.4528211E+03  0.7546771E-02  0.1026884E+00
         21   -1    0    0  502  501  0.00000000000E+00  0.00000000000E+00  0.31237144113E+03  0.31237144113E+03  0.00000000000E+00 0.  1.
         21   -1    0    0  501  502 -0.00000000000E+00 -0.00000000000E+00 -0.16410507200E+03  0.16410507200E+03  0.00000000000E+00 0.  1.
      99926    2    1    2    0    0  0.35527136788E-14  0.00000000000E+00  0.14826636912E+03  0.47647651313E+03  0.45282110303E+03 0.  0.
      99925    2    3    3    0    0 -0.27737247112E+02 -0.73492736155E+02  0.17627266436E+03  0.32613557453E+03  0.26291029578E+03 0.  0.
         25    1    4    4    0    0  0.78636222720E+01 -0.70770042172E+02  0.10105701577E+03  0.17587002008E+03  0.12509000000E+03 0.  0.
         25    1    4    4    0    0 -0.35600869384E+02 -0.27226939830E+01  0.75215648591E+02  0.15026555446E+03  0.12509000000E+03 0.  0.
         25    1    3    3    0    0  0.27737247112E+02  0.73492736155E+02 -0.28006295244E+02  0.15034093860E+03  0.12509000000E+03 0.  0.
<mgrwt>
<rscale>  2 0.45282110E+03</rscale>
<asrwt>0</asrwt>
<pdfrwt beam="1">  1       21 0.45936977E-01 0.45282110E+03</pdfrwt>
<pdfrwt beam="2">  1       21 0.24133099E-01 0.45282110E+03</pdfrwt>
<totfact> 0.68128056E+04</totfact>
</mgrwt>
</event>
<event>
 7    0  0.4732500E-002  0.4507321E+03  0.7546771E-02  0.1027504E+00
         21   -1    0    0  502  501  0.00000000000E+00  0.00000000000E+00  0.47645275161E+03  0.47645275161E+03  0.00000000000E+00 0.  1.
         21   -1    0    0  501  502 -0.00000000000E+00 -0.00000000000E+00 -0.10659997446E+03  0.10659997446E+03  0.00000000000E+00 0.  1.
      99926    2    1    2    0    0  0.00000000000E+00  0.00000000000E+00  0.36985277715E+03  0.58305272607E+03  0.45073207631E+03 0.  0.
      99925    2    3    3    0    0  0.19090518326E+02  0.10592622623E+03  0.21085813239E+03  0.35389858918E+03  0.26305559514E+03 0.  0.
         25    1    4    4    0    0 -0.14435115486E+01  0.93927915490E+02  0.10622518023E+03  0.18909213111E+03  0.12509000000E+03 0.  0.
         25    1    4    4    0    0  0.20534029875E+02  0.11998310736E+02  0.10463295216E+03  0.16480645807E+03  0.12509000000E+03 0.  0.
         25    1    3    3    0    0 -0.19090518326E+02 -0.10592622623E+03  0.15899464476E+03  0.22915413690E+03  0.12509000000E+03 0.  0.
<mgrwt>
<rscale>  2 0.45073208E+03</rscale>
<asrwt>0</asrwt>
<pdfrwt beam="1">  1       21 0.70066580E-01 0.45073208E+03</pdfrwt>
<pdfrwt beam="2">  1       21 0.15676467E-01 0.45073208E+03</pdfrwt>
<totfact> 0.61792216E+04</totfact>
</mgrwt>
</event>
<event>
 7    0  0.4732500E-002  0.4589511E+03  0.7546771E-02  0.1025086E+00
         21   -1    0    0  502  501  0.00000000000E+00  0.00000000000E+00  0.17080331169E+04  0.17080331169E+04  0.00000000000E+00 0. -1.
         21   -1    0    0  501  502 -0.00000000000E+00 -0.00000000000E+00 -0.30830218275E+02  0.30830218275E+02  0.00000000000E+00 0. -1.
      99926    2    1    2    0    0  0.00000000000E+00 -0.71054273576E-14  0.16772028987E+04  0.17388633352E+04  0.45895112513E+03 0.  0.
      99925    2    3    3    0    0 -0.50060481977E+02  0.58190071319E+02  0.13860223745E+04  0.14127870527E+04  0.26271105313E+03 0.  0.
         25    1    3    3    0    0  0.50060481977E+02 -0.58190071319E+02  0.29118052413E+03  0.32607628247E+03  0.12509000000E+03 0.  0.
         25    1    4    4    0    0 -0.55657816573E+02  0.20544998575E+02  0.83965701378E+03  0.85099429987E+03  0.12509000000E+03 0.  0.
         25    1    4    4    0    0  0.55973345962E+01  0.37645072745E+02  0.54636536075E+03  0.56179275288E+03  0.12509000000E+03 0.  0.
<mgrwt>
<rscale>  2 0.45895113E+03</rscale>
<asrwt>0</asrwt>
<pdfrwt beam="1">  1       21 0.25118128E+00 0.45895113E+03</pdfrwt>
<pdfrwt beam="2">  1       21 0.45338568E-02 0.45895113E+03</pdfrwt>
<totfact> 0.17908667E+04</totfact>
</mgrwt>
</event>
<event>
 7    0  0.4732500E-002  0.4540010E+03  0.7546771E-02  0.1026536E+00
         21   -1    0    0  502  501  0.00000000000E+00  0.00000000000E+00  0.52306416299E+03  0.52306416299E+03  0.00000000000E+00 0. -1.
         21   -1    0    0  501  502 -0.00000000000E+00 -0.00000000000E+00 -0.98514169898E+02  0.98514169898E+02  0.00000000000E+00 0. -1.
      99926    2    1    2    0    0  0.00000000000E+00  0.00000000000E+00  0.42454999309E+03  0.62157833288E+03  0.45400102123E+03 0.  0.
      99925    2    3    3    0    0 -0.10790253901E+03 -0.20372116270E+02  0.29867119216E+03  0.41288966125E+03  0.26308821771E+03 0.  0.
         25    1    4    4    0    0 -0.10684298656E+02 -0.18674850671E+01  0.12899839922E+03  0.18001593496E+03  0.12509000000E+03 0.  0.
         25    1    4    4    0    0 -0.97218240349E+02 -0.18504631203E+02  0.16967279293E+03  0.23287372629E+03  0.12509000000E+03 0.  0.
         25    1    3    3    0    0  0.10790253901E+03  0.20372116270E+02  0.12587880093E+03  0.20868867164E+03  0.12509000000E+03 0.  0.
<mgrwt>
<rscale>  2 0.45400102E+03</rscale>
<asrwt>0</asrwt>
<pdfrwt beam="1">  1       21 0.76921199E-01 0.45400102E+03</pdfrwt>
<pdfrwt beam="2">  1       21 0.14487378E-01 0.45400102E+03</pdfrwt>
<totfact> 0.57824113E+04</totfact>
</mgrwt>
</event>
<event>
 7    0  0.4732500E-002  0.4716954E+03  0.7546771E-02  0.1021443E+00
         21   -1    0    0  502  501  0.00000000000E+00  0.00000000000E+00  0.11547766776E+03  0.11547766776E+03  0.00000000000E+00 0.  1.
         21   -1    0    0  501  502 -0.00000000000E+00 -0.00000000000E+00 -0.48168730939E+03  0.48168730939E+03  0.00000000000E+00 0.  1.
      99926    2    1    2    0    0 -0.14210854715E-13 -0.71054273576E-14 -0.36620964163E+03  0.59716497715E+03  0.47169535541E+03 0.  0.
      99925    2    3    3    0    0 -0.12018883074E+03 -0.43961369734E+02 -0.23634013480E+03  0.37605063124E+03  0.26301988684E+03 0.  0.
         25    1    4    4    0    0 -0.74382253280E+02 -0.60579363805E+02 -0.11543202104E+03  0.19538331173E+03  0.12509000000E+03 0.  0.
         25    1    3    3    0    0  0.12018883074E+03  0.43961369734E+02 -0.12986950682E+03  0.22111434591E+03  0.12509000000E+03 0.  0.
         25    1    4    4    0    0 -0.45806577462E+02  0.16617994071E+02 -0.12090811376E+03  0.18066731951E+03  0.12509000000E+03 0.  0.
<mgrwt>
<rscale>  2 0.47169536E+03</rscale>
<asrwt>0</asrwt>
<pdfrwt beam="1">  1       21 0.16982010E-01 0.47169536E+03</pdfrwt>
<pdfrwt beam="2">  1       21 0.70836369E-01 0.47169536E+03</pdfrwt>
<totfact> 0.51688458E+04</totfact>
</mgrwt>
</event>
<event>
 7    0  0.4732500E-002  0.4439226E+03  0.7546771E-02  0.1029550E+00
         21   -1    0    0  502  501  0.00000000000E+00  0.00000000000E+00  0.80210916023E+03  0.80210916023E+03  0.00000000000E+00 0.  1.
         21   -1    0    0  501  502 -0.00000000000E+00 -0.00000000000E+00 -0.61421593508E+02  0.61421593508E+02  0.00000000000E+00 0.  1.
      99926    2    1    2    0    0  0.00000000000E+00  0.88817841970E-15  0.74068756672E+03  0.86353075374E+03  0.44392261843E+03 0.  0.
      99925    2    3    3    0    0  0.89835674800E+02 -0.22153056401E+01  0.56665759059E+03  0.63113175043E+03  0.26296597761E+03 0.  0.
         25    1    3    3    0    0 -0.89835674800E+02  0.22153056401E+01  0.17402997613E+03  0.23239900331E+03  0.12509000000E+03 0.  0.
         25    1    4    4    0    0  0.55473684161E+02 -0.10633944046E+02  0.20395301676E+03  0.24583480540E+03  0.12509000000E+03 0.  0.
         25    1    4    4    0    0  0.34361990639E+02  0.84186384056E+01  0.36270457383E+03  0.38529694503E+03  0.12509000000E+03 0.  0.
<mgrwt>
<rscale>  2 0.44392262E+03</rscale>
<asrwt>0</asrwt>
<pdfrwt beam="1">  1       21 0.11795722E+00 0.44392262E+03</pdfrwt>
<pdfrwt beam="2">  1       21 0.90325878E-02 0.44392262E+03</pdfrwt>
<totfact> 0.48956634E+04</totfact>
</mgrwt>
</event>
<event>
 7    0  0.4732500E-002  0.4531342E+03  0.7546771E-02  0.1026791E+00
         21   -1    0    0  502  501  0.00000000000E+00  0.00000000000E+00  0.28818894836E+03  0.28818894836E+03  0.00000000000E+00 0.  1.
         21   -1    0    0  501  502 -0.00000000000E+00 -0.00000000000E+00 -0.17812153781E+03  0.17812153781E+03  0.00000000000E+00 0.  1.
      99926    2    1    2    0    0  0.00000000000E+00 -0.35527136788E-14  0.11006741055E+03  0.46631048617E+03  0.45313423469E+03 0.  0.
      99925    2    3    3    0    0 -0.75102789384E+02 -0.25353910652E+02 -0.11205093558E+02  0.27490051226E+03  0.26298571779E+03 0.  0.
         25    1    4    4    0    0 -0.56658552143E+02 -0.43586736064E+01  0.29294020013E+02  0.14048073631E+03  0.12509000000E+03 0.  0.
         25    1    3    3    0    0  0.75102789384E+02  0.25353910652E+02  0.12127250411E+03  0.19140997391E+03  0.12509000000E+03 0.  0.
         25    1    4    4    0    0 -0.18444237241E+02 -0.20995237045E+02 -0.40499113571E+02  0.13441977595E+03  0.12509000000E+03 0.  0.
<mgrwt>
<rscale>  2 0.45313423E+03</rscale>
<asrwt>0</asrwt>
<pdfrwt beam="1">  1       21 0.42380728E-01 0.45313423E+03</pdfrwt>
<pdfrwt beam="2">  1       21 0.26194344E-01 0.45313423E+03</pdfrwt>
<totfact> 0.68722711E+04</totfact>
</mgrwt>
</event>
<event>
 7    0  0.4732500E-002  0.4519658E+03  0.7546771E-02  0.1027137E+00
         21   -1    0    0  502  501  0.00000000000E+00  0.00000000000E+00  0.63245573875E+02  0.63245573875E+02  0.00000000000E+00 0. -1.
         21   -1    0    0  501  502 -0.00000000000E+00 -0.00000000000E+00 -0.80746014886E+03  0.80746014886E+03  0.00000000000E+00 0. -1.
      99926    2    1    2    0    0 -0.17763568394E-14 -0.14210854715E-13 -0.74421457499E+03  0.87070572274E+03  0.45196584161E+03 0.  0.
      99925    2    3    3    0    0 -0.10736125540E+02  0.94613982320E+02 -0.36259522207E+03  0.45797347459E+03  0.26305386961E+03 0.  0.
         25    1    3    3    0    0  0.10736125540E+02 -0.94613982320E+02 -0.38161935292E+03  0.41273224815E+03  0.12509000000E+03 0.  0.
         25    1    4    4    0    0 -0.41901211733E+02  0.55806919090E+02 -0.16028245427E+03  0.21496068712E+03  0.12509000000E+03 0.  0.
         25    1    4    4    0    0  0.31165086193E+02  0.38807063230E+02 -0.20231276780E+03  0.24301278746E+03  0.12509000000E+03 0.  0.
<mgrwt>
<rscale>  2 0.45196584E+03</rscale>
<asrwt>0</asrwt>
<pdfrwt beam="1">  1       21 0.93008194E-02 0.45196584E+03</pdfrwt>
<pdfrwt beam="2">  1       21 0.11874414E+00 0.45196584E+03</pdfrwt>
<totfact> 0.45598645E+04</totfact>
</mgrwt>
</event>
<event>
 7    0  0.4732500E-002  0.4553318E+03  0.7546771E-02  0.1026144E+00
         21   -1    0    0  502  501  0.00000000000E+00  0.00000000000E+00  0.48711534306E+03  0.48711534306E+03  0.00000000000E+00 0. -1.
         21   -1    0    0  501  502 -0.00000000000E+00 -0.00000000000E+00 -0.10640552482E+03  0.10640552482E+03  0.00000000000E+00 0. -1.
      99926    2    1    2    0    0  0.00000000000E+00  0.00000000000E+00  0.38070981824E+03  0.59352086788E+03  0.45533180749E+03 0.  0.
      99925    2    3    3    0    0  0.58130606965E+02  0.84543980672E+02  0.17622329775E+03  0.33277367749E+03  0.26297683858E+03 0.  0.
         25    1    3    3    0    0 -0.58130606965E+02 -0.84543980672E+02  0.20448652049E+03  0.26074719039E+03  0.12509000000E+03 0.  0.
         25    1    4    4    0    0  0.51874760000E+02  0.63443708773E+02  0.61763028342E+02  0.16179701690E+03  0.12509000000E+03 0.  0.
         25    1    4    4    0    0  0.62558469648E+01  0.21100271899E+02  0.11446026940E+03  0.17097666059E+03  0.12509000000E+03 0.  0.
<mgrwt>
<rscale>  2 0.45533181E+03</rscale>
<asrwt>0</asrwt>
<pdfrwt beam="1">  1       21 0.71634609E-01 0.45533181E+03</pdfrwt>
<pdfrwt beam="2">  1       21 0.15647871E-01 0.45533181E+03</pdfrwt>
<totfact> 0.58924194E+04</totfact>
</mgrwt>
</event>
<event>
 7    0  0.4732500E-002  0.4535795E+03  0.7546771E-02  0.1026660E+00
         21   -1    0    0  502  501  0.00000000000E+00  0.00000000000E+00  0.14193908926E+03  0.14193908926E+03  0.00000000000E+00 0. -1.
         21   -1    0    0  501  502 -0.00000000000E+00 -0.00000000000E+00 -0.36236383010E+03  0.36236383010E+03  0.00000000000E+00 0. -1.
      99926    2    1    2    0    0  0.00000000000E+00  0.00000000000E+00 -0.22042474085E+03  0.50430291936E+03  0.45357950582E+03 0.  0.
      99925    2    3    3    0    0  0.82801332432E+02  0.74506896287E+02 -0.12796251948E+03  0.31298091663E+03  0.26301199505E+03 0.  0.
         25    1    4    4    0    0  0.43531725533E+01  0.14077665026E+02 -0.51756840545E+02  0.13617418774E+03  0.12509000000E+03 0.  0.
         25    1    4    4    0    0  0.78448159879E+02  0.60429231261E+02 -0.76205678938E+02  0.17680672889E+03  0.12509000000E+03 0.  0.
         25    1    3    3    0    0 -0.82801332432E+02 -0.74506896287E+02 -0.92462221365E+02  0.19132200272E+03  0.12509000000E+03 0.  0.
<mgrwt>
<rscale>  2 0.45357951E+03</rscale>
<asrwt>0</asrwt>
<pdfrwt beam="1">  1       21 0.20873395E-01 0.45357951E+03</pdfrwt>
<pdfrwt beam="2">  1       21 0.53288799E-01 0.45357951E+03</pdfrwt>
<totfact> 0.65707132E+04</totfact>
</mgrwt>
</event>
<event>
 7    0  0.4732500E-002  0.4569572E+03  0.7546771E-02  0.1025667E+00
         21   -1    0    0  502  501  0.00000000000E+00  0.00000000000E+00  0.13186167128E+03  0.13186167128E+03  0.00000000000E+00 0. -1.
         21   -1    0    0  501  502 -0.00000000000E+00 -0.00000000000E+00 -0.39588821597E+03  0.39588821597E+03  0.00000000000E+00 0. -1.
      99926    2    1    2    0    0  0.00000000000E+00  0.71054273576E-14 -0.26402654469E+03  0.52774988725E+03  0.45695724875E+03 0.  0.
      99925    2    3    3    0    0 -0.69201472105E+02 -0.46592153108E+02 -0.25732357117E+03  0.37724370655E+03  0.26294052822E+03 0.  0.
         25    1    3    3    0    0  0.69201472105E+02  0.46592153108E+02 -0.67029735249E+01  0.15050618069E+03  0.12509000000E+03 0.  0.
         25    1    4    4    0    0 -0.49992278237E+01 -0.11795149633E+02 -0.15651979326E+03  0.20077368258E+03  0.12509000000E+03 0.  0.
         25    1    4    4    0    0 -0.64202244281E+02 -0.34797003475E+02 -0.10080377791E+03  0.17647002398E+03  0.12509000000E+03 0.  0.
<mgrwt>
<rscale>  2 0.45695725E+03</rscale>
<asrwt>0</asrwt>
<pdfrwt beam="1">  1       21 0.19391422E-01 0.45695725E+03</pdfrwt>
<pdfrwt beam="2">  1       21 0.58218856E-01 0.45695725E+03</pdfrwt>
<totfact> 0.62385578E+04</totfact>
</mgrwt>
</event>
<event>
 7    0  0.4732500E-002  0.4582980E+03  0.7546771E-02  0.1025276E+00
         21   -1    0    0  502  501  0.00000000000E+00  0.00000000000E+00  0.12553433373E+03  0.12553433373E+03  0.00000000000E+00 0. -1.
         21   -1    0    0  501  502 -0.00000000000E+00 -0.00000000000E+00 -0.41828605684E+03  0.41828605684E+03  0.00000000000E+00 0. -1.
      99926    2    1    2    0    0  0.00000000000E+00  0.00000000000E+00 -0.29275172311E+03  0.54382039057E+03  0.45829798801E+03 0.  0.
      99925    2    3    3    0    0 -0.83472371607E+02 -0.18991352456E+02 -0.27696221385E+03  0.39142247394E+03  0.26301174292E+03 0.  0.
         25    1    4    4    0    0 -0.20206794032E+02 -0.17603615765E+02 -0.84493736026E+02  0.15331308274E+03  0.12509000000E+03 0.  0.
         25    1    4    4    0    0 -0.63265577575E+02 -0.13877366918E+01 -0.19246847782E+03  0.23810939119E+03  0.12509000000E+03 0.  0.
         25    1    3    3    0    0  0.83472371607E+02  0.18991352456E+02 -0.15789509265E+02  0.15239791663E+03  0.12509000000E+03 0.  0.
<mgrwt>
<rscale>  2 0.45829799E+03</rscale>
<asrwt>0</asrwt>
<pdfrwt beam="1">  1       21 0.18460931E-01 0.45829799E+03</pdfrwt>
<pdfrwt beam="2">  1       21 0.61512656E-01 0.45829799E+03</pdfrwt>
<totfact> 0.60677604E+04</totfact>
</mgrwt>
</event>
<event>
 7    0  0.4732500E-002  0.4551599E+03  0.7546771E-02  0.1026194E+00
         21   -1    0    0  502  501  0.00000000000E+00  0.00000000000E+00  0.19843811431E+03  0.19843811431E+03  0.00000000000E+00 0.  1.
         21   -1    0    0  501  502 -0.00000000000E+00 -0.00000000000E+00 -0.26100142620E+03  0.26100142620E+03  0.00000000000E+00 0.  1.
      99926    2    1    2    0    0 -0.35527136788E-14  0.00000000000E+00 -0.62563311891E+02  0.45943954051E+03  0.45515988772E+03 0.  0.
      99925    2    3    3    0    0  0.29738847451E+02 -0.84911014446E+02  0.30225030129E+02  0.27957441343E+03  0.26297152085E+03 0.  0.
         25    1    3    3    0    0 -0.29738847451E+02  0.84911014446E+02 -0.92788342020E+02  0.17986512707E+03  0.12509000000E+03 0.  0.
         25    1    4    4    0    0  0.42313927259E+02 -0.12415721861E+02  0.94696486928E+01  0.13297293309E+03  0.12509000000E+03 0.  0.
         25    1    4    4    0    0 -0.12575079808E+02 -0.72495292585E+02  0.20755381436E+02  0.14660148034E+03  0.12509000000E+03 0.  0.
<mgrwt>
<rscale>  2 0.45515989E+03</rscale>
<asrwt>0</asrwt>
<pdfrwt beam="1">  1       21 0.29182076E-01 0.45515989E+03</pdfrwt>
<pdfrwt beam="2">  1       21 0.38382563E-01 0.45515989E+03</pdfrwt>
<totfact> 0.68134518E+04</totfact>
</mgrwt>
</event>
<event>
 7    0  0.4732500E-002  0.4547249E+03  0.7546771E-02  0.1026322E+00
         21   -1    0    0  502  501  0.00000000000E+00  0.00000000000E+00  0.44451457870E+03  0.44451457870E+03  0.00000000000E+00 0.  1.
         21   -1    0    0  501  502 -0.00000000000E+00 -0.00000000000E+00 -0.11629245724E+03  0.11629245724E+03  0.00000000000E+00 0.  1.
      99926    2    1    2    0    0  0.00000000000E+00  0.00000000000E+00  0.32822212146E+03  0.56080703594E+03  0.45472493944E+03 0.  0.
      99925    2    3    3    0    0  0.51886525534E+02 -0.50840651814E+02  0.31308952656E+03  0.41536465238E+03  0.26310788547E+03 0.  0.
         25    1    3    3    0    0 -0.51886525534E+02  0.50840651814E+02  0.15132594899E+02  0.14544238357E+03  0.12509000000E+03 0.  0.
         25    1    4    4    0    0  0.59972975152E+02 -0.40244207489E+01  0.14870941928E+03  0.20340834101E+03  0.12509000000E+03 0.  0.
         25    1    4    4    0    0 -0.80864496184E+01 -0.46816231065E+02  0.16438010728E+03  0.21195631137E+03  0.12509000000E+03 0.  0.
<mgrwt>
<rscale>  2 0.45472494E+03</rscale>
<asrwt>0</asrwt>
<pdfrwt beam="1">  1       21 0.65369790E-01 0.45472494E+03</pdfrwt>
<pdfrwt beam="2">  1       21 0.17101832E-01 0.45472494E+03</pdfrwt>
<totfact> 0.61291213E+04</totfact>
</mgrwt>
</event>
<event>
 7    0  0.4732500E-002  0.4504319E+03  0.7546771E-02  0.1027593E+00
         21   -1    0    0  502  501  0.00000000000E+00  0.00000000000E+00  0.20926126206E+03  0.20926126206E+03  0.00000000000E+00 0.  1.
         21   -1    0    0  501  502 -0.00000000000E+00 -0.00000000000E+00 -0.24238711239E+03  0.24238711239E+03  0.00000000000E+00 0.  1.
      99926    2    1    2    0    0  0.00000000000E+00  0.00000000000E+00 -0.33125850328E+02  0.45164837444E+03  0.45043193956E+03 0.  0.
      99925    2    3    3    0    0  0.32016121098E+02  0.25508507259E+02 -0.12199692776E+03  0.29283624500E+03  0.26304771440E+03 0.  0.
         25    1    4    4    0    0  0.41898352356E+02 -0.18508284391E+02 -0.63074142050E+02  0.14739024397E+03  0.12509000000E+03 0.  0.
         25    1    4    4    0    0 -0.98822312584E+01  0.44016791651E+02 -0.58922785713E+02  0.14544600104E+03  0.12509000000E+03 0.  0.
         25    1    3    3    0    0 -0.32016121098E+02 -0.25508507259E+02  0.88871077434E+02  0.15881212944E+03  0.12509000000E+03 0.  0.
<mgrwt>
<rscale>  2 0.45043194E+03</rscale>
<asrwt>0</asrwt>
<pdfrwt beam="1">  1       21 0.30773715E-01 0.45043194E+03</pdfrwt>
<pdfrwt beam="2">  1       21 0.35645163E-01 0.45043194E+03</pdfrwt>
<totfact> 0.71357613E+04</totfact>
</mgrwt>
</event>
<event>
 7    0  0.4732500E-002  0.4588382E+03  0.7546771E-02  0.1025119E+00
         21   -1    0    0  502  501  0.00000000000E+00  0.00000000000E+00  0.80971716288E+02  0.80971716288E+02  0.00000000000E+00 0.  1.
         21   -1    0    0  501  502 -0.00000000000E+00 -0.00000000000E+00 -0.65001853938E+03  0.65001853938E+03  0.00000000000E+00 0.  1.
      99926    2    1    2    0    0  0.00000000000E+00 -0.35527136788E-14 -0.56904682309E+03  0.73099025567E+03  0.45883817083E+03 0.  0.
      99925    2    3    3    0    0 -0.91866704573E+02  0.24812070704E+02 -0.24900934608E+03  0.37444204707E+03  0.26295638786E+03 0.  0.
         25    1    4    4    0    0 -0.81099832236E+02  0.28660639118E+02 -0.15953617324E+03  0.22022241870E+03  0.12509000000E+03 0.  0.
         25    1    3    3    0    0  0.91866704573E+02 -0.24812070704E+02 -0.32003747701E+03  0.35654820860E+03  0.12509000000E+03 0.  0.
         25    1    4    4    0    0 -0.10766872337E+02 -0.38485684141E+01 -0.89473172838E+02  0.15421962838E+03  0.12509000000E+03 0.  0.
<mgrwt>
<rscale>  2 0.45883817E+03</rscale>
<asrwt>0</asrwt>
<pdfrwt beam="1">  1       21 0.11907605E-01 0.45883817E+03</pdfrwt>
<pdfrwt beam="2">  1       21 0.95590963E-01 0.45883817E+03</pdfrwt>
<totfact> 0.49734392E+04</totfact>
</mgrwt>
</event>
<event>
 7    0  0.4732500E-002  0.4588251E+03  0.7546771E-02  0.1025123E+00
         21   -1    0    0  502  501  0.00000000000E+00  0.00000000000E+00  0.94692933835E+03  0.94692933835E+03  0.00000000000E+00 0. -1.
         21   -1    0    0  501  502 -0.00000000000E+00 -0.00000000000E+00 -0.55579780915E+02  0.55579780915E+02  0.00000000000E+00 0. -1.
      99926    2    1    2    0    0  0.00000000000E+00  0.00000000000E+00  0.89134955743E+03  0.10025091193E+04  0.45882513082E+03 0.  0.
      99925    2    3    3    0    0  0.22234142408E+02  0.50842488554E+02  0.33478520859E+03  0.42936803870E+03  0.26305220210E+03 0.  0.
         25    1    4    4    0    0  0.31372579364E+01  0.22086250614E+02  0.10233238704E+03  0.16314738855E+03  0.12509000000E+03 0.  0.
         25    1    4    4    0    0  0.19096884471E+02  0.28756237940E+02  0.23245282155E+03  0.26622065014E+03  0.12509000000E+03 0.  0.
         25    1    3    3    0    0 -0.22234142408E+02 -0.50842488554E+02  0.55656434884E+03  0.57314108057E+03  0.12509000000E+03 0.  0.
<mgrwt>
<rscale>  2 0.45882513E+03</rscale>
<asrwt>0</asrwt>
<pdfrwt beam="1">  1       21 0.13925430E+00 0.45882513E+03</pdfrwt>
<pdfrwt beam="2">  1       21 0.81734978E-02 0.45882513E+03</pdfrwt>
<totfact> 0.37923737E+04</totfact>
</mgrwt>
</event>
<event>
 7    0  0.4732500E-002  0.4539564E+03  0.7546771E-02  0.1026549E+00
         21   -1    0    0  502  501  0.00000000000E+00  0.00000000000E+00  0.32842804809E+02  0.32842804809E+02  0.00000000000E+00 0. -1.
         21   -1    0    0  501  502 -0.00000000000E+00 -0.00000000000E+00 -0.15686573857E+04  0.15686573857E+04  0.00000000000E+00 0. -1.
      99926    2    1    2    0    0  0.00000000000E+00  0.00000000000E+00 -0.15358145808E+04  0.16015001905E+04  0.45395642227E+03 0.  0.
      99925    2    3    3    0    0 -0.51319701850E+02  0.88247361189E+02 -0.11313096143E+04  0.11659624945E+04  0.26303191173E+03 0.  0.
         25    1    4    4    0    0 -0.59608827029E+02  0.32905976190E+02 -0.65665615446E+03  0.67192323134E+03  0.12509000000E+03 0.  0.
         25    1    4    4    0    0  0.82891251788E+01  0.55341384999E+02 -0.47465345988E+03  0.49403926319E+03  0.12509000000E+03 0.  0.
         25    1    3    3    0    0  0.51319701850E+02 -0.88247361189E+02 -0.40450496650E+03  0.43553769593E+03  0.12509000000E+03 0.  0.
<mgrwt>
<rscale>  2 0.45395642E+03</rscale>
<asrwt>0</asrwt>
<pdfrwt beam="1">  1       21 0.48298256E-02 0.45395642E+03</pdfrwt>
<pdfrwt beam="2">  1       21 0.23068485E+00 0.45395642E+03</pdfrwt>
<totfact> 0.21570177E+04</totfact>
</mgrwt>
</event>
<event>
 7    0  0.4732500E-002  0.4607971E+03  0.7546771E-02  0.1024550E+00
         21   -1    0    0  502  501  0.00000000000E+00  0.00000000000E+00  0.14222958104E+03  0.14222958104E+03  0.00000000000E+00 0.  1.
         21   -1    0    0  501  502 -0.00000000000E+00 -0.00000000000E+00 -0.37322398412E+03  0.37322398412E+03  0.00000000000E+00 0.  1.
      99926    2    1    2    0    0  0.35527136788E-14  0.00000000000E+00 -0.23099440308E+03  0.51545356516E+03  0.46079709589E+03 0.  0.
      99925    2    3    3    0    0 -0.16005713425E+02 -0.10731767819E+03 -0.19754846207E+03  0.34651746486E+03  0.26320275772E+03 0.  0.
         25    1    3    3    0    0  0.16005713425E+02  0.10731767819E+03 -0.33445941016E+02  0.16893610030E+03  0.12509000000E+03 0.  0.
         25    1    4    4    0    0 -0.23002065159E+02 -0.18244990890E+02 -0.67366876270E+02  0.14507852637E+03  0.12509000000E+03 0.  0.
         25    1    4    4    0    0  0.69963517337E+01 -0.89072687302E+02 -0.13018158580E+03  0.20143893849E+03  0.12509000000E+03 0.  0.
<mgrwt>
<rscale>  2 0.46079710E+03</rscale>
<asrwt>0</asrwt>
<pdfrwt beam="1">  1       21 0.20916115E-01 0.46079710E+03</pdfrwt>
<pdfrwt beam="2">  1       21 0.54885879E-01 0.46079710E+03</pdfrwt>
<totfact> 0.61327784E+04</totfact>
</mgrwt>
</event>
<event>
 7    0  0.4732500E-002  0.4538540E+03  0.7546771E-02  0.1026579E+00
         21   -1    0    0  502  501  0.00000000000E+00  0.00000000000E+00  0.43920448518E+02  0.43920448518E+02  0.00000000000E+00 0.  1.
         21   -1    0    0  501  502 -0.00000000000E+00 -0.00000000000E+00 -0.11724805822E+04  0.11724805822E+04  0.00000000000E+00 0.  1.
      99926    2    1    2    0    0  0.00000000000E+00  0.00000000000E+00 -0.11285601337E+04  0.12164010307E+04  0.45385404283E+03 0.  0.
      99925    2    3    3    0    0  0.72876849512E+02  0.56081390393E+02 -0.53917633213E+03  0.60691195684E+03  0.26301111894E+03 0.  0.
         25    1    4    4    0    0  0.73522148361E+02  0.12566598907E+02 -0.30118475688E+03  0.33454923642E+03  0.12509000000E+03 0.  0.
         25    1    3    3    0    0 -0.72876849512E+02 -0.56081390393E+02 -0.58938380152E+03  0.60948907385E+03  0.12509000000E+03 0.  0.
         25    1    4    4    0    0 -0.64529884859E+00  0.43514791487E+02 -0.23799157525E+03  0.27236272042E+03  0.12509000000E+03 0.  0.
<mgrwt>
<rscale>  2 0.45385404E+03</rscale>
<asrwt>0</asrwt>
<pdfrwt beam="1">  1       21 0.64588895E-02 0.45385404E+03</pdfrwt>
<pdfrwt beam="2">  1       21 0.17242362E+00 0.45385404E+03</pdfrwt>
<totfact> 0.31924391E+04</totfact>
</mgrwt>
</event>
<event>
 7    0  0.4732500E-002  0.4464497E+03  0.7546771E-02  0.1028786E+00
         21   -1    0    0  502  501  0.00000000000E+00  0.00000000000E+00  0.66321123452E+02  0.66321123452E+02  0.00000000000E+00 0. -1.
         21   -1    0    0  501  502 -0.00000000000E+00 -0.00000000000E+00 -0.75133413095E+03  0.75133413095E+03  0.00000000000E+00 0. -1.
      99926    2    1    2    0    0  0.00000000000E+00  0.71054273576E-14 -0.68501300750E+03  0.81765525440E+03  0.44644965518E+03 0.  0.
      99925    2    3    3    0    0 -0.85991689600E+02 -0.59656508723E+02 -0.44955157690E+03  0.53122365155E+03  0.26296098182E+03 0.  0.
         25    1    4    4    0    0 -0.76294768096E+02 -0.10641161178E+02 -0.20790903455E+03  0.25457376278E+03  0.12509000000E+03 0.  0.
         25    1    3    3    0    0  0.85991689600E+02  0.59656508723E+02 -0.23546143060E+03  0.28643160286E+03  0.12509000000E+03 0.  0.
         25    1    4    4    0    0 -0.96969215046E+01 -0.49015347544E+02 -0.24164254235E+03  0.27664988877E+03  0.12509000000E+03 0.  0.
<mgrwt>
<rscale>  2 0.44644966E+03</rscale>
<asrwt>0</asrwt>
<pdfrwt beam="1">  1       21 0.97531063E-02 0.44644966E+03</pdfrwt>
<pdfrwt beam="2">  1       21 0.11049031E+00 0.44644966E+03</pdfrwt>
<totfact> 0.50207429E+04</totfact>
</mgrwt>
</event>
<event>
 7    0  0.4732500E-002  0.4540417E+03  0.7546771E-02  0.1026524E+00
         21   -1    0    0  502  501  0.00000000000E+00  0.00000000000E+00  0.10938041385E+03  0.10938041385E+03  0.00000000000E+00 0. -1.
         21   -1    0    0  501  502 -0.00000000000E+00 -0.00000000000E+00 -0.47118546752E+03  0.47118546752E+03  0.00000000000E+00 0. -1.
      99926    2    1    2    0    0  0.00000000000E+00  0.00000000000E+00 -0.36180505367E+03  0.58056588137E+03  0.45404167843E+03 0.  0.
      99925    2    3    3    0    0  0.87830398043E+02 -0.27972108786E+02 -0.30985367029E+03  0.41672732661E+03  0.26297480880E+03 0.  0.
         25    1    4    4    0    0  0.72395527304E+02 -0.24500810592E+01 -0.12243837699E+03  0.18943542312E+03  0.12509000000E+03 0.  0.
         25    1    4    4    0    0  0.15434870739E+02 -0.25522027727E+02 -0.18741529330E+03  0.22729190350E+03  0.12509000000E+03 0.  0.
         25    1    3    3    0    0 -0.87830398043E+02  0.27972108786E+02 -0.51951383381E+02  0.16383855476E+03  0.12509000000E+03 0.  0.
<mgrwt>
<rscale>  2 0.45404168E+03</rscale>
<asrwt>0</asrwt>
<pdfrwt beam="1">  1       21 0.16085355E-01 0.45404168E+03</pdfrwt>
<pdfrwt beam="2">  1       21 0.69291980E-01 0.45404168E+03</pdfrwt>
<totfact> 0.60346614E+04</totfact>
</mgrwt>
</event>
<event>
 7    0  0.4732500E-002  0.4546547E+03  0.7546771E-02  0.1026343E+00
         21   -1    0    0  502  501  0.00000000000E+00  0.00000000000E+00  0.28266010791E+02  0.28266010791E+02  0.00000000000E+00 0.  1.
         21   -1    0    0  501  502 -0.00000000000E+00 -0.00000000000E+00 -0.18282641543E+04  0.18282641543E+04  0.00000000000E+00 0.  1.
      99926    2    1    2    0    0  0.00000000000E+00  0.00000000000E+00 -0.17999981435E+04  0.18565301651E+04  0.45465474511E+03 0.  0.
      99925    2    3    3    0    0 -0.34902667018E+02 -0.61140573080E+02 -0.14928045475E+04  0.15174552775E+04  0.26315154652E+03 0.  0.
         25    1    3    3    0    0  0.34902667018E+02  0.61140573080E+02 -0.30719359598E+03  0.33907488753E+03  0.12509000000E+03 0.  0.
         25    1    4    4    0    0  0.24514168480E+01 -0.41334757905E+02 -0.55653909462E+03  0.57192468350E+03  0.12509000000E+03 0.  0.
         25    1    4    4    0    0 -0.37354083866E+02 -0.19805815176E+02 -0.93626545288E+03  0.94553059404E+03  0.12509000000E+03 0.  0.
<mgrwt>
<rscale>  2 0.45465475E+03</rscale>
<asrwt>0</asrwt>
<pdfrwt beam="1">  1       21 0.41567669E-02 0.45465475E+03</pdfrwt>
<pdfrwt beam="2">  1       21 0.26886233E+00 0.45465475E+03</pdfrwt>
<totfact> 0.16240449E+04</totfact>
</mgrwt>
</event>
<event>
 7    0  0.4732500E-002  0.4528060E+03  0.7546771E-02  0.1026889E+00
         21   -1    0    0  502  501  0.00000000000E+00  0.00000000000E+00  0.10496426923E+04  0.10496426923E+04  0.00000000000E+00 0. -1.
         21   -1    0    0  501  502 -0.00000000000E+00 -0.00000000000E+00 -0.48834066001E+02  0.48834066001E+02  0.00000000000E+00 0. -1.
      99926    2    1    2    0    0  0.00000000000E+00  0.00000000000E+00  0.10008086263E+04  0.10984767583E+04  0.45280600929E+03 0.  0.
      99925    2    3    3    0    0 -0.83637722490E+02 -0.21159655072E+02  0.80065697822E+03  0.84717775322E+03  0.26308848159E+03 0.  0.
         25    1    4    4    0    0 -0.63196461936E+02  0.18010281149E+02  0.35146995543E+03  0.37880971568E+03  0.12509000000E+03 0.  0.
         25    1    3    3    0    0  0.83637722490E+02  0.21159655072E+02  0.20015164806E+03  0.25129900507E+03  0.12509000000E+03 0.  0.
         25    1    4    4    0    0 -0.20441260554E+02 -0.39169936221E+02  0.44918702280E+03  0.46836803754E+03  0.12509000000E+03 0.  0.
<mgrwt>
<rscale>  2 0.45280601E+03</rscale>
<asrwt>0</asrwt>
<pdfrwt beam="1">  1       21 0.15435920E+00 0.45280601E+03</pdfrwt>
<pdfrwt beam="2">  1       21 0.71814810E-02 0.45280601E+03</pdfrwt>
<totfact> 0.36162093E+04</totfact>
</mgrwt>
</event>
<event>
 7    0  0.4732500E-002  0.4550875E+03  0.7546771E-02  0.1026216E+00
         21   -1    0    0  502  501  0.00000000000E+00  0.00000000000E+00  0.91979816778E+02  0.91979816778E+02  0.00000000000E+00 0.  1.
         21   -1    0    0  501  502 -0.00000000000E+00 -0.00000000000E+00 -0.56290770856E+03  0.56290770856E+03  0.00000000000E+00 0.  1.
      99926    2    1    2    0    0  0.71054273576E-14  0.00000000000E+00 -0.47092789178E+03  0.65488752534E+03  0.45508745487E+03 0.  0.
      99925    2    3    3    0    0 -0.53750397662E+02 -0.80693462352E+02 -0.21123774702E+03  0.35077073938E+03  0.26271312438E+03 0.  0.
         25    1    4    4    0    0  0.11975292587E+02 -0.37476081365E+02 -0.11511806804E+03  0.17449224050E+03  0.12509000000E+03 0.  0.
         25    1    4    4    0    0 -0.65725690249E+02 -0.43217380987E+02 -0.96119678979E+02  0.17627849887E+03  0.12509000000E+03 0.  0.
         25    1    3    3    0    0  0.53750397662E+02  0.80693462352E+02 -0.25969014476E+03  0.30411678596E+03  0.12509000000E+03 0.  0.
<mgrwt>
<rscale>  2 0.45508745E+03</rscale>
<asrwt>0</asrwt>
<pdfrwt beam="1">  1       21 0.13526443E-01 0.45508745E+03</pdfrwt>
<pdfrwt beam="2">  1       21 0.82780550E-01 0.45508745E+03</pdfrwt>
<totfact> 0.55382584E+04</totfact>
</mgrwt>
</event>
<event>
 7    0  0.4732500E-002  0.4050574E+03  0.7546771E-02  0.1042042E+00
         21   -1    0    0  502  501  0.00000000000E+00  0.00000000000E+00  0.51104528791E+03  0.51104528791E+03  0.00000000000E+00 0.  1.
         21   -1    0    0  501  502 -0.00000000000E+00 -0.00000000000E+00 -0.80262705440E+02  0.80262705440E+02  0.00000000000E+00 0.  1.
      99926    2    1    2    0    0  0.00000000000E+00  0.00000000000E+00  0.43078258247E+03  0.59130799335E+03  0.40505741524E+03 0.  0.
      99925    2    3    3    0    0 -0.35777273013E+02 -0.77706914148E+01  0.34458814316E+03  0.43504735730E+03  0.26303007010E+03 0.  0.
         25    1    4    4    0    0 -0.40590472337E+02  0.83153289106E+01  0.12420896157E+03  0.18108590606E+03  0.12509000000E+03 0.  0.
         25    1    4    4    0    0  0.48131993236E+01 -0.16086020325E+02  0.22037918160E+03  0.25396145125E+03  0.12509000000E+03 0.  0.
         25    1    3    3    0    0  0.35777273013E+02  0.77706914148E+01  0.86194439301E+02  0.15626063604E+03  0.12509000000E+03 0.  0.
<mgrwt>
<rscale>  2 0.40505742E+03</rscale>
<asrwt>0</asrwt>
<pdfrwt beam="1">  1       21 0.75153718E-01 0.40505742E+03</pdfrwt>
<pdfrwt beam="2">  1       21 0.11803339E-01 0.40505742E+03</pdfrwt>
<totfact> 0.89709233E+04</totfact>
</mgrwt>
</event>
<event>
 7    0  0.4732500E-002  0.4565550E+03  0.7546771E-02  0.1025785E+00
         21   -1    0    0  502  501  0.00000000000E+00  0.00000000000E+00  0.12061501373E+04  0.12061501373E+04  0.00000000000E+00 0. -1.
         21   -1    0    0  501  502 -0.00000000000E+00 -0.00000000000E+00 -0.43204081462E+02  0.43204081462E+02  0.00000000000E+00 0. -1.
      99926    2    1    2    0    0  0.00000000000E+00  0.00000000000E+00  0.11629460558E+04  0.12493542188E+04  0.45655496399E+03 0.  0.
      99925    2    3    3    0    0  0.53386057355E+02 -0.23544769040E+02  0.10007452687E+04  0.10363729268E+04  0.26300821914E+03 0.  0.
         25    1    4    4    0    0  0.53736929745E+02 -0.41356134668E+02  0.49096212620E+03  0.51116465543E+03  0.12509000000E+03 0.  0.
         25    1    4    4    0    0 -0.35087239052E+00  0.17811365628E+02  0.50978314252E+03  0.52520827141E+03  0.12509000000E+03 0.  0.
         25    1    3    3    0    0 -0.53386057355E+02  0.23544769040E+02  0.16220078711E+03  0.21298129192E+03  0.12509000000E+03 0.  0.
<mgrwt>
<rscale>  2 0.45655496E+03</rscale>
<asrwt>0</asrwt>
<pdfrwt beam="1">  1       21 0.17737500E+00 0.45655496E+03</pdfrwt>
<pdfrwt beam="2">  1       21 0.63535422E-02 0.45655496E+03</pdfrwt>
<totfact> 0.30253875E+04</totfact>
</mgrwt>
</event>
<event>
 7    0  0.4732500E-002  0.4024044E+03  0.7546771E-02  0.1042950E+00
         21   -1    0    0  502  501  0.00000000000E+00  0.00000000000E+00  0.33993938271E+02  0.33993938271E+02  0.00000000000E+00 0. -1.
         21   -1    0    0  501  502 -0.00000000000E+00 -0.00000000000E+00 -0.11908690264E+04  0.11908690264E+04  0.00000000000E+00 0. -1.
      99926    2    1    2    0    0  0.00000000000E+00  0.00000000000E+00 -0.11568750881E+04  0.12248629647E+04  0.40240441435E+03 0.  0.
      99925    2    3    3    0    0 -0.46714353975E+01  0.87077719944E+01 -0.91549822856E+03  0.95281895346E+03  0.26387365153E+03 0.  0.
         25    1    3    3    0    0  0.46714353975E+01 -0.87077719944E+01 -0.24137685957E+03  0.27204401122E+03  0.12509000000E+03 0.  0.
         25    1    4    4    0    0 -0.12342938984E+02  0.20553405637E+02 -0.32531078724E+03  0.34935570272E+03  0.12509000000E+03 0.  0.
         25    1    4    4    0    0  0.76715035864E+01 -0.11845633643E+02 -0.59018744132E+03  0.60346325074E+03  0.12509000000E+03 0.  0.
<mgrwt>
<rscale>  2 0.40240441E+03</rscale>
<asrwt>0</asrwt>
<pdfrwt beam="1">  1       21 0.49991081E-02 0.40240441E+03</pdfrwt>
<pdfrwt beam="2">  1       21 0.17512781E+00 0.40240441E+03</pdfrwt>
<totfact> 0.48341380E+04</totfact>
</mgrwt>
</event>
<event>
 7    0  0.4732500E-002  0.4615082E+03  0.7546771E-02  0.1024345E+00
         21   -1    0    0  502  501  0.00000000000E+00  0.00000000000E+00  0.14217659717E+02  0.14217659717E+02  0.00000000000E+00 0. -1.
         21   -1    0    0  501  502 -0.00000000000E+00 -0.00000000000E+00 -0.37451633407E+04  0.37451633407E+04  0.00000000000E+00 0. -1.
      99926    2    1    2    0    0  0.00000000000E+00  0.00000000000E+00 -0.37309456809E+04  0.37593810004E+04  0.46150821429E+03 0.  0.
      99925    2    3    3    0    0  0.11708062838E+03 -0.16553621033E+02 -0.22171428210E+04  0.22358231568E+04  0.26306083665E+03 0.  0.
         25    1    4    4    0    0  0.51068004850E+02 -0.33414101381E+02 -0.13374777489E+04  0.13447002194E+04  0.12509000000E+03 0.  0.
         25    1    3    3    0    0 -0.11708062838E+03  0.16553621033E+02 -0.15138028600E+04  0.15235578436E+04  0.12509000000E+03 0.  0.
         25    1    4    4    0    0  0.66012623534E+02  0.16860480348E+02 -0.87966507212E+03  0.89112293735E+03  0.12509000000E+03 0.  0.
<mgrwt>
<rscale>  2 0.46150821E+03</rscale>
<asrwt>0</asrwt>
<pdfrwt beam="1">  1       21 0.20908306E-02 0.46150821E+03</pdfrwt>
<pdfrwt beam="2">  1       21 0.55075977E+00 0.46150821E+03</pdfrwt>
<totfact> 0.72130052E+02</totfact>
</mgrwt>
</event>
<event>
 7    0  0.4732500E-002  0.4531129E+03  0.7546771E-02  0.1026798E+00
         21   -1    0    0  502  501  0.00000000000E+00  0.00000000000E+00  0.25524446615E+03  0.25524446615E+03  0.00000000000E+00 0. -1.
         21   -1    0    0  501  502 -0.00000000000E+00 -0.00000000000E+00 -0.20109283954E+03  0.20109283954E+03  0.00000000000E+00 0. -1.
      99926    2    1    2    0    0 -0.35527136788E-14 -0.14210854715E-13  0.54151626616E+02  0.45633730569E+03  0.45311294166E+03 0.  0.
      99925    2    3    3    0    0  0.26349537777E+02  0.80896688716E+02 -0.38415635864E+02  0.27898235490E+03  0.26290078144E+03 0.  0.
         25    1    4    4    0    0  0.65910911493E+01  0.11001052072E+01 -0.31348484789E+02  0.12913128325E+03  0.12509000000E+03 0.  0.
         25    1    4    4    0    0  0.19758446627E+02  0.79796583509E+02 -0.70671510749E+01  0.14985107166E+03  0.12509000000E+03 0.  0.
         25    1    3    3    0    0 -0.26349537777E+02 -0.80896688716E+02  0.92567262480E+02  0.17735495079E+03  0.12509000000E+03 0.  0.
<mgrwt>
<rscale>  2 0.45311294E+03</rscale>
<asrwt>0</asrwt>
<pdfrwt beam="1">  1       21 0.37535951E-01 0.45311294E+03</pdfrwt>
<pdfrwt beam="2">  1       21 0.29572476E-01 0.45311294E+03</pdfrwt>
<totfact> 0.69488132E+04</totfact>
</mgrwt>
</event>
<event>
 7    0  0.4732500E-002  0.4615267E+03  0.7546771E-02  0.1024339E+00
         21   -1    0    0  502  501  0.00000000000E+00  0.00000000000E+00  0.57409230765E+03  0.57409230765E+03  0.00000000000E+00 0.  1.
         21   -1    0    0  501  502 -0.00000000000E+00 -0.00000000000E+00 -0.92758110041E+02  0.92758110041E+02  0.00000000000E+00 0.  1.
      99926    2    1    2    0    0  0.00000000000E+00  0.71054273576E-14  0.48133419761E+03  0.66685041769E+03  0.46152667289E+03 0.  0.
      99925    2    3    3    0    0  0.91854312708E+02 -0.32528851772E+02  0.39931440718E+03  0.48832844402E+03  0.26366139744E+03 0.  0.
         25    1    4    4    0    0  0.22515214554E+02 -0.14703872674E+02  0.12729343458E+03  0.18048342125E+03  0.12509000000E+03 0.  0.
         25    1    3    3    0    0 -0.91854312708E+02  0.32528851772E+02  0.82019790427E+02  0.17852197367E+03  0.12509000000E+03 0.  0.
         25    1    4    4    0    0  0.69339098154E+02 -0.17824979098E+02  0.27202097260E+03  0.30784502277E+03  0.12509000000E+03 0.  0.
<mgrwt>
<rscale>  2 0.46152667E+03</rscale>
<asrwt>0</asrwt>
<pdfrwt beam="1">  1       21 0.84425338E-01 0.46152667E+03</pdfrwt>
<pdfrwt beam="2">  1       21 0.13640899E-01 0.46152667E+03</pdfrwt>
<totfact> 0.52011366E+04</totfact>
</mgrwt>
</event>
<event>
 7    0  0.4732500E-002  0.4469337E+03  0.7546771E-02  0.1028640E+00
         21   -1    0    0  502  501  0.00000000000E+00  0.00000000000E+00  0.80454641062E+03  0.80454641062E+03  0.00000000000E+00 0. -1.
         21   -1    0    0  501  502 -0.00000000000E+00 -0.00000000000E+00 -0.62069053159E+02  0.62069053159E+02  0.00000000000E+00 0. -1.
      99926    2    1    2    0    0  0.00000000000E+00 -0.14210854715E-13  0.74247735746E+03  0.86661546378E+03  0.44693370394E+03 0.  0.
      99925    2    3    3    0    0  0.78129324898E+02 -0.70001559672E+02  0.49498375797E+03  0.57012769058E+03  0.26273989638E+03 0.  0.
         25    1    4    4    0    0  0.45747549676E+02 -0.38836819842E+02  0.17281169187E+03  0.22161346038E+03  0.12509000000E+03 0.  0.
         25    1    3    3    0    0 -0.78129324898E+02  0.70001559672E+02  0.24749359949E+03  0.29648777319E+03  0.12509000000E+03 0.  0.
         25    1    4    4    0    0  0.32381775222E+02 -0.31164739830E+02  0.32217206610E+03  0.34851423020E+03  0.12509000000E+03 0.  0.
<mgrwt>
<rscale>  2 0.44693370E+03</rscale>
<asrwt>0</asrwt>
<pdfrwt beam="1">  1       21 0.11831564E+00 0.44693370E+03</pdfrwt>
<pdfrwt beam="2">  1       21 0.91278024E-02 0.44693370E+03</pdfrwt>
<totfact> 0.47648377E+04</totfact>
</mgrwt>
</event>
<event>
 7    0  0.4732500E-002  0.4323040E+03  0.7546771E-02  0.1033135E+00
         21   -1    0    0  502  501  0.00000000000E+00  0.00000000000E+00  0.40055229556E+02  0.40055229556E+02  0.00000000000E+00 0.  1.
         21   -1    0    0  501  502 -0.00000000000E+00 -0.00000000000E+00 -0.11664318083E+04  0.11664318083E+04  0.00000000000E+00 0.  1.
      99926    2    1    2    0    0 -0.14210854715E-13 -0.71054273576E-14 -0.11263765787E+04  0.12064870378E+04  0.43230403117E+03 0.  0.
      99925    2    3    3    0    0  0.64956797512E+02  0.41951060056E+02 -0.85451828370E+03  0.89740174595E+03  0.26296220162E+03 0.  0.
         25    1    4    4    0    0 -0.71054258890E+00  0.39530365107E+02 -0.36311394379E+03  0.38608599937E+03  0.12509000000E+03 0.  0.
         25    1    3    3    0    0 -0.64956797512E+02 -0.41951060056E+02 -0.27185829500E+03  0.30908529186E+03  0.12509000000E+03 0.  0.
         25    1    4    4    0    0  0.65667340101E+02  0.24206949490E+01 -0.49140433991E+03  0.51131574659E+03  0.12509000000E+03 0.  0.
<mgrwt>
<rscale>  2 0.43230403E+03</rscale>
<asrwt>0</asrwt>
<pdfrwt beam="1">  1       21 0.58904748E-02 0.43230403E+03</pdfrwt>
<pdfrwt beam="2">  1       21 0.17153409E+00 0.43230403E+03</pdfrwt>
<totfact> 0.38283132E+04</totfact>
</mgrwt>
</event>
<event>
 7    0  0.4732500E-002  0.4517798E+03  0.7546771E-02  0.1027193E+00
         21   -1    0    0  502  501  0.00000000000E+00  0.00000000000E+00  0.11519717668E+03  0.11519717668E+03  0.00000000000E+00 0. -1.
         21   -1    0    0  501  502 -0.00000000000E+00 -0.00000000000E+00 -0.44294701356E+03  0.44294701356E+03  0.00000000000E+00 0. -1.
      99926    2    1    2    0    0  0.00000000000E+00  0.00000000000E+00 -0.32774983689E+03  0.55814419024E+03  0.45177979317E+03 0.  0.
      99925    2    3    3    0    0  0.10600255839E+03 -0.29828628288E+02 -0.20306621676E+03  0.35001009241E+03  0.26295415370E+03 0.  0.
         25    1    3    3    0    0 -0.10600255839E+03  0.29828628288E+02 -0.12468362013E+03  0.20813409783E+03  0.12509000000E+03 0.  0.
         25    1    4    4    0    0  0.48458399519E+02 -0.50720485833E+02 -0.12564478123E+03  0.19066961824E+03  0.12509000000E+03 0.  0.
         25    1    4    4    0    0  0.57544158866E+02  0.20891857545E+02 -0.77421435525E+02  0.15934047417E+03  0.12509000000E+03 0.  0.
<mgrwt>
<rscale>  2 0.45177979E+03</rscale>
<asrwt>0</asrwt>
<pdfrwt beam="1">  1       21 0.16940761E-01 0.45177979E+03</pdfrwt>
<pdfrwt beam="2">  1       21 0.65139267E-01 0.45177979E+03</pdfrwt>
<totfact> 0.62918977E+04</totfact>
</mgrwt>
</event>
<event>
 7    0  0.4732500E-002  0.4612438E+03  0.7546771E-02  0.1024421E+00
         21   -1    0    0  502  501  0.00000000000E+00  0.00000000000E+00  0.11994564708E+04  0.11994564708E+04  0.00000000000E+00 0.  1.
         21   -1    0    0  501  502 -0.00000000000E+00 -0.00000000000E+00 -0.44342133930E+02  0.44342133930E+02  0.00000000000E+00 0.  1.
      99926    2    1    2    0    0  0.00000000000E+00  0.00000000000E+00  0.11551143369E+04  0.12437986048E+04  0.46124379442E+03 0.  0.
      99925    2    3    3    0    0  0.31077084178E+01  0.10769125432E+03  0.85868437129E+03  0.90449741596E+03  0.26300125831E+03 0.  0.
         25    1    3    3    0    0 -0.31077084178E+01 -0.10769125432E+03  0.29642996562E+03  0.33930118880E+03  0.12509000000E+03 0.  0.
         25    1    4    4    0    0  0.69450933299E+01  0.10585750679E+02  0.36935459405E+03  0.39016742135E+03  0.12509000000E+03 0.  0.
         25    1    4    4    0    0 -0.38373849121E+01  0.97105503641E+02  0.48932977724E+03  0.51432999460E+03  0.12509000000E+03 0.  0.
<mgrwt>
<rscale>  2 0.46124379E+03</rscale>
<asrwt>0</asrwt>
<pdfrwt beam="1">  1       21 0.17639064E+00 0.46124379E+03</pdfrwt>
<pdfrwt beam="2">  1       21 0.65209028E-02 0.46124379E+03</pdfrwt>
<totfact> 0.29339326E+04</totfact>
</mgrwt>
</event>
<event>
 7    0  0.4732500E-002  0.4512187E+03  0.7546771E-02  0.1027359E+00
         21   -1    0    0  502  501  0.00000000000E+00  0.00000000000E+00  0.11205317188E+04  0.11205317188E+04  0.00000000000E+00 0.  1.
         21   -1    0    0  501  502 -0.00000000000E+00 -0.00000000000E+00 -0.45424480644E+02  0.45424480644E+02  0.00000000000E+00 0.  1.
      99926    2    1    2    0    0  0.00000000000E+00  0.00000000000E+00  0.10751072381E+04  0.11659561994E+04  0.45121866703E+03 0.  0.
      99925    2    3    3    0    0  0.10961698207E+02  0.10642608826E+03  0.61888831431E+03  0.68095116270E+03  0.26310657404E+03 0.  0.
         25    1    4    4    0    0  0.33497833754E+00  0.54556764911E+02  0.40691948092E+03  0.42919404104E+03  0.12509000000E+03 0.  0.
         25    1    3    3    0    0 -0.10961698207E+02 -0.10642608826E+03  0.45621892379E+03  0.48500503669E+03  0.12509000000E+03 0.  0.
         25    1    4    4    0    0  0.10626719869E+02  0.51869323349E+02  0.21196883339E+03  0.25175712167E+03  0.12509000000E+03 0.  0.
<mgrwt>
<rscale>  2 0.45121867E+03</rscale>
<asrwt>0</asrwt>
<pdfrwt beam="1">  1       21 0.16478406E+00 0.45121867E+03</pdfrwt>
<pdfrwt beam="2">  1       21 0.66800714E-02 0.45121867E+03</pdfrwt>
<totfact> 0.34252267E+04</totfact>
</mgrwt>
</event>
<event>
 7    0  0.4732500E-002  0.4612033E+03  0.7546771E-02  0.1024433E+00
         21   -1    0    0  502  501  0.00000000000E+00  0.00000000000E+00  0.67326410926E+03  0.67326410926E+03  0.00000000000E+00 0.  1.
         21   -1    0    0  501  502 -0.00000000000E+00 -0.00000000000E+00 -0.78984035232E+02  0.78984035232E+02  0.00000000000E+00 0.  1.
      99926    2    1    2    0    0  0.14210854715E-13  0.00000000000E+00  0.59428007403E+03  0.75224814449E+03  0.46120327894E+03 0.  0.
      99925    2    3    3    0    0 -0.10042715331E+03 -0.60812729701E+02  0.34178644980E+03  0.44698704381E+03  0.26305063933E+03 0.  0.
         25    1    4    4    0    0 -0.94264030701E+01 -0.40902811175E+02  0.14941851030E+03  0.19933714244E+03  0.12509000000E+03 0.  0.
         25    1    3    3    0    0  0.10042715331E+03  0.60812729701E+02  0.25249362423E+03  0.30526110069E+03  0.12509000000E+03 0.  0.
         25    1    4    4    0    0 -0.91000750235E+02 -0.19909918525E+02  0.19236793950E+03  0.24764990136E+03  0.12509000000E+03 0.  0.
<mgrwt>
<rscale>  2 0.46120328E+03</rscale>
<asrwt>0</asrwt>
<pdfrwt beam="1">  1       21 0.99009425E-01 0.46120328E+03</pdfrwt>
<pdfrwt beam="2">  1       21 0.11615300E-01 0.46120328E+03</pdfrwt>
<totfact> 0.47783812E+04</totfact>
</mgrwt>
</event>
<event>
 7    0  0.4732500E-002  0.4565424E+03  0.7546771E-02  0.1025789E+00
         21   -1    0    0  502  501  0.00000000000E+00  0.00000000000E+00  0.17265048697E+03  0.17265048697E+03  0.00000000000E+00 0.  1.
         21   -1    0    0  501  502 -0.00000000000E+00 -0.00000000000E+00 -0.30181051987E+03  0.30181051987E+03  0.00000000000E+00 0.  1.
      99926    2    1    2    0    0  0.00000000000E+00  0.00000000000E+00 -0.12916003290E+03  0.47446100685E+03  0.45654236706E+03 0.  0.
      99925    2    3    3    0    0 -0.17708373077E+02 -0.33344115446E+02  0.31281078852E+02  0.26754490077E+03  0.26301397591E+03 0.  0.
         25    1    3    3    0    0  0.17708373077E+02  0.33344115446E+02 -0.16044111175E+03  0.20691610607E+03  0.12509000000E+03 0.  0.
         25    1    4    4    0    0 -0.29787097007E+02 -0.12341315266E+02 -0.18999105039E+02  0.13056819407E+03  0.12509000000E+03 0.  0.
         25    1    4    4    0    0  0.12078723930E+02 -0.21002800180E+02  0.50280183891E+02  0.13697670670E+03  0.12509000000E+03 0.  0.
<mgrwt>
<rscale>  2 0.45654237E+03</rscale>
<asrwt>0</asrwt>
<pdfrwt beam="1">  1       21 0.25389778E-01 0.45654237E+03</pdfrwt>
<pdfrwt beam="2">  1       21 0.44383899E-01 0.45654237E+03</pdfrwt>
<totfact> 0.66290537E+04</totfact>
</mgrwt>
</event>
<event>
 7    0  0.4732500E-002  0.4533298E+03  0.7546771E-02  0.1026734E+00
         21   -1    0    0  502  501  0.00000000000E+00  0.00000000000E+00  0.62704813657E+03  0.62704813657E+03  0.00000000000E+00 0. -1.
         21   -1    0    0  501  502 -0.00000000000E+00 -0.00000000000E+00 -0.81934669651E+02  0.81934669651E+02  0.00000000000E+00 0. -1.
      99926    2    1    2    0    0  0.17763568394E-14  0.17763568394E-14  0.54511346692E+03  0.70898280622E+03  0.45332982220E+03 0.  0.
      99925    2    3    3    0    0 -0.15291475368E+02 -0.99378410323E+01  0.17149485385E+03  0.31455795148E+03  0.26306582834E+03 0.  0.
         25    1    3    3    0    0  0.15291475368E+02  0.99378410323E+01  0.37361861307E+03  0.39442485474E+03  0.12509000000E+03 0.  0.
         25    1    4    4    0    0  0.81054149725E+01 -0.42456618131E+02  0.85509501487E+02  0.15756790638E+03  0.12509000000E+03 0.  0.
         25    1    4    4    0    0 -0.23396890341E+02  0.32518777098E+02  0.85985352361E+02  0.15699004511E+03  0.12509000000E+03 0.  0.
<mgrwt>
<rscale>  2 0.45332982E+03</rscale>
<asrwt>0</asrwt>
<pdfrwt beam="1">  1       21 0.92212959E-01 0.45332982E+03</pdfrwt>
<pdfrwt beam="2">  1       21 0.12049216E-01 0.45332982E+03</pdfrwt>
<totfact> 0.53112471E+04</totfact>
</mgrwt>
</event>
<event>
 7    0  0.4732500E-002  0.4668619E+03  0.7546771E-02  0.1022810E+00
         21   -1    0    0  502  501  0.00000000000E+00  0.00000000000E+00  0.57593206498E+03  0.57593206498E+03  0.00000000000E+00 0.  1.
         21   -1    0    0  501  502 -0.00000000000E+00 -0.00000000000E+00 -0.94611866315E+02  0.94611866315E+02  0.00000000000E+00 0.  1.
      99926    2    1    2    0    0  0.00000000000E+00  0.00000000000E+00  0.48132019866E+03  0.67054393129E+03  0.46686189623E+03 0.  0.
      99925    2    3    3    0    0  0.11284305676E+03  0.15409032979E+02  0.37006134460E+03  0.46806668698E+03  0.26300195996E+03 0.  0.
         25    1    4    4    0    0  0.63220492168E+02 -0.23970502640E+02  0.14640391415E+03  0.20409073915E+03  0.12509000000E+03 0.  0.
         25    1    4    4    0    0  0.49622564591E+02  0.39379535619E+02  0.22365743044E+03  0.26397594783E+03  0.12509000000E+03 0.  0.
         25    1    3    3    0    0 -0.11284305676E+03 -0.15409032979E+02  0.11125885407E+03  0.20247724431E+03  0.12509000000E+03 0.  0.
<mgrwt>
<rscale>  2 0.46686190E+03</rscale>
<asrwt>0</asrwt>
<pdfrwt beam="1">  1       21 0.84695890E-01 0.46686190E+03</pdfrwt>
<pdfrwt beam="2">  1       21 0.13913510E-01 0.46686190E+03</pdfrwt>
<totfact> 0.49716703E+04</totfact>
</mgrwt>
</event>
<event>
 7    0  0.4732500E-002  0.4542638E+03  0.7546771E-02  0.1026458E+00
         21   -1    0    0  502  501  0.00000000000E+00  0.00000000000E+00  0.29889221180E+03  0.29889221180E+03  0.00000000000E+00 0.  1.
         21   -1    0    0  501  502 -0.00000000000E+00 -0.00000000000E+00 -0.17260036536E+03  0.17260036536E+03  0.00000000000E+00 0.  1.
      99926    2    1    2    0    0  0.00000000000E+00  0.00000000000E+00  0.12629184644E+03  0.47149257716E+03  0.45426382185E+03 0.  0.
      99925    2    3    3    0    0 -0.10836916389E+03  0.11815956609E+02  0.10801393977E+03  0.30456420185E+03  0.26307574831E+03 0.  0.
         25    1    4    4    0    0 -0.10930756576E+02  0.35086589035E+01  0.39992067012E+02  0.13182816714E+03  0.12509000000E+03 0.  0.
         25    1    4    4    0    0 -0.97438407309E+02  0.83072977058E+01  0.68021872759E+02  0.17273603471E+03  0.12509000000E+03 0.  0.
         25    1    3    3    0    0  0.10836916389E+03 -0.11815956609E+02  0.18277906667E+02  0.16692837531E+03  0.12509000000E+03 0.  0.
<mgrwt>
<rscale>  2 0.45426382E+03</rscale>
<asrwt>0</asrwt>
<pdfrwt beam="1">  1       21 0.43954737E-01 0.45426382E+03</pdfrwt>
<pdfrwt beam="2">  1       21 0.25382407E-01 0.45426382E+03</pdfrwt>
<totfact> 0.67719555E+04</totfact>
</mgrwt>
</event>
<event>
 7    0  0.4732500E-002  0.4589504E+03  0.7546771E-02  0.1025086E+00
         21   -1    0    0  502  501  0.00000000000E+00  0.00000000000E+00  0.96909044860E+03  0.96909044860E+03  0.00000000000E+00 0.  1.
         21   -1    0    0  501  502 -0.00000000000E+00 -0.00000000000E+00 -0.54338448404E+02  0.54338448404E+02  0.00000000000E+00 0.  1.
      99926    2    1    2    0    0 -0.14210854715E-13  0.00000000000E+00  0.91475200019E+03  0.10234288970E+04  0.45895041711E+03 0.  0.
      99925    2    3    3    0    0  0.11373919869E+03  0.24680121279E+01  0.63355196787E+03  0.69530748246E+03  0.26291006594E+03 0.  0.
         25    1    4    4    0    0  0.13639255400E+02 -0.48436559309E+01  0.26692802388E+03  0.29513991313E+03  0.12509000000E+03 0.  0.
         25    1    3    3    0    0 -0.11373919869E+03 -0.24680121279E+01  0.28120003232E+03  0.32812141454E+03  0.12509000000E+03 0.  0.
         25    1    4    4    0    0  0.10009994329E+03  0.73116680588E+01  0.36662394399E+03  0.40016756933E+03  0.12509000000E+03 0.  0.
<mgrwt>
<rscale>  2 0.45895042E+03</rscale>
<asrwt>0</asrwt>
<pdfrwt beam="1">  1       21 0.14251329E+00 0.45895042E+03</pdfrwt>
<pdfrwt beam="2">  1       21 0.79909489E-02 0.45895042E+03</pdfrwt>
<totfact> 0.37109856E+04</totfact>
</mgrwt>
</event>
<event>
 7    0  0.4732500E-002  0.4619128E+03  0.7546771E-02  0.1024228E+00
         21   -1    0    0  502  501  0.00000000000E+00  0.00000000000E+00  0.48883846843E+02  0.48883846843E+02  0.00000000000E+00 0. -1.
         21   -1    0    0  501  502 -0.00000000000E+00 -0.00000000000E+00 -0.10911755506E+04  0.10911755506E+04  0.00000000000E+00 0. -1.
      99926    2    1    2    0    0 -0.44408920985E-14 -0.71054273576E-14 -0.10422917038E+04  0.11400593975E+04  0.46191279911E+03 0.  0.
      99925    2    3    3    0    0 -0.52174488564E+01 -0.61991257808E+02 -0.40022647326E+03  0.48297081427E+03  0.26307687037E+03 0.  0.
         25    1    4    4    0    0  0.32449723299E+02 -0.13690129701E+02 -0.21496018220E+03  0.25118875816E+03  0.12509000000E+03 0.  0.
         25    1    3    3    0    0  0.52174488564E+01  0.61991257808E+02 -0.64206523053E+03  0.65708858320E+03  0.12509000000E+03 0.  0.
         25    1    4    4    0    0 -0.37667172156E+02 -0.48301128107E+02 -0.18526629106E+03  0.23178205611E+03  0.12509000000E+03 0.  0.
<mgrwt>
<rscale>  2 0.46191280E+03</rscale>
<asrwt>0</asrwt>
<pdfrwt beam="1">  1       21 0.71888014E-02 0.46191280E+03</pdfrwt>
<pdfrwt beam="2">  1       21 0.16046698E+00 0.46191280E+03</pdfrwt>
<totfact> 0.32338115E+04</totfact>
</mgrwt>
</event>
<event>
 7    0  0.4732500E-002  0.4574766E+03  0.7546771E-02  0.1025516E+00
         21   -1    0    0  502  501  0.00000000000E+00  0.00000000000E+00  0.38732437639E+02  0.38732437639E+02  0.00000000000E+00 0.  1.
         21   -1    0    0  501  502 -0.00000000000E+00 -0.00000000000E+00 -0.13508369571E+04  0.13508369571E+04  0.00000000000E+00 0.  1.
      99926    2    1    2    0    0  0.53290705182E-14  0.00000000000E+00 -0.13121045195E+04  0.13895693948E+04  0.45747659264E+03 0.  0.
      99925    2    3    3    0    0  0.63103292186E+01  0.55005299830E+02 -0.11318563875E+04  0.11632901415E+04  0.26283011275E+03 0.  0.
         25    1    3    3    0    0 -0.63103292186E+01 -0.55005299830E+02 -0.18024813198E+03  0.22627925324E+03  0.12509000000E+03 0.  0.
         25    1    4    4    0    0 -0.34714329499E+02  0.40496195769E+02 -0.55279582149E+03  0.56927651884E+03  0.12509000000E+03 0.  0.
         25    1    4    4    0    0  0.41024658718E+02  0.14509104061E+02 -0.57906056603E+03  0.59401362270E+03  0.12509000000E+03 0.  0.
<mgrwt>
<rscale>  2 0.45747659E+03</rscale>
<asrwt>0</asrwt>
<pdfrwt beam="1">  1       21 0.56959473E-02 0.45747659E+03</pdfrwt>
<pdfrwt beam="2">  1       21 0.19865247E+00 0.45747659E+03</pdfrwt>
<totfact> 0.26105217E+04</totfact>
</mgrwt>
</event>
<event>
 7    0  0.4732500E-002  0.4482959E+03  0.7546771E-02  0.1028231E+00
         21   -1    0    0  502  501  0.00000000000E+00  0.00000000000E+00  0.61860914937E+03  0.61860914937E+03  0.00000000000E+00 0.  1.
         21   -1    0    0  501  502 -0.00000000000E+00 -0.00000000000E+00 -0.81218168983E+02  0.81218168983E+02  0.00000000000E+00 0.  1.
      99926    2    1    2    0    0  0.00000000000E+00  0.14210854715E-13  0.53739098038E+03  0.69982731835E+03  0.44829589526E+03 0.  0.
      99925    2    3    3    0    0 -0.16113101587E+02  0.10537200699E+03  0.34594914030E+03  0.44751723505E+03  0.26311209797E+03 0.  0.
         25    1    3    3    0    0  0.16113101587E+02 -0.10537200699E+03  0.19144184009E+03  0.25231008330E+03  0.12509000000E+03 0.  0.
         25    1    4    4    0    0 -0.44177588587E+01  0.82094370215E+02  0.13883610754E+03  0.20416163957E+03  0.12509000000E+03 0.  0.
         25    1    4    4    0    0 -0.11695342728E+02  0.23277636771E+02  0.20711303275E+03  0.24335559548E+03  0.12509000000E+03 0.  0.
<mgrwt>
<rscale>  2 0.44829590E+03</rscale>
<asrwt>0</asrwt>
<pdfrwt beam="1">  1       21 0.90971931E-01 0.44829590E+03</pdfrwt>
<pdfrwt beam="2">  1       21 0.11943849E-01 0.44829590E+03</pdfrwt>
<totfact> 0.55798464E+04</totfact>
</mgrwt>
</event>
<event>
 7    0  0.4732500E-002  0.4566511E+03  0.7546771E-02  0.1025757E+00
         21   -1    0    0  502  501  0.00000000000E+00  0.00000000000E+00  0.31071260032E+02  0.31071260032E+02  0.00000000000E+00 0. -1.
         21   -1    0    0  501  502 -0.00000000000E+00 -0.00000000000E+00 -0.16778385600E+04  0.16778385600E+04  0.00000000000E+00 0. -1.
      99926    2    1    2    0    0  0.00000000000E+00 -0.35527136788E-14 -0.16467673000E+04  0.17089098200E+04  0.45665110616E+03 0.  0.
      99925    2    3    3    0    0  0.82792060161E+02 -0.17998408246E+02 -0.74572465210E+03  0.79528854768E+03  0.26305921271E+03 0.  0.
         25    1    4    4    0    0  0.65376808134E+02 -0.34207851557E+02 -0.33106450377E+03  0.36151835072E+03  0.12509000000E+03 0.  0.
         25    1    3    3    0    0 -0.82792060161E+02  0.17998408246E+02 -0.90104264785E+03  0.91362127234E+03  0.12509000000E+03 0.  0.
         25    1    4    4    0    0  0.17415252027E+02  0.16209443311E+02 -0.41466014833E+03  0.43377019696E+03  0.12509000000E+03 0.  0.
<mgrwt>
<rscale>  2 0.45665111E+03</rscale>
<asrwt>0</asrwt>
<pdfrwt beam="1">  1       21 0.45693022E-02 0.45665111E+03</pdfrwt>
<pdfrwt beam="2">  1       21 0.24674101E+00 0.45665111E+03</pdfrwt>
<totfact> 0.18834444E+04</totfact>
</mgrwt>
</event>
<event>
 7    0  0.4732500E-002  0.4534163E+03  0.7546771E-02  0.1026708E+00
         21   -1    0    0  502  501  0.00000000000E+00  0.00000000000E+00  0.34806851228E+02  0.34806851228E+02  0.00000000000E+00 0.  1.
         21   -1    0    0  501  502 -0.00000000000E+00 -0.00000000000E+00 -0.14766227282E+04  0.14766227282E+04  0.00000000000E+00 0.  1.
      99926    2    1    2    0    0 -0.35527136788E-14  0.00000000000E+00 -0.14418158770E+04  0.15114295795E+04  0.45341631035E+03 0.  0.
      99925    2    3    3    0    0  0.21315939594E+02  0.22072405451E+02 -0.12664028276E+04  0.12938087938E+04  0.26310361593E+03 0.  0.
         25    1    4    4    0    0 -0.24779623723E+02 -0.84162372886E+01 -0.57936194261E+03  0.59328966909E+03  0.12509000000E+03 0.  0.
         25    1    3    3    0    0 -0.21315939594E+02 -0.22072405451E+02 -0.17541304939E+03  0.21762078568E+03  0.12509000000E+03 0.  0.
         25    1    4    4    0    0  0.46095563317E+02  0.30488642740E+02 -0.68704088500E+03  0.70051912469E+03  0.12509000000E+03 0.  0.
<mgrwt>
<rscale>  2 0.45341631E+03</rscale>
<asrwt>0</asrwt>
<pdfrwt beam="1">  1       21 0.51186549E-02 0.45341631E+03</pdfrwt>
<pdfrwt beam="2">  1       21 0.21715039E+00 0.45341631E+03</pdfrwt>
<totfact> 0.23791693E+04</totfact>
</mgrwt>
</event>
<event>
 7    0  0.4732500E-002  0.4530592E+03  0.7546771E-02  0.1026814E+00
         21   -1    0    0  502  501  0.00000000000E+00  0.00000000000E+00  0.59440334160E+02  0.59440334160E+02  0.00000000000E+00 0. -1.
         21   -1    0    0  501  502 -0.00000000000E+00 -0.00000000000E+00 -0.86331374433E+03  0.86331374433E+03  0.00000000000E+00 0. -1.
      99926    2    1    2    0    0  0.00000000000E+00  0.00000000000E+00 -0.80387341017E+03  0.92275407849E+03  0.45305919016E+03 0.  0.
      99925    2    3    3    0    0 -0.10177210647E+02 -0.67318391900E+01 -0.73201462628E+03  0.77797809223E+03  0.26316459796E+03 0.  0.
         25    1    4    4    0    0 -0.36101627621E+02  0.22977610226E+02 -0.37720634803E+03  0.39970418460E+03  0.12509000000E+03 0.  0.
         25    1    3    3    0    0  0.10177210647E+02  0.67318391900E+01 -0.71858783883E+02  0.14477598626E+03  0.12509000000E+03 0.  0.
         25    1    4    4    0    0  0.25924416974E+02 -0.29709449416E+02 -0.35480827825E+03  0.37827390763E+03  0.12509000000E+03 0.  0.
<mgrwt>
<rscale>  2 0.45305919E+03</rscale>
<asrwt>0</asrwt>
<pdfrwt beam="1">  1       21 0.87412257E-02 0.45305919E+03</pdfrwt>
<pdfrwt beam="2">  1       21 0.12695790E+00 0.45305919E+03</pdfrwt>
<totfact> 0.42912050E+04</totfact>
</mgrwt>
</event>
<event>
 7    0  0.4732500E-002  0.4572006E+03  0.7546771E-02  0.1025596E+00
         21   -1    0    0  502  501  0.00000000000E+00  0.00000000000E+00  0.20728370686E+03  0.20728370686E+03  0.00000000000E+00 0.  1.
         21   -1    0    0  501  502 -0.00000000000E+00 -0.00000000000E+00 -0.25210903204E+03  0.25210903204E+03  0.00000000000E+00 0.  1.
      99926    2    1    2    0    0  0.14210854715E-13  0.00000000000E+00 -0.44825325186E+02  0.45939273890E+03  0.45720058921E+03 0.  0.
      99925    2    3    3    0    0  0.84817974279E+02 -0.75583245464E+02 -0.48436826185E+02  0.29037360745E+03  0.26279990491E+03 0.  0.
         25    1    3    3    0    0 -0.84817974279E+02  0.75583245464E+02  0.36115009994E+01  0.16901913145E+03  0.12509000000E+03 0.  0.
         25    1    4    4    0    0  0.82013739371E+02 -0.26736276920E+02 -0.28061001892E+02  0.15451863925E+03  0.12509000000E+03 0.  0.
         25    1    4    4    0    0  0.28042349076E+01 -0.48846968543E+02 -0.20375824293E+02  0.13585496820E+03  0.12509000000E+03 0.  0.
<mgrwt>
<rscale>  2 0.45720059E+03</rscale>
<asrwt>0</asrwt>
<pdfrwt beam="1">  1       21 0.30482898E-01 0.45720059E+03</pdfrwt>
<pdfrwt beam="2">  1       21 0.37074857E-01 0.45720059E+03</pdfrwt>
<totfact> 0.67040352E+04</totfact>
</mgrwt>
</event>
<event>
 7    0  0.4732500E-002  0.4622698E+03  0.7546771E-02  0.1024125E+00
         21   -1    0    0  502  501  0.00000000000E+00  0.00000000000E+00  0.26136284886E+03  0.26136284886E+03  0.00000000000E+00 0.  1.
         21   -1    0    0  501  502 -0.00000000000E+00 -0.00000000000E+00 -0.20440296790E+03  0.20440296790E+03  0.00000000000E+00 0.  1.
      99926    2    1    2    0    0  0.00000000000E+00 -0.35527136788E-14  0.56959880958E+02  0.46576581676E+03  0.46226980003E+03 0.  0.
      99925    2    3    3    0    0 -0.11818215848E+03 -0.17796242469E+02  0.26353999955E+02  0.29007302555E+03  0.26299068046E+03 0.  0.
         25    1    4    4    0    0 -0.35465598623E+02 -0.42124302643E+02  0.61775910134E+01  0.13681350916E+03  0.12509000000E+03 0.  0.
         25    1    3    3    0    0  0.11818215848E+03  0.17796242469E+02  0.30605881002E+02  0.17569279120E+03  0.12509000000E+03 0.  0.
         25    1    4    4    0    0 -0.82716559859E+02  0.24328060174E+02  0.20176408942E+02  0.15325951639E+03  0.12509000000E+03 0.  0.
<mgrwt>
<rscale>  2 0.46226980E+03</rscale>
<asrwt>0</asrwt>
<pdfrwt beam="1">  1       21 0.38435713E-01 0.46226980E+03</pdfrwt>
<pdfrwt beam="2">  1       21 0.30059260E-01 0.46226980E+03</pdfrwt>
<totfact> 0.63972267E+04</totfact>
</mgrwt>
</event>
<event>
 7    0  0.4732500E-002  0.4476710E+03  0.7546771E-02  0.1028419E+00
         21   -1    0    0  502  501  0.00000000000E+00  0.00000000000E+00  0.59045962620E+02  0.59045962620E+02  0.00000000000E+00 0. -1.
         21   -1    0    0  501  502 -0.00000000000E+00 -0.00000000000E+00 -0.84853100525E+03  0.84853100525E+03  0.00000000000E+00 0. -1.
      99926    2    1    2    0    0  0.00000000000E+00  0.00000000000E+00 -0.78948504263E+03  0.90757696787E+03  0.44767099534E+03 0.  0.
      99925    2    3    3    0    0 -0.86517362350E+02 -0.17608433222E+02 -0.38086889374E+03  0.47121705204E+03  0.26303818165E+03 0.  0.
         25    1    4    4    0    0 -0.57548738201E+02  0.65728974709E+01 -0.13586221565E+03  0.19354872769E+03  0.12509000000E+03 0.  0.
         25    1    3    3    0    0  0.86517362350E+02  0.17608433222E+02 -0.40861614889E+03  0.43635991583E+03  0.12509000000E+03 0.  0.
         25    1    4    4    0    0 -0.28968624149E+02 -0.24181330692E+02 -0.24500667809E+03  0.27766832435E+03  0.12509000000E+03 0.  0.
<mgrwt>
<rscale>  2 0.44767100E+03</rscale>
<asrwt>0</asrwt>
<pdfrwt beam="1">  1       21 0.86832303E-02 0.44767100E+03</pdfrwt>
<pdfrwt beam="2">  1       21 0.12478396E+00 0.44767100E+03</pdfrwt>
<totfact> 0.45459307E+04</totfact>
</mgrwt>
</event>
<event>
 7    0  0.4732500E-002  0.4538230E+03  0.7546771E-02  0.1026588E+00
         21   -1    0    0  502  501  0.00000000000E+00  0.00000000000E+00  0.57178215426E+02  0.57178215426E+02  0.00000000000E+00 0. -1.
         21   -1    0    0  501  502 -0.00000000000E+00 -0.00000000000E+00 -0.90049743782E+03  0.90049743782E+03  0.00000000000E+00 0. -1.
      99926    2    1    2    0    0  0.00000000000E+00  0.00000000000E+00 -0.84331922240E+03  0.95767565325E+03  0.45382303375E+03 0.  0.
      99925    2    3    3    0    0 -0.38026270072E+02 -0.10522970412E+03 -0.53108235578E+03  0.60319200508E+03  0.26319733761E+03 0.  0.
         25    1    3    3    0    0  0.38026270072E+02  0.10522970412E+03 -0.31223686662E+03  0.35448364817E+03  0.12509000000E+03 0.  0.
         25    1    4    4    0    0 -0.52385978395E+02 -0.79344909001E+02 -0.30637495798E+03  0.34431530360E+03  0.12509000000E+03 0.  0.
         25    1    4    4    0    0  0.14359708322E+02 -0.25884795121E+02 -0.22470739780E+03  0.25887670148E+03  0.12509000000E+03 0.  0.
<mgrwt>
<rscale>  2 0.45382303E+03</rscale>
<asrwt>0</asrwt>
<pdfrwt beam="1">  1       21 0.84085613E-02 0.45382303E+03</pdfrwt>
<pdfrwt beam="2">  1       21 0.13242609E+00 0.45382303E+03</pdfrwt>
<totfact> 0.41209510E+04</totfact>
</mgrwt>
</event>
<event>
 7    0  0.4732500E-002  0.4210187E+03  0.7546771E-02  0.1036735E+00
         21   -1    0    0  502  501  0.00000000000E+00  0.00000000000E+00  0.21993405201E+03  0.21993405201E+03  0.00000000000E+00 0. -1.
         21   -1    0    0  501  502 -0.00000000000E+00 -0.00000000000E+00 -0.20148853043E+03  0.20148853043E+03  0.00000000000E+00 0. -1.
      99926    2    1    2    0    0  0.88817841970E-15  0.00000000000E+00  0.18445521583E+02  0.42142258244E+03  0.42101871185E+03 0.  0.
      99925    2    3    3    0    0  0.62133483818E+01 -0.14658916784E+02 -0.63058568887E+02  0.27127627246E+03  0.26336465850E+03 0.  0.
         25    1    4    4    0    0  0.56776167789E+01  0.32533182939E+02 -0.41384542794E+02  0.13583383896E+03  0.12509000000E+03 0.  0.
         25    1    3    3    0    0 -0.62133483818E+01  0.14658916784E+02  0.81504090470E+02  0.15014630999E+03  0.12509000000E+03 0.  0.
         25    1    4    4    0    0  0.53573160296E+00 -0.47192099723E+02 -0.21674026094E+02  0.13544243350E+03  0.12509000000E+03 0.  0.
<mgrwt>
<rscale>  2 0.42101871E+03</rscale>
<asrwt>0</asrwt>
<pdfrwt beam="1">  1       21 0.32343243E-01 0.42101871E+03</pdfrwt>
<pdfrwt beam="2">  1       21 0.29630666E-01 0.42101871E+03</pdfrwt>
<totfact> 0.94126106E+04</totfact>
</mgrwt>
</event>
<event>
 7    0  0.4732500E-002  0.4873412E+03  0.7546771E-02  0.1017137E+00
         21   -1    0    0  502  501  0.00000000000E+00  0.00000000000E+00  0.13672934276E+03  0.13672934276E+03  0.00000000000E+00 0. -1.
         21   -1    0    0  501  502 -0.00000000000E+00 -0.00000000000E+00 -0.43425464776E+03  0.43425464776E+03  0.00000000000E+00 0. -1.
      99926    2    1    2    0    0  0.00000000000E+00  0.00000000000E+00 -0.29752530501E+03  0.57098399052E+03  0.48734116418E+03 0.  0.
      99925    2    3    3    0    0  0.36631911225E+02  0.15999612235E+02 -0.34097689969E+03  0.43266033494E+03  0.26330938988E+03 0.  0.
         25    1    3    3    0    0 -0.36631911225E+02 -0.15999612235E+02  0.43451594679E+02  0.13832365558E+03  0.12509000000E+03 0.  0.
         25    1    4    4    0    0  0.22358229744E+02  0.40367788223E+02 -0.21439046560E+03  0.25246827247E+03  0.12509000000E+03 0.  0.
         25    1    4    4    0    0  0.14273681481E+02 -0.24368175988E+02 -0.12658643409E+03  0.18019206248E+03  0.12509000000E+03 0.  0.
<mgrwt>
<rscale>  2 0.48734116E+03</rscale>
<asrwt>0</asrwt>
<pdfrwt beam="1">  1       21 0.20107256E-01 0.48734116E+03</pdfrwt>
<pdfrwt beam="2">  1       21 0.63860978E-01 0.48734116E+03</pdfrwt>
<totfact> 0.47209477E+04</totfact>
</mgrwt>
</event>
<event>
 7    0  0.4732500E-002  0.4560927E+03  0.7546771E-02  0.1025921E+00
         21   -1    0    0  502  501  0.00000000000E+00  0.00000000000E+00  0.23158396003E+03  0.23158396003E+03  0.00000000000E+00 0. -1.
         21   -1    0    0  501  502 -0.00000000000E+00 -0.00000000000E+00 -0.22456277891E+03  0.22456277891E+03  0.00000000000E+00 0. -1.
      99926    2    1    2    0    0  0.00000000000E+00  0.00000000000E+00  0.70211811239E+01  0.45614673894E+03  0.45609269942E+03 0.  0.
      99925    2    3    3    0    0 -0.81438296008E+02 -0.53211987766E+02 -0.55328346036E+02  0.28585674118E+03  0.26303828411E+03 0.  0.
         25    1    3    3    0    0  0.81438296008E+02  0.53211987766E+02  0.62349527160E+02  0.17028999776E+03  0.12509000000E+03 0.  0.
         25    1    4    4    0    0 -0.77774993839E+02 -0.38645702375E+02 -0.47946466177E+02  0.15965215845E+03  0.12509000000E+03 0.  0.
         25    1    4    4    0    0 -0.36633021688E+01 -0.14566285391E+02 -0.73818798593E+01  0.12620458273E+03  0.12509000000E+03 0.  0.
<mgrwt>
<rscale>  2 0.45609270E+03</rscale>
<asrwt>0</asrwt>
<pdfrwt beam="1">  1       21 0.34056465E-01 0.45609270E+03</pdfrwt>
<pdfrwt beam="2">  1       21 0.33023938E-01 0.45609270E+03</pdfrwt>
<totfact> 0.67868217E+04</totfact>
</mgrwt>
</event>
<event>
 7    0  0.4732500E-002  0.4322009E+03  0.7546771E-02  0.1033167E+00
         21   -1    0    0  502  501  0.00000000000E+00  0.00000000000E+00  0.16667787109E+03  0.16667787109E+03  0.00000000000E+00 0. -1.
         21   -1    0    0  501  502 -0.00000000000E+00 -0.00000000000E+00 -0.28017758392E+03  0.28017758392E+03  0.00000000000E+00 0. -1.
      99926    2    1    2    0    0  0.00000000000E+00 -0.35527136788E-14 -0.11349971283E+03  0.44685545501E+03  0.43220089409E+03 0.  0.
      99925    2    3    3    0    0 -0.47934427455E+02  0.23007298893E+02 -0.14824654674E+03  0.30656327524E+03  0.26301512877E+03 0.  0.
         25    1    3    3    0    0  0.47934427455E+02 -0.23007298893E+02  0.34746833913E+02  0.14029217977E+03  0.12509000000E+03 0.  0.
         25    1    4    4    0    0 -0.12743092767E+01 -0.85184954123E+01 -0.39353359061E+02  0.13141683149E+03  0.12509000000E+03 0.  0.
         25    1    4    4    0    0 -0.46660118178E+02  0.31525794305E+02 -0.10889318768E+03  0.17514644375E+03  0.12509000000E+03 0.  0.
<mgrwt>
<rscale>  2 0.43220089E+03</rscale>
<asrwt>0</asrwt>
<pdfrwt beam="1">  1       21 0.24511452E-01 0.43220089E+03</pdfrwt>
<pdfrwt beam="2">  1       21 0.41202585E-01 0.43220089E+03</pdfrwt>
<totfact> 0.83266064E+04</totfact>
</mgrwt>
</event>
<event>
 7    0  0.4732500E-002  0.4470406E+03  0.7546771E-02  0.1028608E+00
         21   -1    0    0  502  501  0.00000000000E+00  0.00000000000E+00  0.23004861761E+03  0.23004861761E+03  0.00000000000E+00 0. -1.
         21   -1    0    0  501  502 -0.00000000000E+00 -0.00000000000E+00 -0.21717720766E+03  0.21717720766E+03  0.00000000000E+00 0. -1.
      99926    2    1    2    0    0  0.00000000000E+00  0.00000000000E+00  0.12871409953E+02  0.44722582528E+03  0.44704056371E+03 0.  0.
      99925    2    3    3    0    0 -0.16927502592E+02  0.10452772208E+03  0.82378580038E+01  0.28326984664E+03  0.26260494794E+03 0.  0.
         25    1    4    4    0    0  0.64888816726E+01  0.19461479024E+02 -0.17770536806E+02  0.12800060480E+03  0.12509000000E+03 0.  0.
         25    1    4    4    0    0 -0.23416384264E+02  0.85066243057E+02  0.26008394810E+02  0.15526924184E+03  0.12509000000E+03 0.  0.
         25    1    3    3    0    0  0.16927502592E+02 -0.10452772208E+03  0.46335519496E+01  0.16395597864E+03  0.12509000000E+03 0.  0.
<mgrwt>
<rscale>  2 0.44704056E+03</rscale>
<asrwt>0</asrwt>
<pdfrwt beam="1">  1       21 0.33830679E-01 0.44704056E+03</pdfrwt>
<pdfrwt beam="2">  1       21 0.31937825E-01 0.44704056E+03</pdfrwt>
<totfact> 0.73688924E+04</totfact>
</mgrwt>
</event>
<event>
 7    0  0.4732500E-002  0.4557594E+03  0.7546771E-02  0.1026018E+00
         21   -1    0    0  502  501  0.00000000000E+00  0.00000000000E+00  0.18400055334E+03  0.18400055334E+03  0.00000000000E+00 0.  1.
         21   -1    0    0  501  502 -0.00000000000E+00 -0.00000000000E+00 -0.28222279521E+03  0.28222279521E+03  0.00000000000E+00 0.  1.
      99926    2    1    2    0    0 -0.66613381478E-15  0.00000000000E+00 -0.98222241868E+02  0.46622334855E+03  0.45575936846E+03 0.  0.
      99925    2    3    3    0    0 -0.59585559074E+00 -0.65421114216E+02 -0.15715064742E+03  0.31325164427E+03  0.26296385574E+03 0.  0.
         25    1    4    4    0    0  0.40017256753E+01  0.84338934373E+01 -0.78870624337E+02  0.14817296599E+03  0.12509000000E+03 0.  0.
         25    1    4    4    0    0 -0.45975812660E+01 -0.73855007653E+02 -0.78280023085E+02  0.16507867828E+03  0.12509000000E+03 0.  0.
         25    1    3    3    0    0  0.59585559074E+00  0.65421114216E+02  0.58928405555E+02  0.15297170428E+03  0.12509000000E+03 0.  0.
<mgrwt>
<rscale>  2 0.45575937E+03</rscale>
<asrwt>0</asrwt>
<pdfrwt beam="1">  1       21 0.27058905E-01 0.45575937E+03</pdfrwt>
<pdfrwt beam="2">  1       21 0.41503352E-01 0.45575937E+03</pdfrwt>
<totfact> 0.67311846E+04</totfact>
</mgrwt>
</event>
<event>
 7    0  0.4732500E-002  0.4528591E+03  0.7546771E-02  0.1026873E+00
         21   -1    0    0  502  501  0.00000000000E+00  0.00000000000E+00  0.93075291915E+03  0.93075291915E+03  0.00000000000E+00 0. -1.
         21   -1    0    0  501  502 -0.00000000000E+00 -0.00000000000E+00 -0.55084809853E+02  0.55084809853E+02  0.00000000000E+00 0. -1.
      99926    2    1    2    0    0  0.00000000000E+00  0.00000000000E+00  0.87566810929E+03  0.98583772900E+03  0.45285912852E+03 0.  0.
      99925    2    3    3    0    0  0.96066077101E+02  0.34978470835E+02  0.64718493703E+03  0.70600875856E+03  0.26295976850E+03 0.  0.
         25    1    3    3    0    0 -0.96066077101E+02 -0.34978470835E+02  0.22848317226E+03  0.27982897044E+03  0.12509000000E+03 0.  0.
         25    1    4    4    0    0  0.10347086867E+02  0.34533976345E+02  0.31552621935E+03  0.34132676561E+03  0.12509000000E+03 0.  0.
         25    1    4    4    0    0  0.85718990234E+02  0.44449449093E+00  0.33165871769E+03  0.36468199295E+03  0.12509000000E+03 0.  0.
<mgrwt>
<rscale>  2 0.45285913E+03</rscale>
<asrwt>0</asrwt>
<pdfrwt beam="1">  1       21 0.13687542E+00 0.45285913E+03</pdfrwt>
<pdfrwt beam="2">  1       21 0.81007079E-02 0.45285913E+03</pdfrwt>
<totfact> 0.40393352E+04</totfact>
</mgrwt>
</event>
<event>
 7    0  0.4732500E-002  0.4381569E+03  0.7546771E-02  0.1031314E+00
         21   -1    0    0  502  501  0.00000000000E+00  0.00000000000E+00  0.10665308034E+03  0.10665308034E+03  0.00000000000E+00 0. -1.
         21   -1    0    0  501  502 -0.00000000000E+00 -0.00000000000E+00 -0.45001397402E+03  0.45001397402E+03  0.00000000000E+00 0. -1.
      99926    2    1    2    0    0  0.00000000000E+00 -0.17763568394E-14 -0.34336089369E+03  0.55666705436E+03  0.43815694231E+03 0.  0.
      99925    2    3    3    0    0  0.96040653800E+02  0.99111381059E+01 -0.21963943801E+03  0.35597688386E+03  0.26297532445E+03 0.  0.
         25    1    4    4    0    0  0.15137383702E+02  0.15851046480E+02 -0.13135497978E+03  0.18270751181E+03  0.12509000000E+03 0.  0.
         25    1    4    4    0    0  0.80903270098E+02 -0.59399083741E+01 -0.88284458231E+02  0.17326937205E+03  0.12509000000E+03 0.  0.
         25    1    3    3    0    0 -0.96040653800E+02 -0.99111381059E+01 -0.12372145568E+03  0.20069017050E+03  0.12509000000E+03 0.  0.
<mgrwt>
<rscale>  2 0.43815694E+03</rscale>
<asrwt>0</asrwt>
<pdfrwt beam="1">  1       21 0.15684276E-01 0.43815694E+03</pdfrwt>
<pdfrwt beam="2">  1       21 0.66178526E-01 0.43815694E+03</pdfrwt>
<totfact> 0.70341984E+04</totfact>
</mgrwt>
</event>
<event>
 7    0  0.4732500E-002  0.4523608E+03  0.7546771E-02  0.1027020E+00
         21   -1    0    0  502  501  0.00000000000E+00  0.00000000000E+00  0.64512023149E+02  0.64512023149E+02  0.00000000000E+00 0. -1.
         21   -1    0    0  501  502 -0.00000000000E+00 -0.00000000000E+00 -0.79299298401E+03  0.79299298401E+03  0.00000000000E+00 0. -1.
      99926    2    1    2    0    0 -0.17763568394E-14  0.00000000000E+00 -0.72848096087E+03  0.85750500716E+03  0.45236083713E+03 0.  0.
      99925    2    3    3    0    0 -0.14617013996E+02  0.37965987606E+02 -0.65450604934E+03  0.70659155863E+03  0.26313188479E+03 0.  0.
         25    1    3    3    0    0  0.14617013996E+02 -0.37965987606E+02 -0.73974911529E+02  0.15091344854E+03  0.12509000000E+03 0.  0.
         25    1    4    4    0    0 -0.11560382459E+02 -0.49565455568E+01 -0.40668919236E+03  0.42567806740E+03  0.12509000000E+03 0.  0.
         25    1    4    4    0    0 -0.30566315367E+01  0.42922533163E+02 -0.24781685698E+03  0.28091349122E+03  0.12509000000E+03 0.  0.
<mgrwt>
<rscale>  2 0.45236084E+03</rscale>
<asrwt>0</asrwt>
<pdfrwt beam="1">  1       21 0.94870634E-02 0.45236084E+03</pdfrwt>
<pdfrwt beam="2">  1       21 0.11661660E+00 0.45236084E+03</pdfrwt>
<totfact> 0.46051414E+04</totfact>
</mgrwt>
</event>
<event>
 7    0  0.4732500E-002  0.4509998E+03  0.7546771E-02  0.1027424E+00
         21   -1    0    0  502  501  0.00000000000E+00  0.00000000000E+00  0.17938710032E+03  0.17938710032E+03  0.00000000000E+00 0.  1.
         21   -1    0    0  501  502 -0.00000000000E+00 -0.00000000000E+00 -0.28346637074E+03  0.28346637074E+03  0.00000000000E+00 0.  1.
      99926    2    1    2    0    0  0.00000000000E+00  0.00000000000E+00 -0.10407927041E+03  0.46285347106E+03  0.45099982389E+03 0.  0.
      99925    2    3    3    0    0 -0.74188131534E+02  0.44146635283E+02  0.36004771959E+01  0.27658688680E+03  0.26274424494E+03 0.  0.
         25    1    4    4    0    0 -0.37026471927E+02  0.14440339100E+02  0.41213216418E+02  0.13757005606E+03  0.12509000000E+03 0.  0.
         25    1    3    3    0    0  0.74188131534E+02 -0.44146635283E+02 -0.10767974761E+03  0.18626658426E+03  0.12509000000E+03 0.  0.
         25    1    4    4    0    0 -0.37161659608E+02  0.29706296183E+02 -0.37612739222E+02  0.13901683074E+03  0.12509000000E+03 0.  0.
<mgrwt>
<rscale>  2 0.45099982E+03</rscale>
<asrwt>0</asrwt>
<pdfrwt beam="1">  1       21 0.26380456E-01 0.45099982E+03</pdfrwt>
<pdfrwt beam="2">  1       21 0.41686231E-01 0.45099982E+03</pdfrwt>
<totfact> 0.70171478E+04</totfact>
</mgrwt>
</event>
<event>
 7    0  0.4732500E-002  0.4583476E+03  0.7546771E-02  0.1025262E+00
         21   -1    0    0  502  501  0.00000000000E+00  0.00000000000E+00  0.18635025178E+04  0.18635025178E+04  0.00000000000E+00 0. -1.
         21   -1    0    0  501  502 -0.00000000000E+00 -0.00000000000E+00 -0.28183831107E+02  0.28183831107E+02  0.00000000000E+00 0. -1.
      99926    2    1    2    0    0 -0.35527136788E-14  0.00000000000E+00  0.18353186866E+04  0.18916863489E+04  0.45834764199E+03 0.  0.
      99925    2    3    3    0    0 -0.23499447483E+02  0.75278014457E+02  0.15042138475E+04  0.15290612999E+04  0.26296417342E+03 0.  0.
         25    1    4    4    0    0 -0.34176236254E+02  0.12020342296E+02  0.84952432619E+03  0.85944842349E+03  0.12509000000E+03 0.  0.
         25    1    3    3    0    0  0.23499447483E+02 -0.75278014457E+02  0.33110483916E+03  0.36262504893E+03  0.12509000000E+03 0.  0.
         25    1    4    4    0    0  0.10676788771E+02  0.63257672161E+02  0.65468952129E+03  0.66961287644E+03  0.12509000000E+03 0.  0.
<mgrwt>
<rscale>  2 0.45834764E+03</rscale>
<asrwt>0</asrwt>
<pdfrwt beam="1">  1       21 0.27404440E+00 0.45834764E+03</pdfrwt>
<pdfrwt beam="2">  1       21 0.41446823E-02 0.45834764E+03</pdfrwt>
<totfact> 0.15162104E+04</totfact>
</mgrwt>
</event>
<event>
 7    0  0.4732500E-002  0.4508731E+03  0.7546771E-02  0.1027462E+00
         21   -1    0    0  502  501  0.00000000000E+00  0.00000000000E+00  0.10086930454E+04  0.10086930454E+04  0.00000000000E+00 0. -1.
         21   -1    0    0  501  502 -0.00000000000E+00 -0.00000000000E+00 -0.50383658818E+02  0.50383658818E+02  0.00000000000E+00 0. -1.
      99926    2    1    2    0    0  0.71054273576E-14  0.00000000000E+00  0.95830938655E+03  0.10590767042E+04  0.45087313626E+03 0.  0.
      99925    2    3    3    0    0  0.22804297077E+02 -0.10703978828E+03  0.60764752246E+03  0.67101897231E+03  0.26278013131E+03 0.  0.
         25    1    4    4    0    0  0.32857027061E+02 -0.65578314523E+02  0.24081578228E+03  0.28110469341E+03  0.12509000000E+03 0.  0.
         25    1    3    3    0    0 -0.22804297077E+02  0.10703978828E+03  0.35066186409E+03  0.38805773188E+03  0.12509000000E+03 0.  0.
         25    1    4    4    0    0 -0.10052729984E+02 -0.41461473761E+02  0.36683174018E+03  0.38991427890E+03  0.12509000000E+03 0.  0.
<mgrwt>
<rscale>  2 0.45087314E+03</rscale>
<asrwt>0</asrwt>
<pdfrwt beam="1">  1       21 0.14833720E+00 0.45087314E+03</pdfrwt>
<pdfrwt beam="2">  1       21 0.74093622E-02 0.45087314E+03</pdfrwt>
<totfact> 0.38160425E+04</totfact>
</mgrwt>
</event>
<event>
 7    0  0.4732500E-002  0.4500164E+03  0.7546771E-02  0.1027717E+00
         21   -1    0    0  502  501  0.00000000000E+00  0.00000000000E+00  0.43157082001E+02  0.43157082001E+02  0.00000000000E+00 0. -1.
         21   -1    0    0  501  502 -0.00000000000E+00 -0.00000000000E+00 -0.11731259725E+04  0.11731259725E+04  0.00000000000E+00 0. -1.
      99926    2    1    2    0    0  0.00000000000E+00 -0.14210854715E-13 -0.11299688905E+04  0.12162830545E+04  0.45001641655E+03 0.  0.
      99925    2    3    3    0    0 -0.91285339642E+01  0.10057865868E+03 -0.60809706104E+03  0.67020878190E+03  0.26305584763E+03 0.  0.
         25    1    4    4    0    0 -0.22897971200E+02  0.75368825151E+02 -0.39099714037E+03  0.41800843145E+03  0.12509000000E+03 0.  0.
         25    1    4    4    0    0  0.13769437236E+02  0.25209833532E+02 -0.21709992067E+03  0.25220035044E+03  0.12509000000E+03 0.  0.
         25    1    3    3    0    0  0.91285339642E+01 -0.10057865868E+03 -0.52187182942E+03  0.54607427256E+03  0.12509000000E+03 0.  0.
<mgrwt>
<rscale>  2 0.45001642E+03</rscale>
<asrwt>0</asrwt>
<pdfrwt beam="1">  1       21 0.63466297E-02 0.45001642E+03</pdfrwt>
<pdfrwt beam="2">  1       21 0.17251853E+00 0.45001642E+03</pdfrwt>
<totfact> 0.32902783E+04</totfact>
</mgrwt>
</event>
<event>
 7    0  0.4732500E-002  0.4680216E+03  0.7546771E-02  0.1022480E+00
         21   -1    0    0  502  501  0.00000000000E+00  0.00000000000E+00  0.40747582032E+03  0.40747582032E+03  0.00000000000E+00 0.  1.
         21   -1    0    0  501  502 -0.00000000000E+00 -0.00000000000E+00 -0.13439091369E+03  0.13439091369E+03  0.00000000000E+00 0.  1.
      99926    2    1    2    0    0  0.00000000000E+00  0.00000000000E+00  0.27308490663E+03  0.54186673401E+03  0.46802157129E+03 0.  0.
      99925    2    3    3    0    0 -0.91958828786E+02  0.83567135582E+02  0.18497586234E+03  0.34476116807E+03  0.26306710364E+03 0.  0.
         25    1    4    4    0    0 -0.42109658969E+02  0.56735274697E+01  0.59449946559E+02  0.14486965361E+03  0.12509000000E+03 0.  0.
         25    1    3    3    0    0  0.91958828786E+02 -0.83567135582E+02  0.88109044291E+02  0.19710556595E+03  0.12509000000E+03 0.  0.
         25    1    4    4    0    0 -0.49849169817E+02  0.77893608112E+02  0.12552591578E+03  0.19989151445E+03  0.12509000000E+03 0.  0.
<mgrwt>
<rscale>  2 0.46802157E+03</rscale>
<asrwt>0</asrwt>
<pdfrwt beam="1">  1       21 0.59922915E-01 0.46802157E+03</pdfrwt>
<pdfrwt beam="2">  1       21 0.19763370E-01 0.46802157E+03</pdfrwt>
<totfact> 0.56365013E+04</totfact>
</mgrwt>
</event>
<event>
 7    0  0.4732500E-002  0.4550349E+03  0.7546771E-02  0.1026231E+00
         21   -1    0    0  502  501  0.00000000000E+00  0.00000000000E+00  0.29726203500E+03  0.29726203500E+03  0.00000000000E+00 0.  1.
         21   -1    0    0  501  502 -0.00000000000E+00 -0.00000000000E+00 -0.17413656692E+03  0.17413656692E+03  0.00000000000E+00 0.  1.
      99926    2    1    2    0    0  0.00000000000E+00  0.00000000000E+00  0.12312546809E+03  0.47139860192E+03  0.45503490086E+03 0.  0.
      99925    2    3    3    0    0 -0.67522755782E+02  0.27937879629E+02 -0.12155078691E+02  0.27318613485E+03  0.26295070008E+03 0.  0.
         25    1    4    4    0    0 -0.66434473303E+02  0.31685204486E+01  0.16056508405E+02  0.14257944567E+03  0.12509000000E+03 0.  0.
         25    1    3    3    0    0  0.67522755782E+02 -0.27937879629E+02  0.13528054678E+03  0.19821246707E+03  0.12509000000E+03 0.  0.
         25    1    4    4    0    0 -0.10882824796E+01  0.24769359180E+02 -0.28211587096E+02  0.13060668918E+03  0.12509000000E+03 0.  0.
<mgrwt>
<rscale>  2 0.45503490E+03</rscale>
<asrwt>0</asrwt>
<pdfrwt beam="1">  1       21 0.43715005E-01 0.45503490E+03</pdfrwt>
<pdfrwt beam="2">  1       21 0.25608319E-01 0.45503490E+03</pdfrwt>
<totfact> 0.67313201E+04</totfact>
</mgrwt>
</event>
<event>
 7    0  0.4732500E-002  0.4577967E+03  0.7546771E-02  0.1025422E+00
         21   -1    0    0  502  501  0.00000000000E+00  0.00000000000E+00  0.29678836461E+03  0.29678836461E+03  0.00000000000E+00 0.  1.
         21   -1    0    0  501  502 -0.00000000000E+00 -0.00000000000E+00 -0.17653811629E+03  0.17653811629E+03  0.00000000000E+00 0.  1.
      99926    2    1    2    0    0  0.00000000000E+00  0.00000000000E+00  0.12025024832E+03  0.47332648091E+03  0.45779671832E+03 0.  0.
      99925    2    3    3    0    0  0.52134569834E+02 -0.10088137228E+03  0.52181294694E+02  0.29118380279E+03  0.26300200540E+03 0.  0.
         25    1    3    3    0    0 -0.52134569834E+02  0.10088137228E+03  0.68068953625E+02  0.18214267812E+03  0.12509000000E+03 0.  0.
         25    1    4    4    0    0  0.22685859403E+02 -0.17121186155E+02 -0.25842002764E+01  0.12830420657E+03  0.12509000000E+03 0.  0.
         25    1    4    4    0    0  0.29448710431E+02 -0.83760186122E+02  0.54765494970E+02  0.16287959622E+03  0.12509000000E+03 0.  0.
<mgrwt>
<rscale>  2 0.45779672E+03</rscale>
<asrwt>0</asrwt>
<pdfrwt beam="1">  1       21 0.43645348E-01 0.45779672E+03</pdfrwt>
<pdfrwt beam="2">  1       21 0.25961487E-01 0.45779672E+03</pdfrwt>
<totfact> 0.65718821E+04</totfact>
</mgrwt>
</event>
<event>
 7    0  0.4732500E-002  0.4563704E+03  0.7546771E-02  0.1025839E+00
         21   -1    0    0  502  501  0.00000000000E+00  0.00000000000E+00  0.59921700388E+02  0.59921700388E+02  0.00000000000E+00 0.  1.
         21   -1    0    0  501  502 -0.00000000000E+00 -0.00000000000E+00 -0.86894195874E+03  0.86894195874E+03  0.00000000000E+00 0.  1.
      99926    2    1    2    0    0  0.00000000000E+00  0.00000000000E+00 -0.80902025835E+03  0.92886365913E+03  0.45637037461E+03 0.  0.
      99925    2    3    3    0    0  0.80801201643E+01 -0.61136794055E+02 -0.31190831481E+03  0.41255872168E+03  0.26289713968E+03 0.  0.
         25    1    4    4    0    0  0.50223063939E+01 -0.58560598788E+02 -0.11780060795E+03  0.18160137286E+03  0.12509000000E+03 0.  0.
         25    1    4    4    0    0  0.30578137705E+01 -0.25761952670E+01 -0.19410770686E+03  0.23095734881E+03  0.12509000000E+03 0.  0.
         25    1    3    3    0    0 -0.80801201643E+01  0.61136794055E+02 -0.49711194354E+03  0.51630493746E+03  0.12509000000E+03 0.  0.
<mgrwt>
<rscale>  2 0.45637037E+03</rscale>
<asrwt>0</asrwt>
<pdfrwt beam="1">  1       21 0.88120149E-02 0.45637037E+03</pdfrwt>
<pdfrwt beam="2">  1       21 0.12778558E+00 0.45637037E+03</pdfrwt>
<totfact> 0.41561502E+04</totfact>
</mgrwt>
</event>
<event>
 7    0  0.4732500E-002  0.4568318E+03  0.7546771E-02  0.1025704E+00
         21   -1    0    0  502  501  0.00000000000E+00  0.00000000000E+00  0.87919346396E+02  0.87919346396E+02  0.00000000000E+00 0. -1.
         21   -1    0    0  501  502 -0.00000000000E+00 -0.00000000000E+00 -0.59342835405E+03  0.59342835405E+03  0.00000000000E+00 0. -1.
      99926    2    1    2    0    0  0.14210854715E-13  0.00000000000E+00 -0.50550900765E+03  0.68134770044E+03  0.45683184224E+03 0.  0.
      99925    2    3    3    0    0  0.10584420357E+03 -0.41381729677E+02 -0.34288760542E+03  0.44680842539E+03  0.26296466695E+03 0.  0.
         25    1    4    4    0    0  0.82041715430E+02  0.11315564266E+01 -0.21070300705E+03  0.25840934343E+03  0.12509000000E+03 0.  0.
         25    1    3    3    0    0 -0.10584420357E+03  0.41381729677E+02 -0.16262140223E+03  0.23453927506E+03  0.12509000000E+03 0.  0.
         25    1    4    4    0    0  0.23802488141E+02 -0.42513286104E+02 -0.13218459837E+03  0.18839908196E+03  0.12509000000E+03 0.  0.
<mgrwt>
<rscale>  2 0.45683184E+03</rscale>
<asrwt>0</asrwt>
<pdfrwt beam="1">  1       21 0.12929316E-01 0.45683184E+03</pdfrwt>
<pdfrwt beam="2">  1       21 0.87268874E-01 0.45683184E+03</pdfrwt>
<totfact> 0.53156812E+04</totfact>
</mgrwt>
</event>
<event>
 7    0  0.4732500E-002  0.4587592E+03  0.7546771E-02  0.1025142E+00
         21   -1    0    0  502  501  0.00000000000E+00  0.00000000000E+00  0.25031529683E+03  0.25031529683E+03  0.00000000000E+00 0. -1.
         21   -1    0    0  501  502 -0.00000000000E+00 -0.00000000000E+00 -0.21019486847E+03  0.21019486847E+03  0.00000000000E+00 0. -1.
      99926    2    1    2    0    0  0.00000000000E+00  0.00000000000E+00  0.40120428363E+02  0.46051016529E+03  0.45875915639E+03 0.  0.
      99925    2    3    3    0    0  0.78006318254E+02 -0.60059611753E+02 -0.37675950224E+02  0.28333249381E+03  0.26299369227E+03 0.  0.
         25    1    4    4    0    0  0.56860751753E+02 -0.65568879110E+02 -0.35481236646E+02  0.15632929748E+03  0.12509000000E+03 0.  0.
         25    1    4    4    0    0  0.21145566501E+02  0.55092673572E+01 -0.21947135777E+01  0.12700319633E+03  0.12509000000E+03 0.  0.
         25    1    3    3    0    0 -0.78006318254E+02  0.60059611753E+02  0.77796378586E+02  0.17717767148E+03  0.12509000000E+03 0.  0.
<mgrwt>
<rscale>  2 0.45875916E+03</rscale>
<asrwt>0</asrwt>
<pdfrwt beam="1">  1       21 0.36811073E-01 0.45875916E+03</pdfrwt>
<pdfrwt beam="2">  1       21 0.30911010E-01 0.45875916E+03</pdfrwt>
<totfact> 0.66137967E+04</totfact>
</mgrwt>
</event>
<event>
 7    0  0.4732500E-002  0.4539494E+03  0.7546771E-02  0.1026551E+00
         21   -1    0    0  502  501  0.00000000000E+00  0.00000000000E+00  0.69983093996E+02  0.69983093996E+02  0.00000000000E+00 0. -1.
         21   -1    0    0  501  502 -0.00000000000E+00 -0.00000000000E+00 -0.73614221175E+03  0.73614221175E+03  0.00000000000E+00 0. -1.
      99926    2    1    2    0    0  0.00000000000E+00 -0.35527136788E-14 -0.66615911776E+03  0.80612530575E+03  0.45394937867E+03 0.  0.
      99925    2    3    3    0    0  0.44219705419E+02 -0.25429349586E+02 -0.59705011621E+03  0.65438343163E+03  0.26295779158E+03 0.  0.
         25    1    4    4    0    0  0.21171018517E+02 -0.35182794500E+02 -0.22054245214E+03  0.25685116770E+03  0.12509000000E+03 0.  0.
         25    1    4    4    0    0  0.23048686902E+02  0.97534449135E+01 -0.37650766408E+03  0.39753226393E+03  0.12509000000E+03 0.  0.
         25    1    3    3    0    0 -0.44219705419E+02  0.25429349586E+02 -0.69109001545E+02  0.15174187412E+03  0.12509000000E+03 0.  0.
<mgrwt>
<rscale>  2 0.45394938E+03</rscale>
<asrwt>0</asrwt>
<pdfrwt beam="1">  1       21 0.10291632E-01 0.45394938E+03</pdfrwt>
<pdfrwt beam="2">  1       21 0.10825621E+00 0.45394938E+03</pdfrwt>
<totfact> 0.47863360E+04</totfact>
</mgrwt>
</event>
<event>
 7    0  0.4732500E-002  0.4029363E+03  0.7546771E-02  0.1042768E+00
         21   -1    0    0  502  501  0.00000000000E+00  0.00000000000E+00  0.23327719460E+03  0.23327719460E+03  0.00000000000E+00 0.  1.
         21   -1    0    0  501  502 -0.00000000000E+00 -0.00000000000E+00 -0.17399651574E+03  0.17399651574E+03  0.00000000000E+00 0.  1.
      99926    2    1    2    0    0 -0.35527136788E-14  0.17763568394E-14  0.59280678864E+02  0.40727371034E+03  0.40293631786E+03 0.  0.
      99925    2    3    3    0    0  0.21461775020E+02 -0.14007610293E+02  0.83948026717E+02  0.27722446166E+03  0.26296256391E+03 0.  0.
         25    1    4    4    0    0 -0.24256422394E+02  0.79496049758E+01  0.55853818638E+02  0.13935109401E+03  0.12509000000E+03 0.  0.
         25    1    3    3    0    0 -0.21461775020E+02  0.14007610293E+02 -0.24667347853E+02  0.13004924868E+03  0.12509000000E+03 0.  0.
         25    1    4    4    0    0  0.45718197413E+02 -0.21957215269E+02  0.28094208079E+02  0.13787336764E+03  0.12509000000E+03 0.  0.
<mgrwt>
<rscale>  2 0.40293632E+03</rscale>
<asrwt>0</asrwt>
<pdfrwt beam="1">  1       21 0.34305470E-01 0.40293632E+03</pdfrwt>
<pdfrwt beam="2">  1       21 0.25587723E-01 0.40293632E+03</pdfrwt>
<totfact> 0.11194663E+05</totfact>
</mgrwt>
</event>
<event>
 7    0  0.4732500E-002  0.4464205E+03  0.7546771E-02  0.1028795E+00
         21   -1    0    0  502  501  0.00000000000E+00  0.00000000000E+00  0.20003440155E+03  0.20003440155E+03  0.00000000000E+00 0.  1.
         21   -1    0    0  501  502 -0.00000000000E+00 -0.00000000000E+00 -0.24907119703E+03  0.24907119703E+03  0.00000000000E+00 0.  1.
      99926    2    1    2    0    0  0.00000000000E+00  0.00000000000E+00 -0.49036795482E+02  0.44910559857E+03  0.44642046476E+03 0.  0.
      99925    2    3    3    0    0  0.60809198369E+01 -0.10128326305E+03 -0.57775669189E+02  0.28780106369E+03  0.26305160588E+03 0.  0.
         25    1    3    3    0    0 -0.60809198369E+01  0.10128326305E+03  0.87388737065E+01  0.16130453488E+03  0.12509000000E+03 0.  0.
         25    1    4    4    0    0  0.51236818704E+00 -0.84906536032E+02 -0.56841450286E+02  0.16151730852E+03  0.12509000000E+03 0.  0.
         25    1    4    4    0    0  0.55685516499E+01 -0.16376727013E+02 -0.93421890304E+00  0.12628375517E+03  0.12509000000E+03 0.  0.
<mgrwt>
<rscale>  2 0.44642046E+03</rscale>
<asrwt>0</asrwt>
<pdfrwt beam="1">  1       21 0.29416824E-01 0.44642046E+03</pdfrwt>
<pdfrwt beam="2">  1       21 0.36628117E-01 0.44642046E+03</pdfrwt>
<totfact> 0.73910954E+04</totfact>
</mgrwt>
</event>
<event>
 7    0  0.4732500E-002  0.4543534E+03  0.7546771E-02  0.1026432E+00
         21   -1    0    0  502  501  0.00000000000E+00  0.00000000000E+00  0.42567983928E+02  0.42567983928E+02  0.00000000000E+00 0. -1.
         21   -1    0    0  501  502 -0.00000000000E+00 -0.00000000000E+00 -0.12123962004E+04  0.12123962004E+04  0.00000000000E+00 0. -1.
      99926    2    1    2    0    0  0.00000000000E+00  0.00000000000E+00 -0.11698282165E+04  0.12549641844E+04  0.45435343940E+03 0.  0.
      99925    2    3    3    0    0  0.66226575797E+02 -0.89961325324E+02 -0.77103257341E+03  0.82233908979E+03  0.26319450973E+03 0.  0.
         25    1    3    3    0    0 -0.66226575797E+02  0.89961325324E+02 -0.39879564310E+03  0.43262509457E+03  0.12509000000E+03 0.  0.
         25    1    4    4    0    0  0.19345810518E+02 -0.61837229839E+02 -0.29154145256E+03  0.32379319023E+03  0.12509000000E+03 0.  0.
         25    1    4    4    0    0  0.46880765279E+02 -0.28124095485E+02 -0.47949112084E+03  0.49854589956E+03  0.12509000000E+03 0.  0.
<mgrwt>
<rscale>  2 0.45435344E+03</rscale>
<asrwt>0</asrwt>
<pdfrwt beam="1">  1       21 0.62599971E-02 0.45435344E+03</pdfrwt>
<pdfrwt beam="2">  1       21 0.17829357E+00 0.45435344E+03</pdfrwt>
<totfact> 0.30604910E+04</totfact>
</mgrwt>
</event>
<event>
 7    0  0.4732500E-002  0.4526001E+03  0.7546771E-02  0.1026950E+00
         21   -1    0    0  502  501  0.00000000000E+00  0.00000000000E+00  0.14454766685E+03  0.14454766685E+03  0.00000000000E+00 0.  1.
         21   -1    0    0  501  502 -0.00000000000E+00 -0.00000000000E+00 -0.35428939060E+03  0.35428939060E+03  0.00000000000E+00 0.  1.
      99926    2    1    2    0    0  0.88817841970E-15  0.00000000000E+00 -0.20974172375E+03  0.49883705746E+03  0.45260006541E+03 0.  0.
      99925    2    3    3    0    0 -0.62726036651E+01  0.51830416169E+02 -0.23795928977E+02  0.26873037722E+03  0.26253386792E+03 0.  0.
         25    1    3    3    0    0  0.62726036651E+01 -0.51830416169E+02 -0.18594579477E+03  0.23010668024E+03  0.12509000000E+03 0.  0.
         25    1    4    4    0    0 -0.15320387735E+01  0.14363606458E+02  0.26568301152E+02  0.12869360147E+03  0.12509000000E+03 0.  0.
         25    1    4    4    0    0 -0.47405648916E+01  0.37466809711E+02 -0.50364230129E+02  0.14003677575E+03  0.12509000000E+03 0.  0.
<mgrwt>
<rscale>  2 0.45260007E+03</rscale>
<asrwt>0</asrwt>
<pdfrwt beam="1">  1       21 0.21257010E-01 0.45260007E+03</pdfrwt>
<pdfrwt beam="2">  1       21 0.52101381E-01 0.45260007E+03</pdfrwt>
<totfact> 0.66612438E+04</totfact>
</mgrwt>
</event>
<event>
 7    0  0.4732500E-002  0.4244009E+03  0.7546771E-02  0.1035643E+00
         21   -1    0    0  502  501  0.00000000000E+00  0.00000000000E+00  0.99560268954E+02  0.99560268954E+02  0.00000000000E+00 0.  1.
         21   -1    0    0  501  502 -0.00000000000E+00 -0.00000000000E+00 -0.45227905305E+03  0.45227905305E+03  0.00000000000E+00 0.  1.
      99926    2    1    2    0    0  0.00000000000E+00  0.00000000000E+00 -0.35271878409E+03  0.55183932200E+03  0.42440086788E+03 0.  0.
      99925    2    3    3    0    0 -0.10082588640E+02  0.79634264951E+02 -0.21287979458E+03  0.34776647757E+03  0.26302175049E+03 0.  0.
         25    1    4    4    0    0 -0.14185854359E+02  0.57923093780E+02 -0.65739468934E+02  0.15338027622E+03  0.12509000000E+03 0.  0.
         25    1    4    4    0    0  0.41032657192E+01  0.21711171171E+02 -0.14714032565E+03  0.19438620135E+03  0.12509000000E+03 0.  0.
         25    1    3    3    0    0  0.10082588640E+02 -0.79634264951E+02 -0.13983898951E+03  0.20407284443E+03  0.12509000000E+03 0.  0.
<mgrwt>
<rscale>  2 0.42440087E+03</rscale>
<asrwt>0</asrwt>
<pdfrwt beam="1">  1       21 0.14641216E-01 0.42440087E+03</pdfrwt>
<pdfrwt beam="2">  1       21 0.66511625E-01 0.42440087E+03</pdfrwt>
<totfact> 0.79259158E+04</totfact>
</mgrwt>
</event>
<event>
 7    0  0.4732500E-002  0.4575523E+03  0.7546771E-02  0.1025494E+00
         21   -1    0    0  502  501  0.00000000000E+00  0.00000000000E+00  0.29990013872E+03  0.29990013872E+03  0.00000000000E+00 0. -1.
         21   -1    0    0  501  502 -0.00000000000E+00 -0.00000000000E+00 -0.17451981840E+03  0.17451981840E+03  0.00000000000E+00 0. -1.
      99926    2    1    2    0    0  0.71054273576E-14  0.71054273576E-14  0.12538032031E+03  0.47441995712E+03  0.45755226040E+03 0.  0.
      99925    2    3    3    0    0  0.55767888650E+02 -0.54390832062E+02 -0.97438295765E+01  0.27448380731E+03  0.26301710637E+03 0.  0.
         25    1    3    3    0    0 -0.55767888650E+02  0.54390832062E+02  0.13512414989E+03  0.19993614981E+03  0.12509000000E+03 0.  0.
         25    1    4    4    0    0  0.66511220293E+02 -0.30693130305E+02 -0.19872652149E+02  0.14631555309E+03  0.12509000000E+03 0.  0.
         25    1    4    4    0    0 -0.10743331643E+02 -0.23697701757E+02  0.10128822573E+02  0.12816825422E+03  0.12509000000E+03 0.  0.
<mgrwt>
<rscale>  2 0.45755226E+03</rscale>
<asrwt>0</asrwt>
<pdfrwt beam="1">  1       21 0.44102961E-01 0.45755226E+03</pdfrwt>
<pdfrwt beam="2">  1       21 0.25664679E-01 0.45755226E+03</pdfrwt>
<totfact> 0.65766600E+04</totfact>
</mgrwt>
</event>
<event>
 7    0  0.4732500E-002  0.4561904E+03  0.7546771E-02  0.1025892E+00
         21   -1    0    0  502  501  0.00000000000E+00  0.00000000000E+00  0.76474584366E+03  0.76474584366E+03  0.00000000000E+00 0.  1.
         21   -1    0    0  501  502 -0.00000000000E+00 -0.00000000000E+00 -0.68032292754E+02  0.68032292754E+02  0.00000000000E+00 0.  1.
      99926    2    1    2    0    0  0.00000000000E+00 -0.35527136788E-14  0.69671355091E+03  0.83277813641E+03  0.45619036868E+03 0.  0.
      99925    2    3    3    0    0  0.13615846852E+02  0.10612426767E+02  0.64425470811E+03  0.69603950553E+03  0.26288562048E+03 0.  0.
         25    1    3    3    0    0 -0.13615846852E+02 -0.10612426767E+02  0.52458842794E+02  0.13673863088E+03  0.12509000000E+03 0.  0.
         25    1    4    4    0    0  0.22902367022E+02 -0.28931643501E+02  0.35803459029E+03  0.38104833598E+03  0.12509000000E+03 0.  0.
         25    1    4    4    0    0 -0.92865201699E+01  0.39544070268E+02  0.28622011782E+03  0.31499116955E+03  0.12509000000E+03 0.  0.
<mgrwt>
<rscale>  2 0.45619037E+03</rscale>
<asrwt>0</asrwt>
<pdfrwt beam="1">  1       21 0.11246262E+00 0.45619037E+03</pdfrwt>
<pdfrwt beam="2">  1       21 0.10004749E-01 0.45619037E+03</pdfrwt>
<totfact> 0.45790711E+04</totfact>
</mgrwt>
</event>
<event>
 7    0  0.4732500E-002  0.4476518E+03  0.7546771E-02  0.1028425E+00
         21   -1    0    0  502  501  0.00000000000E+00  0.00000000000E+00  0.24518521725E+03  0.24518521725E+03  0.00000000000E+00 0. -1.
         21   -1    0    0  501  502 -0.00000000000E+00 -0.00000000000E+00 -0.20432731522E+03  0.20432731522E+03  0.00000000000E+00 0. -1.
      99926    2    1    2    0    0  0.00000000000E+00  0.00000000000E+00  0.40857902021E+02  0.44951253247E+03  0.44765181636E+03 0.  0.
      99925    2    3    3    0    0  0.54695742133E+02 -0.44954125042E+02 -0.53390461087E+02  0.27763245912E+03  0.26309075137E+03 0.  0.
         25    1    3    3    0    0 -0.54695742133E+02  0.44954125042E+02  0.94248363108E+02  0.17188007335E+03  0.12509000000E+03 0.  0.
         25    1    4    4    0    0  0.15566981424E+02 -0.66124849947E+01  0.10895529933E+02  0.12669757907E+03  0.12509000000E+03 0.  0.
         25    1    4    4    0    0  0.39128760709E+02 -0.38341640047E+02 -0.64285991020E+02  0.15093488006E+03  0.12509000000E+03 0.  0.
<mgrwt>
<rscale>  2 0.44765182E+03</rscale>
<asrwt>0</asrwt>
<pdfrwt beam="1">  1       21 0.36056650E-01 0.44765182E+03</pdfrwt>
<pdfrwt beam="2">  1       21 0.30048134E-01 0.44765182E+03</pdfrwt>
<totfact> 0.73144916E+04</totfact>
</mgrwt>
</event>
<event>
 7    0  0.4732500E-002  0.4303811E+03  0.7546771E-02  0.1033740E+00
         21   -1    0    0  502  501  0.00000000000E+00  0.00000000000E+00  0.56095817495E+02  0.56095817495E+02  0.00000000000E+00 0.  1.
         21   -1    0    0  501  502 -0.00000000000E+00 -0.00000000000E+00 -0.82549763299E+03  0.82549763299E+03  0.00000000000E+00 0.  1.
      99926    2    1    2    0    0  0.00000000000E+00  0.88817841970E-15 -0.76940181549E+03  0.88159345049E+03  0.43038106168E+03 0.  0.
      99925    2    3    3    0    0 -0.67414514453E+02  0.61899985282E+01 -0.61201883706E+03  0.66946155085E+03  0.26273309330E+03 0.  0.
         25    1    4    4    0    0 -0.17852436512E+02 -0.29249218370E+01 -0.38709243723E+03  0.40720428254E+03  0.12509000000E+03 0.  0.
         25    1    4    4    0    0 -0.49562077941E+02  0.91149203652E+01 -0.22492639982E+03  0.26225726831E+03  0.12509000000E+03 0.  0.
         25    1    3    3    0    0  0.67414514453E+02 -0.61899985282E+01 -0.15738297844E+03  0.21213189963E+03  0.12509000000E+03 0.  0.
<mgrwt>
<rscale>  2 0.43038106E+03</rscale>
<asrwt>0</asrwt>
<pdfrwt beam="1">  1       21 0.82493846E-02 0.43038106E+03</pdfrwt>
<pdfrwt beam="2">  1       21 0.12139671E+00 0.43038106E+03</pdfrwt>
<totfact> 0.53657107E+04</totfact>
</mgrwt>
</event>
<event>
 7    0  0.4732500E-002  0.4002960E+03  0.7546771E-02  0.1043677E+00
         21   -1    0    0  502  501  0.00000000000E+00  0.00000000000E+00  0.59319956659E+02  0.59319956659E+02  0.00000000000E+00 0.  1.
         21   -1    0    0  501  502 -0.00000000000E+00 -0.00000000000E+00 -0.67530766537E+03  0.67530766537E+03  0.00000000000E+00 0.  1.
      99926    2    1    2    0    0  0.35527136788E-14  0.17763568394E-14 -0.61598770871E+03  0.73462762203E+03  0.40029599769E+03 0.  0.
      99925    2    3    3    0    0  0.16208393986E+02  0.15642591884E+02 -0.48459211999E+03  0.55181703275E+03  0.26299260857E+03 0.  0.
         25    1    4    4    0    0  0.42117482176E+02 -0.13859354258E+02 -0.23503575722E+03  0.26991717114E+03  0.12509000000E+03 0.  0.
         25    1    3    3    0    0 -0.16208393986E+02 -0.15642591884E+02 -0.13139558872E+03  0.18281058928E+03  0.12509000000E+03 0.  0.
         25    1    4    4    0    0 -0.25909088189E+02  0.29501946142E+02 -0.24955636277E+03  0.28189986161E+03  0.12509000000E+03 0.  0.
<mgrwt>
<rscale>  2 0.40029600E+03</rscale>
<asrwt>0</asrwt>
<pdfrwt beam="1">  1       21 0.87235235E-02 0.40029600E+03</pdfrwt>
<pdfrwt beam="2">  1       21 0.99309945E-01 0.40029600E+03</pdfrwt>
<totfact> 0.80490331E+04</totfact>
</mgrwt>
</event>
<event>
 7    0  0.4732500E-002  0.4571832E+03  0.7546771E-02  0.1025601E+00
         21   -1    0    0  502  501  0.00000000000E+00  0.00000000000E+00  0.18284490289E+04  0.18284490289E+04  0.00000000000E+00 0. -1.
         21   -1    0    0  501  502 -0.00000000000E+00 -0.00000000000E+00 -0.28578386196E+02  0.28578386196E+02  0.00000000000E+00 0. -1.
      99926    2    1    2    0    0  0.00000000000E+00  0.00000000000E+00  0.17998706427E+04  0.18570274151E+04  0.45718321268E+03 0.  0.
      99925    2    3    3    0    0  0.64560724148E+02 -0.47504793277E+02  0.79442867385E+03  0.84066829878E+03  0.26302372184E+03 0.  0.
         25    1    4    4    0    0  0.31973433293E+02 -0.19097289960E+02  0.51799911098E+03  0.53418872508E+03  0.12509000000E+03 0.  0.
         25    1    3    3    0    0 -0.64560724148E+02  0.47504793277E+02  0.10054419689E+04  0.10163591164E+04  0.12509000000E+03 0.  0.
         25    1    4    4    0    0  0.32587290855E+02 -0.28407503317E+02  0.27642956287E+03  0.30647957370E+03  0.12509000000E+03 0.  0.
<mgrwt>
<rscale>  2 0.45718321E+03</rscale>
<asrwt>0</asrwt>
<pdfrwt beam="1">  1       21 0.26888948E+00 0.45718321E+03</pdfrwt>
<pdfrwt beam="2">  1       21 0.42027051E-02 0.45718321E+03</pdfrwt>
<totfact> 0.15916483E+04</totfact>
</mgrwt>
</event>
<event>
 6    0  0.4732500E-002  0.4381769E+03  0.7546771E-02  0.1031308E+00
         21   -1    0    0  502  501  0.00000000000E+00  0.00000000000E+00  0.49764862582E+02  0.49764862582E+02  0.00000000000E+00 0. -1.
         21   -1    0    0  501  502 -0.00000000000E+00 -0.00000000000E+00 -0.96453101576E+03  0.96453101576E+03  0.00000000000E+00 0. -1.
      99926    2    1    2    0    0  0.00000000000E+00  0.00000000000E+00 -0.91476615318E+03  0.10142958783E+04  0.43817692069E+03 0.  0.
         25    1    3    3    0    0  0.18310190046E+02 -0.32352973219E+02 -0.16494944217E+03  0.21032785005E+03  0.12509000000E+03 0.  0.
         25    1    3    3    0    0  0.40912804667E+01 -0.12818576660E+02 -0.54060534538E+03  0.55505198138E+03  0.12509000000E+03 0.  0.
         25    1    3    3    0    0 -0.22401470513E+02  0.45171549879E+02 -0.20921136564E+03  0.24891604691E+03  0.12509000000E+03 0.  0.
<mgrwt>
<rscale>  2 0.43817692E+03</rscale>
<asrwt>0</asrwt>
<pdfrwt beam="1">  1       21 0.73183621E-02 0.43817692E+03</pdfrwt>
<pdfrwt beam="2">  1       21 0.14184280E+00 0.43817692E+03</pdfrwt>
<totfact> 0.44133872E+04</totfact>
</mgrwt>
</event>
<event>
 7    0  0.4732500E-002  0.4577938E+03  0.7546771E-02  0.1025423E+00
         21   -1    0    0  502  501  0.00000000000E+00  0.00000000000E+00  0.36279813055E+03  0.36279813055E+03  0.00000000000E+00 0. -1.
         21   -1    0    0  501  502 -0.00000000000E+00 -0.00000000000E+00 -0.14441580481E+03  0.14441580481E+03  0.00000000000E+00 0. -1.
      99926    2    1    2    0    0 -0.14210854715E-13  0.00000000000E+00  0.21838232574E+03  0.50721393536E+03  0.45779377019E+03 0.  0.
      99925    2    3    3    0    0  0.94972054359E+02  0.48668407980E+02  0.86499855673E+02  0.29643253425E+03  0.26268177950E+03 0.  0.
         25    1    4    4    0    0  0.62569745151E+02  0.16910461916E+02  0.82596535459E+02  0.16331145857E+03  0.12509000000E+03 0.  0.
         25    1    4    4    0    0  0.32402309208E+02  0.31757946065E+02  0.39033202135E+01  0.13312107568E+03  0.12509000000E+03 0.  0.
         25    1    3    3    0    0 -0.94972054359E+02 -0.48668407980E+02  0.13188247006E+03  0.21078140111E+03  0.12509000000E+03 0.  0.
<mgrwt>
<rscale>  2 0.45779377E+03</rscale>
<asrwt>0</asrwt>
<pdfrwt beam="1">  1       21 0.53352666E-01 0.45779377E+03</pdfrwt>
<pdfrwt beam="2">  1       21 0.21237618E-01 0.45779377E+03</pdfrwt>
<totfact> 0.63350306E+04</totfact>
</mgrwt>
</event>
<event>
 6    0  0.4732500E-002  0.4424972E+03  0.7546771E-02  0.1029983E+00
         21   -1    0    0  502  501  0.00000000000E+00  0.00000000000E+00  0.15028039411E+04  0.15028039411E+04  0.00000000000E+00 0. -1.
         21   -1    0    0  501  502 -0.00000000000E+00 -0.00000000000E+00 -0.32573073864E+02  0.32573073864E+02  0.00000000000E+00 0. -1.
      99926    2    1    2    0    0  0.00000000000E+00 -0.35527136788E-14  0.14702308672E+04  0.15353770149E+04  0.44249720349E+03 0.  0.
         25    1    3    3    0    0  0.91548112298E+02  0.29494482838E+02  0.46434890875E+03  0.49042675145E+03  0.12509000000E+03 0.  0.
         25    1    3    3    0    0  0.21037232874E+00 -0.58654322450E+01  0.40528039238E+03  0.42418645912E+03  0.12509000000E+03 0.  0.
         25    1    3    3    0    0 -0.91758484627E+02 -0.23629050593E+02  0.60060156607E+03  0.62076380435E+03  0.12509000000E+03 0.  0.
<mgrwt>
<rscale>  2 0.44249720E+03</rscale>
<asrwt>0</asrwt>
<pdfrwt beam="1">  1       21 0.22100053E+00 0.44249720E+03</pdfrwt>
<pdfrwt beam="2">  1       21 0.47901589E-02 0.44249720E+03</pdfrwt>
<totfact> 0.25293759E+04</totfact>
</mgrwt>
</event>
<event>
 7    0  0.4732500E-002  0.4641745E+03  0.7546771E-02  0.1023577E+00
         21   -1    0    0  502  501  0.00000000000E+00  0.00000000000E+00  0.39324077937E+02  0.39324077937E+02  0.00000000000E+00 0.  1.
         21   -1    0    0  501  502 -0.00000000000E+00 -0.00000000000E+00 -0.13697583334E+04  0.13697583334E+04  0.00000000000E+00 0.  1.
      99926    2    1    2    0    0  0.00000000000E+00  0.17763568394E-14 -0.13304342555E+04  0.14090824113E+04  0.46417446486E+03 0.  0.
      99925    2    3    3    0    0 -0.80751520498E+02  0.25309885595E+01 -0.11062787303E+04  0.11399719851E+04  0.26297582332E+03 0.  0.
         25    1    4    4    0    0 -0.99257841720E+01 -0.15287958464E+02 -0.42182289724E+03  0.44035702288E+03  0.12509000000E+03 0.  0.
         25    1    4    4    0    0 -0.70825736326E+02  0.17818947023E+02 -0.68445583307E+03  0.69961496220E+03  0.12509000000E+03 0.  0.
         25    1    3    3    0    0  0.80751520498E+02 -0.25309885595E+01 -0.22415552514E+03  0.26911042625E+03  0.12509000000E+03 0.  0.
<mgrwt>
<rscale>  2 0.46417446E+03</rscale>
<asrwt>0</asrwt>
<pdfrwt beam="1">  1       21 0.57829538E-02 0.46417446E+03</pdfrwt>
<pdfrwt beam="2">  1       21 0.20143501E+00 0.46417446E+03</pdfrwt>
<totfact> 0.24311033E+04</totfact>
</mgrwt>
</event>
<event>
 7    0  0.4732500E-002  0.4544081E+03  0.7546771E-02  0.1026416E+00
         21   -1    0    0  502  501  0.00000000000E+00  0.00000000000E+00  0.47785627240E+03  0.47785627240E+03  0.00000000000E+00 0.  1.
         21   -1    0    0  501  502 -0.00000000000E+00 -0.00000000000E+00 -0.10802764674E+03  0.10802764674E+03  0.00000000000E+00 0.  1.
      99926    2    1    2    0    0  0.00000000000E+00  0.00000000000E+00  0.36982862566E+03  0.58588391913E+03  0.45440813630E+03 0.  0.
      99925    2    3    3    0    0  0.67271645686E+02 -0.67802205646E+02  0.30960283747E+03  0.41736903235E+03  0.26309766018E+03 0.  0.
         25    1    4    4    0    0  0.59015144558E+02 -0.51973179686E+01  0.13328730248E+03  0.19215309652E+03  0.12509000000E+03 0.  0.
         25    1    4    4    0    0  0.82565011275E+01 -0.62604887677E+02  0.17631553499E+03  0.22521593583E+03  0.12509000000E+03 0.  0.
         25    1    3    3    0    0 -0.67271645686E+02  0.67802205646E+02  0.60225788193E+02  0.16851488678E+03  0.12509000000E+03 0.  0.
<mgrwt>
<rscale>  2 0.45440814E+03</rscale>
<asrwt>0</asrwt>
<pdfrwt beam="1">  1       21 0.70272980E-01 0.45440814E+03</pdfrwt>
<pdfrwt beam="2">  1       21 0.15886419E-01 0.45440814E+03</pdfrwt>
<totfact> 0.59835108E+04</totfact>
</mgrwt>
</event>
<event>
 7    0  0.4732500E-002  0.4256617E+03  0.7546771E-02  0.1035239E+00
         21   -1    0    0  502  501  0.00000000000E+00  0.00000000000E+00  0.10336550133E+04  0.10336550133E+04  0.00000000000E+00 0. -1.
         21   -1    0    0  501  502 -0.00000000000E+00 -0.00000000000E+00 -0.43822145926E+02  0.43822145926E+02  0.00000000000E+00 0. -1.
      99926    2    1    2    0    0  0.00000000000E+00  0.00000000000E+00  0.98983286736E+03  0.10774771592E+04  0.42566174754E+03 0.  0.
      99925    2    3    3    0    0  0.47554470117E+02  0.59602753648E+02  0.72102516127E+03  0.77134155719E+03  0.26320448096E+03 0.  0.
         25    1    4    4    0    0  0.43372835657E+02  0.48195135289E+02  0.29079166592E+03  0.32312733559E+03  0.12509000000E+03 0.  0.
         25    1    3    3    0    0 -0.47554470117E+02 -0.59602753648E+02  0.26880770610E+03  0.30613560203E+03  0.12509000000E+03 0.  0.
         25    1    4    4    0    0  0.41816344607E+01  0.11407618360E+02  0.43023349535E+03  0.44821422160E+03  0.12509000000E+03 0.  0.
<mgrwt>
<rscale>  2 0.42566175E+03</rscale>
<asrwt>0</asrwt>
<pdfrwt beam="1">  1       21 0.15200807E+00 0.42566175E+03</pdfrwt>
<pdfrwt beam="2">  1       21 0.64444339E-02 0.42566175E+03</pdfrwt>
<totfact> 0.45933251E+04</totfact>
</mgrwt>
</event>
<event>
 7    0  0.4732500E-002  0.4581110E+03  0.7546771E-02  0.1025331E+00
         21   -1    0    0  502  501  0.00000000000E+00  0.00000000000E+00  0.38016288382E+03  0.38016288382E+03  0.00000000000E+00 0. -1.
         21   -1    0    0  501  502 -0.00000000000E+00 -0.00000000000E+00 -0.13801036734E+03  0.13801036734E+03  0.00000000000E+00 0. -1.
      99926    2    1    2    0    0  0.00000000000E+00 -0.71054273576E-14  0.24215251647E+03  0.51817325116E+03  0.45811098763E+03 0.  0.
      99925    2    3    3    0    0  0.86837710827E+02 -0.54528411640E+02  0.21351537672E+03  0.35391208846E+03  0.26296542466E+03 0.  0.
         25    1    4    4    0    0  0.36408703291E+02  0.49152132262E+00  0.63932259275E+02  0.14512297249E+03  0.12509000000E+03 0.  0.
         25    1    4    4    0    0  0.50429007536E+02 -0.55019932963E+02  0.14958311745E+03  0.20878911597E+03  0.12509000000E+03 0.  0.
         25    1    3    3    0    0 -0.86837710827E+02  0.54528411640E+02  0.28637139752E+02  0.16426116270E+03  0.12509000000E+03 0.  0.
<mgrwt>
<rscale>  2 0.45811099E+03</rscale>
<asrwt>0</asrwt>
<pdfrwt beam="1">  1       21 0.55906306E-01 0.45811099E+03</pdfrwt>
<pdfrwt beam="2">  1       21 0.20295642E-01 0.45811099E+03</pdfrwt>
<totfact> 0.62455889E+04</totfact>
</mgrwt>
</event>
<event>
 7    0  0.4732500E-002  0.4612716E+03  0.7546771E-02  0.1024413E+00
         21   -1    0    0  502  501  0.00000000000E+00  0.00000000000E+00  0.10013464843E+04  0.10013464843E+04  0.00000000000E+00 0. -1.
         21   -1    0    0  501  502 -0.00000000000E+00 -0.00000000000E+00 -0.53121354610E+02  0.53121354610E+02  0.00000000000E+00 0. -1.
      99926    2    1    2    0    0 -0.17763568394E-14 -0.14210854715E-13  0.94822512965E+03  0.10544678389E+04  0.46127164091E+03 0.  0.
      99925    2    3    3    0    0  0.12765701999E+02  0.10791413684E+03  0.48261185124E+03  0.56024961054E+03  0.26297719118E+03 0.  0.
         25    1    4    4    0    0 -0.14031384231E+02  0.76311781962E+02  0.30920802274E+03  0.34245799339E+03  0.12509000000E+03 0.  0.
         25    1    4    4    0    0  0.26797086231E+02  0.31602354879E+02  0.17340382850E+03  0.21779161715E+03  0.12509000000E+03 0.  0.
         25    1    3    3    0    0 -0.12765701999E+02 -0.10791413684E+03  0.46561327841E+03  0.49421822832E+03  0.12509000000E+03 0.  0.
<mgrwt>
<rscale>  2 0.46127164E+03</rscale>
<asrwt>0</asrwt>
<pdfrwt beam="1">  1       21 0.14725682E+00 0.46127164E+03</pdfrwt>
<pdfrwt beam="2">  1       21 0.78119646E-02 0.46127164E+03</pdfrwt>
<totfact> 0.35351467E+04</totfact>
</mgrwt>
</event>
<event>
 7    0  0.4732500E-002  0.4487345E+03  0.7546771E-02  0.1028100E+00
         21   -1    0    0  502  501  0.00000000000E+00  0.00000000000E+00  0.44418479140E+02  0.44418479140E+02  0.00000000000E+00 0.  1.
         21   -1    0    0  501  502 -0.00000000000E+00 -0.00000000000E+00 -0.11333271328E+04  0.11333271328E+04  0.00000000000E+00 0.  1.
      99926    2    1    2    0    0  0.35527136788E-14  0.00000000000E+00 -0.10889086537E+04  0.11777456120E+04  0.44873452111E+03 0.  0.
      99925    2    3    3    0    0  0.25738253363E+02  0.71427394060E+02 -0.49096922182E+03  0.56216182191E+03  0.26307946884E+03 0.  0.
         25    1    4    4    0    0 -0.17213295629E+02  0.55582010888E+02 -0.21069721087E+03  0.25184614400E+03  0.12509000000E+03 0.  0.
         25    1    3    3    0    0 -0.25738253363E+02 -0.71427394060E+02 -0.59793943188E+03  0.61558379008E+03  0.12509000000E+03 0.  0.
         25    1    4    4    0    0  0.42951548992E+02  0.15845383172E+02 -0.28027201096E+03  0.31031567791E+03  0.12509000000E+03 0.  0.
<mgrwt>
<rscale>  2 0.44873452E+03</rscale>
<asrwt>0</asrwt>
<pdfrwt beam="1">  1       21 0.65321293E-02 0.44873452E+03</pdfrwt>
<pdfrwt beam="2">  1       21 0.16666575E+00 0.44873452E+03</pdfrwt>
<totfact> 0.34524236E+04</totfact>
</mgrwt>
</event>
<event>
 7    0  0.4732500E-002  0.4504800E+03  0.7546771E-02  0.1027579E+00
         21   -1    0    0  502  501  0.00000000000E+00  0.00000000000E+00  0.23156058815E+02  0.23156058815E+02  0.00000000000E+00 0. -1.
         21   -1    0    0  501  502 -0.00000000000E+00 -0.00000000000E+00 -0.21909197068E+04  0.21909197068E+04  0.00000000000E+00 0. -1.
      99926    2    1    2    0    0 -0.35527136788E-14  0.00000000000E+00 -0.21677636480E+04  0.22140757656E+04  0.45048003547E+03 0.  0.
      99925    2    3    3    0    0 -0.23692407128E+02 -0.10600661443E+03 -0.14048405335E+04  0.14333722885E+04  0.26302178698E+03 0.  0.
         25    1    4    4    0    0  0.22152372414E+02 -0.71847993540E+02 -0.66056754585E+03  0.67649822802E+03  0.12509000000E+03 0.  0.
         25    1    3    3    0    0  0.23692407128E+02  0.10600661443E+03 -0.76292311448E+03  0.78070347711E+03  0.12509000000E+03 0.  0.
         25    1    4    4    0    0 -0.45844779542E+02 -0.34158620890E+02 -0.74427298762E+03  0.75687406046E+03  0.12509000000E+03 0.  0.
<mgrwt>
<rscale>  2 0.45048004E+03</rscale>
<asrwt>0</asrwt>
<pdfrwt beam="1">  1       21 0.34053023E-02 0.45048004E+03</pdfrwt>
<pdfrwt beam="2">  1       21 0.32219412E+00 0.45048004E+03</pdfrwt>
<totfact> 0.10896657E+04</totfact>
</mgrwt>
</event>
<event>
 7    0  0.4732500E-002  0.4580242E+03  0.7546771E-02  0.1025356E+00
         21   -1    0    0  502  501  0.00000000000E+00  0.00000000000E+00  0.96945538956E+02  0.96945538956E+02  0.00000000000E+00 0. -1.
         21   -1    0    0  501  502 -0.00000000000E+00 -0.00000000000E+00 -0.54098983878E+03  0.54098983878E+03  0.00000000000E+00 0. -1.
      99926    2    1    2    0    0 -0.17763568394E-14  0.00000000000E+00 -0.44404429982E+03  0.63793537774E+03  0.45802424167E+03 0.  0.
      99925    2    3    3    0    0  0.22248917197E+01 -0.10185591917E+03 -0.20140285411E+03  0.34655597268E+03  0.26297975995E+03 0.  0.
         25    1    4    4    0    0  0.34274590421E+02 -0.32428389574E+02 -0.77027512574E+02  0.15429547561E+03  0.12509000000E+03 0.  0.
         25    1    4    4    0    0 -0.32049698702E+02 -0.69427529598E+02 -0.12437534154E+03  0.19226049707E+03  0.12509000000E+03 0.  0.
         25    1    3    3    0    0 -0.22248917197E+01  0.10185591917E+03 -0.24264144571E+03  0.29137940506E+03  0.12509000000E+03 0.  0.
<mgrwt>
<rscale>  2 0.45802424E+03</rscale>
<asrwt>0</asrwt>
<pdfrwt beam="1">  1       21 0.14256697E-01 0.45802424E+03</pdfrwt>
<pdfrwt beam="2">  1       21 0.79557326E-01 0.45802424E+03</pdfrwt>
<totfact> 0.55075573E+04</totfact>
</mgrwt>
</event>
<event>
 7    0  0.4732500E-002  0.4402933E+03  0.7546771E-02  0.1030657E+00
         21   -1    0    0  502  501  0.00000000000E+00  0.00000000000E+00  0.40673943565E+02  0.40673943565E+02  0.00000000000E+00 0.  1.
         21   -1    0    0  501  502 -0.00000000000E+00 -0.00000000000E+00 -0.11915382164E+04  0.11915382164E+04  0.00000000000E+00 0.  1.
      99926    2    1    2    0    0  0.00000000000E+00  0.14210854715E-13 -0.11508642729E+04  0.12322121600E+04  0.44029334844E+03 0.  0.
      99925    2    3    3    0    0  0.38199968335E+02  0.72056601688E+02 -0.57758004561E+03  0.63979870239E+03  0.26285410225E+03 0.  0.
         25    1    4    4    0    0 -0.11473384741E+01  0.14247111932E+01 -0.23455583633E+03  0.26583320832E+03  0.12509000000E+03 0.  0.
         25    1    4    4    0    0  0.39347306809E+02  0.70631890495E+02 -0.34302420928E+03  0.37396549408E+03  0.12509000000E+03 0.  0.
         25    1    3    3    0    0 -0.38199968335E+02 -0.72056601688E+02 -0.57328422725E+03  0.59241345760E+03  0.12509000000E+03 0.  0.
<mgrwt>
<rscale>  2 0.44029335E+03</rscale>
<asrwt>0</asrwt>
<pdfrwt beam="1">  1       21 0.59814623E-02 0.44029335E+03</pdfrwt>
<pdfrwt beam="2">  1       21 0.17522621E+00 0.44029335E+03</pdfrwt>
<totfact> 0.34985450E+04</totfact>
</mgrwt>
</event>
<event>
 7    0  0.4732500E-002  0.4491292E+03  0.7546771E-02  0.1027982E+00
         21   -1    0    0  502  501  0.00000000000E+00  0.00000000000E+00  0.10856488772E+04  0.10856488772E+04  0.00000000000E+00 0. -1.
         21   -1    0    0  501  502 -0.00000000000E+00 -0.00000000000E+00 -0.46450807892E+02  0.46450807892E+02  0.00000000000E+00 0. -1.
      99926    2    1    2    0    0 -0.35527136788E-14  0.00000000000E+00  0.10391980693E+04  0.11320996851E+04  0.44912923499E+03 0.  0.
      99925    2    3    3    0    0  0.29332553256E+02 -0.24954327500E+01  0.91797205839E+03  0.95543650361E+03  0.26328613064E+03 0.  0.
         25    1    4    4    0    0 -0.22778194793E+02 -0.11214591979E+02  0.39427876697E+03  0.41442474277E+03  0.12509000000E+03 0.  0.
         25    1    3    3    0    0 -0.29332553256E+02  0.24954327500E+01  0.12122601090E+03  0.17666318146E+03  0.12509000000E+03 0.  0.
         25    1    4    4    0    0  0.52110748049E+02  0.87191592286E+01  0.52369329141E+03  0.54101176084E+03  0.12509000000E+03 0.  0.
<mgrwt>
<rscale>  2 0.44912923E+03</rscale>
<asrwt>0</asrwt>
<pdfrwt beam="1">  1       21 0.15965423E+00 0.44912923E+03</pdfrwt>
<pdfrwt beam="2">  1       21 0.68310018E-02 0.44912923E+03</pdfrwt>
<totfact> 0.36005397E+04</totfact>
</mgrwt>
</event>
<event>
 7    0  0.4732500E-002  0.4552533E+03  0.7546771E-02  0.1026167E+00
         21   -1    0    0  502  501  0.00000000000E+00  0.00000000000E+00  0.56035855776E+02  0.56035855776E+02  0.00000000000E+00 0. -1.
         21   -1    0    0  501  502 -0.00000000000E+00 -0.00000000000E+00 -0.92465585041E+03  0.92465585041E+03  0.00000000000E+00 0. -1.
      99926    2    1    2    0    0  0.00000000000E+00  0.00000000000E+00 -0.86861999463E+03  0.98069170618E+03  0.45525325644E+03 0.  0.
      99925    2    3    3    0    0 -0.70125526923E+02 -0.13872579595E+02 -0.73614365925E+03  0.78496862240E+03  0.26297949179E+03 0.  0.
         25    1    3    3    0    0  0.70125526923E+02  0.13872579595E+02 -0.13247633538E+03  0.19572308378E+03  0.12509000000E+03 0.  0.
         25    1    4    4    0    0  0.56816192234E+01 -0.62968095950E+01 -0.36731152296E+03  0.38812007627E+03  0.12509000000E+03 0.  0.
         25    1    4    4    0    0 -0.75807146147E+02 -0.75757699997E+01 -0.36883213629E+03  0.39684854613E+03  0.12509000000E+03 0.  0.
<mgrwt>
<rscale>  2 0.45525326E+03</rscale>
<asrwt>0</asrwt>
<pdfrwt beam="1">  1       21 0.82405677E-02 0.45525326E+03</pdfrwt>
<pdfrwt beam="2">  1       21 0.13597879E+00 0.45525326E+03</pdfrwt>
<totfact> 0.39843283E+04</totfact>
</mgrwt>
</event>
<event>
 7    0  0.4732500E-002  0.4581989E+03  0.7546771E-02  0.1025305E+00
         21   -1    0    0  502  501  0.00000000000E+00  0.00000000000E+00  0.87739634885E+03  0.87739634885E+03  0.00000000000E+00 0.  1.
         21   -1    0    0  501  502 -0.00000000000E+00 -0.00000000000E+00 -0.59820802089E+02  0.59820802089E+02  0.00000000000E+00 0.  1.
      99926    2    1    2    0    0  0.14210854715E-13 -0.35527136788E-14  0.81757554676E+03  0.93721715094E+03  0.45819887969E+03 0.  0.
      99925    2    3    3    0    0 -0.87325638727E+02  0.17361746289E+02  0.36058085778E+03  0.45511876755E+03  0.26303486492E+03 0.  0.
         25    1    4    4    0    0 -0.61656015464E+02  0.43491880457E+02  0.16877361041E+03  0.22321524944E+03  0.12509000000E+03 0.  0.
         25    1    3    3    0    0  0.87325638727E+02 -0.17361746289E+02  0.45699468898E+03  0.48209838339E+03  0.12509000000E+03 0.  0.
         25    1    4    4    0    0 -0.25669623263E+02 -0.26130134168E+02  0.19180724737E+03  0.23190351811E+03  0.12509000000E+03 0.  0.
<mgrwt>
<rscale>  2 0.45819888E+03</rscale>
<asrwt>0</asrwt>
<pdfrwt beam="1">  1       21 0.12902887E+00 0.45819888E+03</pdfrwt>
<pdfrwt beam="2">  1       21 0.87971773E-02 0.45819888E+03</pdfrwt>
<totfact> 0.40636580E+04</totfact>
</mgrwt>
</event>
<event>
 7    0  0.4732500E-002  0.4567845E+03  0.7546771E-02  0.1025718E+00
         21   -1    0    0  502  501  0.00000000000E+00  0.00000000000E+00  0.23826073298E+03  0.23826073298E+03  0.00000000000E+00 0.  1.
         21   -1    0    0  501  502 -0.00000000000E+00 -0.00000000000E+00 -0.21893249836E+03  0.21893249836E+03  0.00000000000E+00 0.  1.
      99926    2    1    2    0    0  0.00000000000E+00  0.00000000000E+00  0.19328234618E+02  0.45719323133E+03  0.45678448980E+03 0.  0.
      99925    2    3    3    0    0 -0.14987148441E+02  0.50701917709E+02  0.11414608761E+03  0.29156342597E+03  0.26302966177E+03 0.  0.
         25    1    4    4    0    0  0.65920749314E+01 -0.87282608640E+01  0.33927929096E+02  0.13007017515E+03  0.12509000000E+03 0.  0.
         25    1    4    4    0    0 -0.21579223372E+02  0.59430178573E+02  0.80218158517E+02  0.16149325083E+03  0.12509000000E+03 0.  0.
         25    1    3    3    0    0  0.14987148441E+02 -0.50701917709E+02 -0.94817852994E+02  0.16562980536E+03  0.12509000000E+03 0.  0.
<mgrwt>
<rscale>  2 0.45678449E+03</rscale>
<asrwt>0</asrwt>
<pdfrwt beam="1">  1       21 0.35038343E-01 0.45678449E+03</pdfrwt>
<pdfrwt beam="2">  1       21 0.32195956E-01 0.45678449E+03</pdfrwt>
<totfact> 0.67420364E+04</totfact>
</mgrwt>
</event>
<event>
 7    0  0.4732500E-002  0.4589402E+03  0.7546771E-02  0.1025089E+00
         21   -1    0    0  502  501  0.00000000000E+00  0.00000000000E+00  0.27998373836E+03  0.27998373836E+03  0.00000000000E+00 0. -1.
         21   -1    0    0  501  502 -0.00000000000E+00 -0.00000000000E+00 -0.18806990632E+03  0.18806990632E+03  0.00000000000E+00 0. -1.
      99926    2    1    2    0    0 -0.71054273576E-14  0.00000000000E+00  0.91913832040E+02  0.46805364469E+03  0.45894015055E+03 0.  0.
      99925    2    3    3    0    0 -0.42058752358E+02 -0.88552513835E+02 -0.72533476964E+01  0.28072472542E+03  0.26295108681E+03 0.  0.
         25    1    4    4    0    0  0.48553599966E+01 -0.17432257119E+02  0.16704515334E+02  0.12749120378E+03  0.12509000000E+03 0.  0.
         25    1    3    3    0    0  0.42058752358E+02  0.88552513835E+02  0.99167179736E+02  0.18732891927E+03  0.12509000000E+03 0.  0.
         25    1    4    4    0    0 -0.46914112354E+02 -0.71120256716E+02 -0.23957863030E+02  0.15323352164E+03  0.12509000000E+03 0.  0.
<mgrwt>
<rscale>  2 0.45894015E+03</rscale>
<asrwt>0</asrwt>
<pdfrwt beam="1">  1       21 0.41174079E-01 0.45894015E+03</pdfrwt>
<pdfrwt beam="2">  1       21 0.27657339E-01 0.45894015E+03</pdfrwt>
<totfact> 0.65508212E+04</totfact>
</mgrwt>
</event>
<event>
 7    0  0.4732500E-002  0.4288056E+03  0.7546771E-02  0.1034238E+00
         21   -1    0    0  502  501  0.00000000000E+00  0.00000000000E+00  0.23208368967E+03  0.23208368967E+03  0.00000000000E+00 0.  1.
         21   -1    0    0  501  502 -0.00000000000E+00 -0.00000000000E+00 -0.19806892936E+03  0.19806892936E+03  0.00000000000E+00 0.  1.
      99926    2    1    2    0    0 -0.14210854715E-13  0.00000000000E+00  0.34014760315E+02  0.43015261903E+03  0.42880563399E+03 0.  0.
      99925    2    3    3    0    0 -0.73533040507E+02  0.24097448620E+02 -0.16302431202E+02  0.27469483396E+03  0.26306593749E+03 0.  0.
         25    1    4    4    0    0 -0.78976481655E+02  0.13944710675E+02 -0.85873983639E+01  0.14883880919E+03  0.12509000000E+03 0.  0.
         25    1    4    4    0    0  0.54434411470E+01  0.10152737945E+02 -0.77150328383E+01  0.12585602477E+03  0.12509000000E+03 0.  0.
         25    1    3    3    0    0  0.73533040507E+02 -0.24097448620E+02  0.50317191517E+02  0.15545778507E+03  0.12509000000E+03 0.  0.
<mgrwt>
<rscale>  2 0.42880563E+03</rscale>
<asrwt>0</asrwt>
<pdfrwt beam="1">  1       21 0.34129954E-01 0.42880563E+03</pdfrwt>
<pdfrwt beam="2">  1       21 0.29127784E-01 0.42880563E+03</pdfrwt>
<totfact> 0.87267380E+04</totfact>
</mgrwt>
</event>
<event>
 7    0  0.4732500E-002  0.4522778E+03  0.7546771E-02  0.1027045E+00
         21   -1    0    0  502  501  0.00000000000E+00  0.00000000000E+00  0.16118808523E+03  0.16118808523E+03  0.00000000000E+00 0.  1.
         21   -1    0    0  501  502 -0.00000000000E+00 -0.00000000000E+00 -0.31726168552E+03  0.31726168552E+03  0.00000000000E+00 0.  1.
      99926    2    1    2    0    0  0.14210854715E-13 -0.17763568394E-14 -0.15607360030E+03  0.47844977075E+03  0.45227780669E+03 0.  0.
      99925    2    3    3    0    0 -0.70410814104E+02  0.86686662260E+01 -0.18827545712E+03  0.33108187669E+03  0.26293484516E+03 0.  0.
         25    1    4    4    0    0 -0.11354919634E+02  0.55860397575E+01 -0.49521491632E+02  0.13512965727E+03  0.12509000000E+03 0.  0.
         25    1    4    4    0    0 -0.59055894469E+02  0.30826264685E+01 -0.13875396549E+03  0.19595221942E+03  0.12509000000E+03 0.  0.
         25    1    3    3    0    0  0.70410814104E+02 -0.86686662260E+01  0.32201856823E+02  0.14736789406E+03  0.12509000000E+03 0.  0.
<mgrwt>
<rscale>  2 0.45227781E+03</rscale>
<asrwt>0</asrwt>
<pdfrwt beam="1">  1       21 0.23704130E-01 0.45227781E+03</pdfrwt>
<pdfrwt beam="2">  1       21 0.46656130E-01 0.45227781E+03</pdfrwt>
<totfact> 0.68276500E+04</totfact>
</mgrwt>
</event>
<event>
 7    0  0.4732500E-002  0.4532364E+03  0.7546771E-02  0.1026761E+00
         21   -1    0    0  502  501  0.00000000000E+00  0.00000000000E+00  0.17503886732E+04  0.17503886732E+04  0.00000000000E+00 0. -1.
         21   -1    0    0  501  502 -0.00000000000E+00 -0.00000000000E+00 -0.29339657305E+02  0.29339657305E+02  0.00000000000E+00 0. -1.
      99926    2    1    2    0    0  0.00000000000E+00  0.00000000000E+00  0.17210490159E+04  0.17797283305E+04  0.45323637905E+03 0.  0.
      99925    2    3    3    0    0 -0.67428467438E+02 -0.77923465393E+02  0.91914682319E+03  0.96161262998E+03  0.26315262279E+03 0.  0.
         25    1    3    3    0    0  0.67428467438E+02  0.77923465393E+02  0.80190219270E+03  0.81811570052E+03  0.12509000000E+03 0.  0.
         25    1    4    4    0    0 -0.49277993829E+02 -0.58163240096E+02  0.37423497633E+03  0.40188382498E+03  0.12509000000E+03 0.  0.
         25    1    4    4    0    0 -0.18150473609E+02 -0.19760225298E+02  0.54491184686E+03  0.55972880500E+03  0.12509000000E+03 0.  0.
<mgrwt>
<rscale>  2 0.45323638E+03</rscale>
<asrwt>0</asrwt>
<pdfrwt beam="1">  1       21 0.25741003E+00 0.45323638E+03</pdfrwt>
<pdfrwt beam="2">  1       21 0.43146567E-02 0.45323638E+03</pdfrwt>
<totfact> 0.17896015E+04</totfact>
</mgrwt>
</event>
<event>
 7    0  0.4732500E-002  0.4745898E+03  0.7546771E-02  0.1020633E+00
         21   -1    0    0  502  501  0.00000000000E+00  0.00000000000E+00  0.10487817973E+04  0.10487817973E+04  0.00000000000E+00 0.  1.
         21   -1    0    0  501  502 -0.00000000000E+00 -0.00000000000E+00 -0.53689776384E+02  0.53689776384E+02  0.00000000000E+00 0.  1.
      99926    2    1    2    0    0  0.00000000000E+00  0.00000000000E+00  0.99509202093E+03  0.11024715737E+04  0.47458976042E+03 0.  0.
      99925    2    3    3    0    0 -0.35153926587E+02  0.61904429458E+02  0.87040958615E+03  0.91204790242E+03  0.26296496289E+03 0.  0.
         25    1    4    4    0    0 -0.40925522184E+01  0.29783556256E+02  0.55675906707E+03  0.57142976478E+03  0.12509000000E+03 0.  0.
         25    1    4    4    0    0 -0.31061374368E+02  0.32120873202E+02  0.31365051908E+03  0.34061813764E+03  0.12509000000E+03 0.  0.
         25    1    3    3    0    0  0.35153926587E+02 -0.61904429458E+02  0.12468243478E+03  0.19042367128E+03  0.12509000000E+03 0.  0.
<mgrwt>
<rscale>  2 0.47458976E+03</rscale>
<asrwt>0</asrwt>
<pdfrwt beam="1">  1       21 0.15423260E+00 0.47458976E+03</pdfrwt>
<pdfrwt beam="2">  1       21 0.78955560E-02 0.47458976E+03</pdfrwt>
<totfact> 0.30477703E+04</totfact>
</mgrwt>
</event>
<event>
 7    0  0.4732500E-002  0.4577630E+03  0.7546771E-02  0.1025432E+00
         21   -1    0    0  502  501  0.00000000000E+00  0.00000000000E+00  0.52162836762E+02  0.52162836762E+02  0.00000000000E+00 0. -1.
         21   -1    0    0  501  502 -0.00000000000E+00 -0.00000000000E+00 -0.10042923933E+04  0.10042923933E+04  0.00000000000E+00 0. -1.
      99926    2    1    2    0    0  0.14210854715E-13  0.00000000000E+00 -0.95212955659E+03  0.10564552301E+04  0.45776299621E+03 0.  0.
      99925    2    3    3    0    0 -0.88712868435E+02  0.74527174811E+02 -0.60210403244E+03  0.66711007673E+03  0.26283514943E+03 0.  0.
         25    1    4    4    0    0 -0.83646030161E+02  0.32960106324E+02 -0.29279192199E+03  0.33084383726E+03  0.12509000000E+03 0.  0.
         25    1    3    3    0    0  0.88712868435E+02 -0.74527174811E+02 -0.35002552414E+03  0.38934515338E+03  0.12509000000E+03 0.  0.
         25    1    4    4    0    0 -0.50668382747E+01  0.41567068487E+02 -0.30931211045E+03  0.33626623946E+03  0.12509000000E+03 0.  0.
<mgrwt>
<rscale>  2 0.45776300E+03</rscale>
<asrwt>0</asrwt>
<pdfrwt beam="1">  1       21 0.76710060E-02 0.45776300E+03</pdfrwt>
<pdfrwt beam="2">  1       21 0.14769005E+00 0.45776300E+03</pdfrwt>
<totfact> 0.36253300E+04</totfact>
</mgrwt>
</event>
<event>
 7    0  0.4732500E-002  0.4543061E+03  0.7546771E-02  0.1026446E+00
         21   -1    0    0  502  501  0.00000000000E+00  0.00000000000E+00  0.48371766780E+03  0.48371766780E+03  0.00000000000E+00 0. -1.
         21   -1    0    0  501  502 -0.00000000000E+00 -0.00000000000E+00 -0.10667071205E+03  0.10667071205E+03  0.00000000000E+00 0. -1.
      99926    2    1    2    0    0 -0.35527136788E-14 -0.71054273576E-14  0.37704695574E+03  0.59038837985E+03  0.45430609970E+03 0.  0.
      99925    2    3    3    0    0  0.29362547193E+02 -0.48658211740E+02  0.11107122321E+03  0.29102174987E+03  0.26292025697E+03 0.  0.
         25    1    3    3    0    0 -0.29362547193E+02  0.48658211740E+02  0.26597573254E+03  0.29936662998E+03  0.12509000000E+03 0.  0.
         25    1    4    4    0    0  0.46815706647E+02 -0.47271273723E+02  0.46176871184E+02  0.14901709714E+03  0.12509000000E+03 0.  0.
         25    1    4    4    0    0 -0.17453159455E+02 -0.13869380162E+01  0.64894352023E+02  0.14200465273E+03  0.12509000000E+03 0.  0.
<mgrwt>
<rscale>  2 0.45430610E+03</rscale>
<asrwt>0</asrwt>
<pdfrwt beam="1">  1       21 0.71134950E-01 0.45430610E+03</pdfrwt>
<pdfrwt beam="2">  1       21 0.15686870E-01 0.45430610E+03</pdfrwt>
<totfact> 0.59600006E+04</totfact>
</mgrwt>
</event>
<event>
 6    0  0.4732500E-002  0.4512453E+03  0.7546771E-02  0.1027351E+00
         21   -1    0    0  502  501  0.00000000000E+00  0.00000000000E+00  0.15806826601E+03  0.15806826601E+03  0.00000000000E+00 0. -1.
         21   -1    0    0  501  502 -0.00000000000E+00 -0.00000000000E+00 -0.32204811837E+03  0.32204811837E+03  0.00000000000E+00 0. -1.
      99926    2    1    2    0    0  0.71054273576E-14  0.00000000000E+00 -0.16397985236E+03  0.48011638437E+03  0.45124533301E+03 0.  0.
         25    1    3    3    0    0  0.49540871328E+02 -0.24610060164E+02 -0.16710695791E+03  0.21594489222E+03  0.12509000000E+03 0.  0.
         25    1    3    3    0    0  0.55005277250E+01  0.19824938498E+02 -0.76387369211E+01  0.12700056060E+03  0.12509000000E+03 0.  0.
         25    1    3    3    0    0 -0.55041399053E+02  0.47851216658E+01  0.10765842467E+02  0.13717093155E+03  0.12509000000E+03 0.  0.
<mgrwt>
<rscale>  2 0.45124533E+03</rscale>
<asrwt>0</asrwt>
<pdfrwt beam="1">  1       21 0.23245333E-01 0.45124533E+03</pdfrwt>
<pdfrwt beam="2">  1       21 0.47360017E-01 0.45124533E+03</pdfrwt>
<totfact> 0.68716966E+04</totfact>
</mgrwt>
</event>
<event>
 7    0  0.4732500E-002  0.4553225E+03  0.7546771E-02  0.1026147E+00
         21   -1    0    0  502  501  0.00000000000E+00  0.00000000000E+00  0.77642232190E+02  0.77642232190E+02  0.00000000000E+00 0. -1.
         21   -1    0    0  501  502 -0.00000000000E+00 -0.00000000000E+00 -0.66754436628E+03  0.66754436628E+03  0.00000000000E+00 0. -1.
      99926    2    1    2    0    0  0.00000000000E+00 -0.35527136788E-14 -0.58990213409E+03  0.74518659847E+03  0.45532245578E+03 0.  0.
      99925    2    3    3    0    0  0.75512877204E+02  0.20604827504E+02 -0.23660140050E+03  0.36230845859E+03  0.26298373127E+03 0.  0.
         25    1    3    3    0    0 -0.75512877204E+02 -0.20604827504E+02 -0.35330073359E+03  0.38287813987E+03  0.12509000000E+03 0.  0.
         25    1    4    4    0    0  0.32613557209E+02  0.50521894657E+02 -0.12108356347E+03  0.18418697944E+03  0.12509000000E+03 0.  0.
         25    1    4    4    0    0  0.42899319995E+02 -0.29917067153E+02 -0.11551783703E+03  0.17812147915E+03  0.12509000000E+03 0.  0.
<mgrwt>
<rscale>  2 0.45532246E+03</rscale>
<asrwt>0</asrwt>
<pdfrwt beam="1">  1       21 0.11417975E-01 0.45532246E+03</pdfrwt>
<pdfrwt beam="2">  1       21 0.98168291E-01 0.45532246E+03</pdfrwt>
<totfact> 0.50389482E+04</totfact>
</mgrwt>
</event>
<event>
 7    0  0.4732500E-002  0.4560224E+03  0.7546771E-02  0.1025941E+00
         21   -1    0    0  502  501  0.00000000000E+00  0.00000000000E+00  0.35343173392E+03  0.35343173392E+03  0.00000000000E+00 0. -1.
         21   -1    0    0  501  502 -0.00000000000E+00 -0.00000000000E+00 -0.14709801962E+03  0.14709801962E+03  0.00000000000E+00 0. -1.
      99926    2    1    2    0    0  0.17763568394E-14  0.00000000000E+00  0.20633371430E+03  0.50052975353E+03  0.45602240352E+03 0.  0.
      99925    2    3    3    0    0 -0.15218308833E+02  0.86539925708E+02  0.49705810488E+02  0.28166777872E+03  0.26295496631E+03 0.  0.
         25    1    4    4    0    0  0.35619390636E+01  0.79975410854E+02  0.96661068943E+01  0.14882773758E+03  0.12509000000E+03 0.  0.
         25    1    4    4    0    0 -0.18780247897E+02  0.65645148537E+01  0.40039703593E+02  0.13284004114E+03  0.12509000000E+03 0.  0.
         25    1    3    3    0    0  0.15218308833E+02 -0.86539925708E+02  0.15662790381E+03  0.21886197481E+03  0.12509000000E+03 0.  0.
<mgrwt>
<rscale>  2 0.45602240E+03</rscale>
<asrwt>0</asrwt>
<pdfrwt beam="1">  1       21 0.51975255E-01 0.45602240E+03</pdfrwt>
<pdfrwt beam="2">  1       21 0.21632062E-01 0.45602240E+03</pdfrwt>
<totfact> 0.64706711E+04</totfact>
</mgrwt>
</event>
<event>
 7    0  0.4732500E-002  0.4167104E+03  0.7546771E-02  0.1038142E+00
         21   -1    0    0  502  501  0.00000000000E+00  0.00000000000E+00  0.41797117497E+03  0.41797117497E+03  0.00000000000E+00 0.  1.
         21   -1    0    0  501  502 -0.00000000000E+00 -0.00000000000E+00 -0.10386337406E+03  0.10386337406E+03  0.00000000000E+00 0.  1.
      99926    2    1    2    0    0  0.00000000000E+00  0.00000000000E+00  0.31410780091E+03  0.52183454902E+03  0.41671043419E+03 0.  0.
      99925    2    3    3    0    0 -0.37577716560E+02 -0.54512997078E+02  0.17141868880E+03  0.32085832543E+03  0.26302461196E+03 0.  0.
         25    1    4    4    0    0 -0.40284483647E+02 -0.27601768815E+02  0.12853084060E+03  0.18588271127E+03  0.12509000000E+03 0.  0.
         25    1    3    3    0    0  0.37577716560E+02  0.54512997078E+02  0.14268911212E+03  0.20097622359E+03  0.12509000000E+03 0.  0.
         25    1    4    4    0    0  0.27067670877E+01 -0.26911228263E+02  0.42887848194E+02  0.13497561416E+03  0.12509000000E+03 0.  0.
<mgrwt>
<rscale>  2 0.41671043E+03</rscale>
<asrwt>0</asrwt>
<pdfrwt beam="1">  1       21 0.61466349E-01 0.41671043E+03</pdfrwt>
<pdfrwt beam="2">  1       21 0.15274026E-01 0.41671043E+03</pdfrwt>
<totfact> 0.87400103E+04</totfact>
</mgrwt>
</event>
<event>
 7    0  0.4732500E-002  0.4124297E+03  0.7546771E-02  0.1039559E+00
         21   -1    0    0  502  501  0.00000000000E+00  0.00000000000E+00  0.36489325359E+03  0.36489325359E+03  0.00000000000E+00 0. -1.
         21   -1    0    0  501  502 -0.00000000000E+00 -0.00000000000E+00 -0.11653972199E+03  0.11653972199E+03  0.00000000000E+00 0. -1.
      99926    2    1    2    0    0 -0.44408920985E-15  0.00000000000E+00  0.24835353160E+03  0.48143297559E+03  0.41242967076E+03 0.  0.
      99925    2    3    3    0    0  0.19412145937E+01 -0.59797000115E+02  0.19511251043E+03  0.33290161872E+03  0.26301168507E+03 0.  0.
         25    1    3    3    0    0 -0.19412145937E+01  0.59797000115E+02  0.53241021171E+02  0.14853135686E+03  0.12509000000E+03 0.  0.
         25    1    4    4    0    0  0.28556977250E+02 -0.13772672884E+02  0.63973152965E+02  0.14403214873E+03  0.12509000000E+03 0.  0.
         25    1    4    4    0    0 -0.26615762656E+02 -0.46024327231E+02  0.13113935746E+03  0.18886946999E+03  0.12509000000E+03 0.  0.
<mgrwt>
<rscale>  2 0.41242967E+03</rscale>
<asrwt>0</asrwt>
<pdfrwt beam="1">  1       21 0.53660772E-01 0.41242967E+03</pdfrwt>
<pdfrwt beam="2">  1       21 0.17138195E-01 0.41242967E+03</pdfrwt>
<totfact> 0.94787569E+04</totfact>
</mgrwt>
</event>
<event>
 7    0  0.4732500E-002  0.4547344E+03  0.7546771E-02  0.1026320E+00
         21   -1    0    0  502  501  0.00000000000E+00  0.00000000000E+00  0.10487542805E+04  0.10487542805E+04  0.00000000000E+00 0.  1.
         21   -1    0    0  501  502 -0.00000000000E+00 -0.00000000000E+00 -0.49292609728E+02  0.49292609728E+02  0.00000000000E+00 0.  1.
      99926    2    1    2    0    0  0.00000000000E+00  0.00000000000E+00  0.99946167082E+03  0.10980468903E+04  0.45473436400E+03 0.  0.
      99925    2    3    3    0    0 -0.85484847121E+02 -0.28529497319E+02  0.79526153493E+03  0.84218209219E+03  0.26212244496E+03 0.  0.
         25    1    3    3    0    0  0.85484847121E+02  0.28529497319E+02  0.20420013589E+03  0.25586479809E+03  0.12509000000E+03 0.  0.
         25    1    4    4    0    0 -0.37633734724E+02 -0.17172455779E+02  0.51151173928E+03  0.52820730660E+03  0.12509000000E+03 0.  0.
         25    1    4    4    0    0 -0.47851112396E+02 -0.11357041540E+02  0.28374979565E+03  0.31397478558E+03  0.12509000000E+03 0.  0.
<mgrwt>
<rscale>  2 0.45473436E+03</rscale>
<asrwt>0</asrwt>
<pdfrwt beam="1">  1       21 0.15422856E+00 0.45473436E+03</pdfrwt>
<pdfrwt beam="2">  1       21 0.72489138E-02 0.45473436E+03</pdfrwt>
<totfact> 0.35635840E+04</totfact>
</mgrwt>
</event>
<event>
 7    0  0.4732500E-002  0.4400435E+03  0.7546771E-02  0.1030733E+00
         21   -1    0    0  502  501  0.00000000000E+00  0.00000000000E+00  0.14350532141E+03  0.14350532141E+03  0.00000000000E+00 0.  1.
         21   -1    0    0  501  502 -0.00000000000E+00 -0.00000000000E+00 -0.33733638430E+03  0.33733638430E+03  0.00000000000E+00 0.  1.
      99926    2    1    2    0    0  0.71054273576E-14  0.14210854715E-13 -0.19383106289E+03  0.48084170571E+03  0.44004348082E+03 0.  0.
      99925    2    3    3    0    0  0.49382084554E+02  0.80525646181E+02 -0.93242760774E+02  0.29459325715E+03  0.26299810789E+03 0.  0.
         25    1    4    4    0    0 -0.13390057139E+02  0.51312719473E+02 -0.55145751164E+02  0.14663168410E+03  0.12509000000E+03 0.  0.
         25    1    3    3    0    0 -0.49382084554E+02 -0.80525646181E+02 -0.10058830212E+03  0.18624844856E+03  0.12509000000E+03 0.  0.
         25    1    4    4    0    0  0.62772141693E+02  0.29212926707E+02 -0.38097009610E+02  0.14796157305E+03  0.12509000000E+03 0.  0.
<mgrwt>
<rscale>  2 0.44004348E+03</rscale>
<asrwt>0</asrwt>
<pdfrwt beam="1">  1       21 0.21103724E-01 0.44004348E+03</pdfrwt>
<pdfrwt beam="2">  1       21 0.49608292E-01 0.44004348E+03</pdfrwt>
<totfact> 0.75176041E+04</totfact>
</mgrwt>
</event>
<event>
 7    0  0.4732500E-002  0.4568095E+03  0.7546771E-02  0.1025711E+00
         21   -1    0    0  502  501  0.00000000000E+00  0.00000000000E+00  0.42959271721E+03  0.42959271721E+03  0.00000000000E+00 0.  1.
         21   -1    0    0  501  502 -0.00000000000E+00 -0.00000000000E+00 -0.12143764236E+03  0.12143764236E+03  0.00000000000E+00 0.  1.
      99926    2    1    2    0    0  0.00000000000E+00  0.71054273576E-14  0.30815507485E+03  0.55103035957E+03  0.45680948656E+03 0.  0.
      99925    2    3    3    0    0 -0.82045814104E+02 -0.33278409969E+02  0.28188784584E+03  0.39554259927E+03  0.26297190349E+03 0.  0.
         25    1    3    3    0    0  0.82045814104E+02  0.33278409969E+02  0.26267229010E+02  0.15548776030E+03  0.12509000000E+03 0.  0.
         25    1    4    4    0    0 -0.41382166357E+02 -0.54387783698E+02  0.12368578884E+03  0.18872254017E+03  0.12509000000E+03 0.  0.
         25    1    4    4    0    0 -0.40663647748E+02  0.21109373730E+02  0.15820205700E+03  0.20682005910E+03  0.12509000000E+03 0.  0.
<mgrwt>
<rscale>  2 0.45680949E+03</rscale>
<asrwt>0</asrwt>
<pdfrwt beam="1">  1       21 0.63175399E-01 0.45680949E+03</pdfrwt>
<pdfrwt beam="2">  1       21 0.17858477E-01 0.45680949E+03</pdfrwt>
<totfact> 0.60921617E+04</totfact>
</mgrwt>
</event>
<event>
 7    0  0.4732500E-002  0.4571288E+03  0.7546771E-02  0.1025617E+00
         21   -1    0    0  502  501  0.00000000000E+00  0.00000000000E+00  0.10169716137E+03  0.10169716137E+03  0.00000000000E+00 0. -1.
         21   -1    0    0  501  502 -0.00000000000E+00 -0.00000000000E+00 -0.51369851663E+03  0.51369851663E+03  0.00000000000E+00 0. -1.
      99926    2    1    2    0    0 -0.35527136788E-14  0.00000000000E+00 -0.41200135526E+03  0.61539567800E+03  0.45712878247E+03 0.  0.
      99925    2    3    3    0    0  0.27379284275E+02  0.11211407253E+03 -0.25377379056E+03  0.38301095217E+03  0.26263484582E+03 0.  0.
         25    1    3    3    0    0 -0.27379284275E+02 -0.11211407253E+03 -0.15822756470E+03  0.23238472582E+03  0.12509000000E+03 0.  0.
         25    1    4    4    0    0 -0.90307024970E+01  0.55458425350E+02 -0.80764261904E+02  0.15914636229E+03  0.12509000000E+03 0.  0.
         25    1    4    4    0    0  0.36409986772E+02  0.56655647180E+02 -0.17300952866E+03  0.22386458988E+03  0.12509000000E+03 0.  0.
<mgrwt>
<rscale>  2 0.45712878E+03</rscale>
<asrwt>0</asrwt>
<pdfrwt beam="1">  1       21 0.14955465E-01 0.45712878E+03</pdfrwt>
<pdfrwt beam="2">  1       21 0.75543900E-01 0.45712878E+03</pdfrwt>
<totfact> 0.56779840E+04</totfact>
</mgrwt>
</event>
<event>
 7    0  0.4732500E-002  0.4539061E+03  0.7546771E-02  0.1026564E+00
         21   -1    0    0  502  501  0.00000000000E+00  0.00000000000E+00  0.51543382084E+02  0.51543382084E+02  0.00000000000E+00 0. -1.
         21   -1    0    0  501  502 -0.00000000000E+00 -0.00000000000E+00 -0.99930726835E+03  0.99930726835E+03  0.00000000000E+00 0. -1.
      99926    2    1    2    0    0  0.00000000000E+00  0.00000000000E+00 -0.94776388626E+03  0.10508506504E+04  0.45390605350E+03 0.  0.
      99925    2    3    3    0    0  0.56523924122E+02 -0.97439018213E+02 -0.59856681953E+03  0.66319691862E+03  0.26240922080E+03 0.  0.
         25    1    4    4    0    0  0.20402663178E+02 -0.87732283915E+02 -0.29831731062E+03  0.33578854689E+03  0.12509000000E+03 0.  0.
         25    1    4    4    0    0  0.36121260944E+02 -0.97067342983E+01 -0.30024950890E+03  0.32740837173E+03  0.12509000000E+03 0.  0.
         25    1    3    3    0    0 -0.56523924122E+02  0.97439018213E+02 -0.34919706674E+03  0.38765373181E+03  0.12509000000E+03 0.  0.
<mgrwt>
<rscale>  2 0.45390605E+03</rscale>
<asrwt>0</asrwt>
<pdfrwt beam="1">  1       21 0.75799093E-02 0.45390605E+03</pdfrwt>
<pdfrwt beam="2">  1       21 0.14695695E+00 0.45390605E+03</pdfrwt>
<totfact> 0.37565919E+04</totfact>
</mgrwt>
</event>
<event>
 7    0  0.4732500E-002  0.4448820E+03  0.7546771E-02  0.1029259E+00
         21   -1    0    0  502  501  0.00000000000E+00  0.00000000000E+00  0.17179814434E+03  0.17179814434E+03  0.00000000000E+00 0. -1.
         21   -1    0    0  501  502 -0.00000000000E+00 -0.00000000000E+00 -0.28801246465E+03  0.28801246465E+03  0.00000000000E+00 0. -1.
      99926    2    1    2    0    0 -0.14210854715E-13  0.00000000000E+00 -0.11621432030E+03  0.45981060899E+03  0.44488203818E+03 0.  0.
      99925    2    3    3    0    0 -0.78406723270E+02  0.39216160316E+02 -0.13082001812E+03  0.30636238973E+03  0.26278986894E+03 0.  0.
         25    1    4    4    0    0 -0.78154818712E+02  0.24343400524E+02 -0.54745393043E+02  0.15920220789E+03  0.12509000000E+03 0.  0.
         25    1    4    4    0    0 -0.25190455781E+00  0.14872759792E+02 -0.76074625077E+02  0.14716018184E+03  0.12509000000E+03 0.  0.
         25    1    3    3    0    0  0.78406723270E+02 -0.39216160316E+02  0.14605697816E+02  0.15344821926E+03  0.12509000000E+03 0.  0.
<mgrwt>
<rscale>  2 0.44488204E+03</rscale>
<asrwt>0</asrwt>
<pdfrwt beam="1">  1       21 0.25264433E-01 0.44488204E+03</pdfrwt>
<pdfrwt beam="2">  1       21 0.42354774E-01 0.44488204E+03</pdfrwt>
<totfact> 0.73961414E+04</totfact>
</mgrwt>
</event>
<event>
 7    0  0.4732500E-002  0.4272051E+03  0.7546771E-02  0.1034746E+00
         21   -1    0    0  502  501  0.00000000000E+00  0.00000000000E+00  0.69216069620E+02  0.69216069620E+02  0.00000000000E+00 0. -1.
         21   -1    0    0  501  502 -0.00000000000E+00 -0.00000000000E+00 -0.65918299192E+03  0.65918299192E+03  0.00000000000E+00 0. -1.
      99926    2    1    2    0    0  0.00000000000E+00  0.00000000000E+00 -0.58996692230E+03  0.72839906153E+03  0.42720513040E+03 0.  0.
      99925    2    3    3    0    0 -0.33830972486E+02 -0.64746199992E+02 -0.30802892670E+03  0.41142406793E+03  0.26277621443E+03 0.  0.
         25    1    4    4    0    0 -0.41983349866E+02 -0.66016197188E+00 -0.14772162142E+03  0.19807125742E+03  0.12509000000E+03 0.  0.
         25    1    4    4    0    0  0.81523773808E+01 -0.64086038020E+02 -0.16030730528E+03  0.21335281051E+03  0.12509000000E+03 0.  0.
         25    1    3    3    0    0  0.33830972486E+02  0.64746199992E+02 -0.28193799559E+03  0.31697499361E+03  0.12509000000E+03 0.  0.
<mgrwt>
<rscale>  2 0.42720513E+03</rscale>
<asrwt>0</asrwt>
<pdfrwt beam="1">  1       21 0.10178833E-01 0.42720513E+03</pdfrwt>
<pdfrwt beam="2">  1       21 0.96938682E-01 0.42720513E+03</pdfrwt>
<totfact> 0.64339438E+04</totfact>
</mgrwt>
</event>
<event>
 7    0  0.4732500E-002  0.4212127E+03  0.7546771E-02  0.1036672E+00
         21   -1    0    0  502  501  0.00000000000E+00  0.00000000000E+00  0.11631986474E+03  0.11631986474E+03  0.00000000000E+00 0. -1.
         21   -1    0    0  501  502 -0.00000000000E+00 -0.00000000000E+00 -0.38131945246E+03  0.38131945246E+03  0.00000000000E+00 0. -1.
      99926    2    1    2    0    0 -0.44408920985E-15  0.39968028887E-14 -0.26499958772E+03  0.49763931719E+03  0.42121266425E+03 0.  0.
      99925    2    3    3    0    0 -0.31006866791E+01  0.74777575364E+00 -0.81295979378E+02  0.27536764278E+03  0.26307437922E+03 0.  0.
         25    1    4    4    0    0 -0.97671831280E+01 -0.38953019354E+02 -0.47296188387E+02  0.13963227821E+03  0.12509000000E+03 0.  0.
         25    1    3    3    0    0  0.31006866791E+01 -0.74777575364E+00 -0.18370360834E+03  0.22227167441E+03  0.12509000000E+03 0.  0.
         25    1    4    4    0    0  0.66664964489E+01  0.39700795108E+02 -0.33999790990E+02  0.13573536457E+03  0.12509000000E+03 0.  0.
<mgrwt>
<rscale>  2 0.42121266E+03</rscale>
<asrwt>0</asrwt>
<pdfrwt beam="1">  1       21 0.17105862E-01 0.42121266E+03</pdfrwt>
<pdfrwt beam="2">  1       21 0.56076390E-01 0.42121266E+03</pdfrwt>
<totfact> 0.86359788E+04</totfact>
</mgrwt>
</event>
<event>
 7    0  0.4732500E-002  0.4569158E+03  0.7546771E-02  0.1025680E+00
         21   -1    0    0  502  501  0.00000000000E+00  0.00000000000E+00  0.20599302439E+04  0.20599302439E+04  0.00000000000E+00 0.  1.
         21   -1    0    0  501  502 -0.00000000000E+00 -0.00000000000E+00 -0.25337274174E+02  0.25337274174E+02  0.00000000000E+00 0.  1.
      99926    2    1    2    0    0 -0.71054273576E-14  0.00000000000E+00  0.20345929697E+04  0.20852675181E+04  0.45691582319E+03 0.  0.
      99925    2    3    3    0    0  0.62375088803E+02  0.85261586470E+02  0.10698545243E+04  0.11067339387E+04  0.26288993518E+03 0.  0.
         25    1    4    4    0    0  0.28906369383E+02  0.42517735888E+01  0.55677917316E+03  0.57140547034E+03  0.12509000000E+03 0.  0.
         25    1    4    4    0    0  0.33468719420E+02  0.81009812881E+02  0.51307535116E+03  0.53532846835E+03  0.12509000000E+03 0.  0.
         25    1    3    3    0    0 -0.62375088803E+02 -0.85261586470E+02  0.96473844541E+03  0.97853357939E+03  0.12509000000E+03 0.  0.
<mgrwt>
<rscale>  2 0.45691582E+03</rscale>
<asrwt>0</asrwt>
<pdfrwt beam="1">  1       21 0.30293080E+00 0.45691582E+03</pdfrwt>
<pdfrwt beam="2">  1       21 0.37260711E-02 0.45691582E+03</pdfrwt>
<totfact> 0.12185015E+04</totfact>
</mgrwt>
</event>
<event>
 7    0  0.4732500E-002  0.4585733E+03  0.7546771E-02  0.1025196E+00
         21   -1    0    0  502  501  0.00000000000E+00  0.00000000000E+00  0.36730007375E+03  0.36730007375E+03  0.00000000000E+00 0. -1.
         21   -1    0    0  501  502 -0.00000000000E+00 -0.00000000000E+00 -0.14313195326E+03  0.14313195326E+03  0.00000000000E+00 0. -1.
      99926    2    1    2    0    0 -0.71054273576E-14  0.29420910153E-14  0.22416812049E+03  0.51043202701E+03  0.45857333977E+03 0.  0.
      99925    2    3    3    0    0 -0.41035202175E+02  0.26794995181E+00  0.26199807814E+03  0.37345548372E+03  0.26294875121E+03 0.  0.
         25    1    4    4    0    0  0.24324878812E+01  0.32557504173E+02  0.11561514889E+03  0.17343667094E+03  0.12509000000E+03 0.  0.
         25    1    4    4    0    0 -0.43467690057E+02 -0.32289554221E+02  0.14638292925E+03  0.20001881278E+03  0.12509000000E+03 0.  0.
         25    1    3    3    0    0  0.41035202175E+02 -0.26794995181E+00 -0.37829957642E+02  0.13697654328E+03  0.12509000000E+03 0.  0.
<mgrwt>
<rscale>  2 0.45857334E+03</rscale>
<asrwt>0</asrwt>
<pdfrwt beam="1">  1       21 0.54014717E-01 0.45857334E+03</pdfrwt>
<pdfrwt beam="2">  1       21 0.21048817E-01 0.45857334E+03</pdfrwt>
<totfact> 0.62745370E+04</totfact>
</mgrwt>
</event>
<event>
 7    0  0.4732500E-002  0.4099856E+03  0.7546771E-02  0.1040376E+00
         21   -1    0    0  502  501  0.00000000000E+00  0.00000000000E+00  0.94290475845E+02  0.94290475845E+02  0.00000000000E+00 0.  1.
         21   -1    0    0  501  502 -0.00000000000E+00 -0.00000000000E+00 -0.44566577604E+03  0.44566577604E+03  0.00000000000E+00 0.  1.
      99926    2    1    2    0    0  0.00000000000E+00  0.17763568394E-14 -0.35137530020E+03  0.53995625189E+03  0.40998555141E+03 0.  0.
      99925    2    3    3    0    0 -0.58380277924E+02  0.15926814619E+02 -0.21284427960E+03  0.34374138996E+03  0.26304664137E+03 0.  0.
         25    1    4    4    0    0 -0.27193139723E+02 -0.32200865427E+02 -0.96001867411E+02  0.16321834832E+03  0.12509000000E+03 0.  0.
         25    1    3    3    0    0  0.58380277924E+02 -0.15926814619E+02 -0.13853102059E+03  0.19621486193E+03  0.12509000000E+03 0.  0.
         25    1    4    4    0    0 -0.31187138201E+02  0.48127680046E+02 -0.11684241219E+03  0.18052304164E+03  0.12509000000E+03 0.  0.
<mgrwt>
<rscale>  2 0.40998555E+03</rscale>
<asrwt>0</asrwt>
<pdfrwt beam="1">  1       21 0.13866247E-01 0.40998555E+03</pdfrwt>
<pdfrwt beam="2">  1       21 0.65539083E-01 0.40998555E+03</pdfrwt>
<totfact> 0.90815754E+04</totfact>
</mgrwt>
</event>
<event>
 7    0  0.4732500E-002  0.4542225E+03  0.7546771E-02  0.1026470E+00
         21   -1    0    0  502  501  0.00000000000E+00  0.00000000000E+00  0.15123452246E+03  0.15123452246E+03  0.00000000000E+00 0.  1.
         21   -1    0    0  501  502 -0.00000000000E+00 -0.00000000000E+00 -0.34105654795E+03  0.34105654795E+03  0.00000000000E+00 0.  1.
      99926    2    1    2    0    0  0.00000000000E+00  0.88817841970E-15 -0.18982202549E+03  0.49229107041E+03  0.45422251887E+03 0.  0.
      99925    2    3    3    0    0 -0.10941372929E+03 -0.11175208825E+01 -0.14716918627E+03  0.32071197552E+03  0.26310604107E+03 0.  0.
         25    1    3    3    0    0  0.10941372929E+03  0.11175208825E+01 -0.42652839221E+02  0.17157909489E+03  0.12509000000E+03 0.  0.
         25    1    4    4    0    0 -0.61802920547E+02 -0.39087473458E+02 -0.88007857753E+02  0.16952971036E+03  0.12509000000E+03 0.  0.
         25    1    4    4    0    0 -0.47610808738E+02  0.37969952576E+02 -0.59161328519E+02  0.15118226516E+03  0.12509000000E+03 0.  0.
<mgrwt>
<rscale>  2 0.45422252E+03</rscale>
<asrwt>0</asrwt>
<pdfrwt beam="1">  1       21 0.22240371E-01 0.45422252E+03</pdfrwt>
<pdfrwt beam="2">  1       21 0.50155375E-01 0.45422252E+03</pdfrwt>
<totfact> 0.66223495E+04</totfact>
</mgrwt>
</event>
<event>
 7    0  0.4732500E-002  0.4476454E+03  0.7546771E-02  0.1028427E+00
         21   -1    0    0  502  501  0.00000000000E+00  0.00000000000E+00  0.15132231116E+03  0.15132231116E+03  0.00000000000E+00 0.  1.
         21   -1    0    0  501  502 -0.00000000000E+00 -0.00000000000E+00 -0.33105894600E+03  0.33105894600E+03  0.00000000000E+00 0.  1.
      99926    2    1    2    0    0  0.00000000000E+00  0.00000000000E+00 -0.17973663484E+03  0.48238125716E+03  0.44764541699E+03 0.  0.
      99925    2    3    3    0    0  0.56076953242E+02 -0.20996795380E+02 -0.19441972423E+02  0.27042046597E+03  0.26299001506E+03 0.  0.
         25    1    3    3    0    0 -0.56076953242E+02  0.20996795380E+02 -0.16029466242E+03  0.21196079119E+03  0.12509000000E+03 0.  0.
         25    1    4    4    0    0 -0.67340501481E+01 -0.26752900322E+02 -0.23669213310E+02  0.13026436530E+03  0.12509000000E+03 0.  0.
         25    1    4    4    0    0  0.62811003390E+02  0.57561049425E+01  0.42272408869E+01  0.14015610068E+03  0.12509000000E+03 0.  0.
<mgrwt>
<rscale>  2 0.44764542E+03</rscale>
<asrwt>0</asrwt>
<pdfrwt beam="1">  1       21 0.22253281E-01 0.44764542E+03</pdfrwt>
<pdfrwt beam="2">  1       21 0.48685139E-01 0.44764542E+03</pdfrwt>
<totfact> 0.70557509E+04</totfact>
</mgrwt>
</event>
<event>
 7    0  0.4732500E-002  0.4599035E+03  0.7546771E-02  0.1024809E+00
         21   -1    0    0  502  501  0.00000000000E+00  0.00000000000E+00  0.30056201247E+03  0.30056201247E+03  0.00000000000E+00 0. -1.
         21   -1    0    0  501  502 -0.00000000000E+00 -0.00000000000E+00 -0.17592978091E+03  0.17592978091E+03  0.00000000000E+00 0. -1.
      99926    2    1    2    0    0  0.00000000000E+00  0.00000000000E+00  0.12463223156E+03  0.47649179337E+03  0.45990350728E+03 0.  0.
      99925    2    3    3    0    0  0.33910621236E+02 -0.85912728991E+02  0.15330610238E+03  0.31837593015E+03  0.26330504104E+03 0.  0.
         25    1    3    3    0    0 -0.33910621236E+02  0.85912728991E+02 -0.28673870819E+02  0.15811586322E+03  0.12509000000E+03 0.  0.
         25    1    4    4    0    0  0.29326751089E+02 -0.40892878217E+02  0.32524461179E+02  0.13869979990E+03  0.12509000000E+03 0.  0.
         25    1    4    4    0    0  0.45838701474E+01 -0.45019850774E+02  0.12078164120E+03  0.17967613025E+03  0.12509000000E+03 0.  0.
<mgrwt>
<rscale>  2 0.45990351E+03</rscale>
<asrwt>0</asrwt>
<pdfrwt beam="1">  1       21 0.44200296E-01 0.45990351E+03</pdfrwt>
<pdfrwt beam="2">  1       21 0.25872026E-01 0.45990351E+03</pdfrwt>
<totfact> 0.64413335E+04</totfact>
</mgrwt>
</event>
<event>
 7    0  0.4732500E-002  0.4486392E+03  0.7546771E-02  0.1028129E+00
         21   -1    0    0  502  501  0.00000000000E+00  0.00000000000E+00  0.54539077950E+03  0.54539077950E+03  0.00000000000E+00 0.  1.
         21   -1    0    0  501  502 -0.00000000000E+00 -0.00000000000E+00 -0.92262806576E+02  0.92262806576E+02  0.00000000000E+00 0.  1.
      99926    2    1    2    0    0  0.00000000000E+00  0.71054273576E-14  0.45312797292E+03  0.63765358608E+03  0.44863920469E+03 0.  0.
      99925    2    3    3    0    0 -0.51675995742E+02  0.47974430970E+02  0.40139272277E+03  0.48502331787E+03  0.26298202681E+03 0.  0.
         25    1    3    3    0    0  0.51675995742E+02 -0.47974430970E+02  0.51735250152E+02  0.15263026820E+03  0.12509000000E+03 0.  0.
         25    1    4    4    0    0 -0.25299276351E+02  0.50621370861E+02  0.15244851023E+03  0.20516001789E+03  0.12509000000E+03 0.  0.
         25    1    4    4    0    0 -0.26376719391E+02 -0.26469398913E+01  0.24894421255E+03  0.27986329998E+03  0.12509000000E+03 0.  0.
<mgrwt>
<rscale>  2 0.44863920E+03</rscale>
<asrwt>0</asrwt>
<pdfrwt beam="1">  1       21 0.80204525E-01 0.44863920E+03</pdfrwt>
<pdfrwt beam="2">  1       21 0.13568060E-01 0.44863920E+03</pdfrwt>
<totfact> 0.59341614E+04</totfact>
</mgrwt>
</event>
<event>
 7    0  0.4732500E-002  0.4343430E+03  0.7546771E-02  0.1032497E+00
         21   -1    0    0  502  501  0.00000000000E+00  0.00000000000E+00  0.93939767456E+03  0.93939767456E+03  0.00000000000E+00 0. -1.
         21   -1    0    0  501  502 -0.00000000000E+00 -0.00000000000E+00 -0.50206076202E+02  0.50206076202E+02  0.00000000000E+00 0. -1.
      99926    2    1    2    0    0  0.00000000000E+00  0.00000000000E+00  0.88919159836E+03  0.98960375076E+03  0.43434304982E+03 0.  0.
      99925    2    3    3    0    0  0.26453303821E+02 -0.12559043816E+02  0.77069198098E+03  0.81482625140E+03  0.26290337304E+03 0.  0.
         25    1    4    4    0    0  0.39705989665E+02 -0.29530042628E+02  0.45821830617E+03  0.47755639797E+03  0.12509000000E+03 0.  0.
         25    1    3    3    0    0 -0.26453303821E+02  0.12559043816E+02  0.11849961738E+03  0.17477749936E+03  0.12509000000E+03 0.  0.
         25    1    4    4    0    0 -0.13252685843E+02  0.16970998812E+02  0.31247367481E+03  0.33726985343E+03  0.12509000000E+03 0.  0.
<mgrwt>
<rscale>  2 0.43434305E+03</rscale>
<asrwt>0</asrwt>
<pdfrwt beam="1">  1       21 0.13814671E+00 0.43434305E+03</pdfrwt>
<pdfrwt beam="2">  1       21 0.73832471E-02 0.43434305E+03</pdfrwt>
<totfact> 0.46659435E+04</totfact>
</mgrwt>
</event>
<event>
 7    0  0.4732500E-002  0.4575375E+03  0.7546771E-02  0.1025498E+00
         21   -1    0    0  502  501  0.00000000000E+00  0.00000000000E+00  0.91813456840E+02  0.91813456840E+02  0.00000000000E+00 0.  1.
         21   -1    0    0  501  502 -0.00000000000E+00 -0.00000000000E+00 -0.57001603840E+03  0.57001603840E+03  0.00000000000E+00 0.  1.
      99926    2    1    2    0    0  0.00000000000E+00  0.35527136788E-14 -0.47820258156E+03  0.66182949524E+03  0.45753750858E+03 0.  0.
      99925    2    3    3    0    0  0.97986857058E+02 -0.19195539191E+02 -0.38423069271E+03  0.47622745625E+03  0.26303891725E+03 0.  0.
         25    1    4    4    0    0  0.71399558924E+02  0.19332443341E+02 -0.23150913939E+03  0.27334159965E+03  0.12509000000E+03 0.  0.
         25    1    3    3    0    0 -0.97986857058E+02  0.19195539191E+02 -0.93971888848E+02  0.18560203898E+03  0.12509000000E+03 0.  0.
         25    1    4    4    0    0  0.26587298134E+02 -0.38527982532E+02 -0.15272155332E+03  0.20288585660E+03  0.12509000000E+03 0.  0.
<mgrwt>
<rscale>  2 0.45753751E+03</rscale>
<asrwt>0</asrwt>
<pdfrwt beam="1">  1       21 0.13501979E-01 0.45753751E+03</pdfrwt>
<pdfrwt beam="2">  1       21 0.83825888E-01 0.45753751E+03</pdfrwt>
<totfact> 0.53937117E+04</totfact>
</mgrwt>
</event>
<event>
 7    0  0.4732500E-002  0.4545336E+03  0.7546771E-02  0.1026379E+00
         21   -1    0    0  502  501  0.00000000000E+00  0.00000000000E+00  0.24299427912E+02  0.24299427912E+02  0.00000000000E+00 0.  1.
         21   -1    0    0  501  502 -0.00000000000E+00 -0.00000000000E+00 -0.21255729366E+04  0.21255729366E+04  0.00000000000E+00 0.  1.
      99926    2    1    2    0    0  0.00000000000E+00 -0.35527136788E-14 -0.21012735087E+04  0.21498723646E+04  0.45453363504E+03 0.  0.
      99925    2    3    3    0    0  0.61386369044E+02  0.16463178474E+02 -0.87982747861E+03  0.92039392426E+03  0.26265806888E+03 0.  0.
         25    1    4    4    0    0  0.29069607278E+02 -0.20815120057E+02 -0.52672334063E+03  0.54255257529E+03  0.12509000000E+03 0.  0.
         25    1    4    4    0    0  0.32316761766E+02  0.37278298530E+02 -0.35310413798E+03  0.37784134897E+03  0.12509000000E+03 0.  0.
         25    1    3    3    0    0 -0.61386369044E+02 -0.16463178474E+02 -0.12214460301E+04  0.12294784403E+04  0.12509000000E+03 0.  0.
<mgrwt>
<rscale>  2 0.45453364E+03</rscale>
<asrwt>0</asrwt>
<pdfrwt beam="1">  1       21 0.35734444E-02 0.45453364E+03</pdfrwt>
<pdfrwt beam="2">  1       21 0.31258433E+00 0.45453364E+03</pdfrwt>
<totfact> 0.11455002E+04</totfact>
</mgrwt>
</event>
<event>
 7    0  0.4732500E-002  0.4543083E+03  0.7546771E-02  0.1026445E+00
         21   -1    0    0  502  501  0.00000000000E+00  0.00000000000E+00  0.31198308821E+03  0.31198308821E+03  0.00000000000E+00 0.  1.
         21   -1    0    0  501  502 -0.00000000000E+00 -0.00000000000E+00 -0.16539042636E+03  0.16539042636E+03  0.00000000000E+00 0.  1.
      99926    2    1    2    0    0  0.00000000000E+00  0.00000000000E+00  0.14659266185E+03  0.47737351458E+03  0.45430833572E+03 0.  0.
      99925    2    3    3    0    0 -0.49695607301E+02  0.22590925128E+02  0.19575274658E+03  0.33230723554E+03  0.26292386296E+03 0.  0.
         25    1    4    4    0    0 -0.52838560727E+02  0.18959544509E+02  0.66547077531E+02  0.15240537870E+03  0.12509000000E+03 0.  0.
         25    1    3    3    0    0  0.49695607301E+02 -0.22590925128E+02 -0.49160084726E+02  0.14506627904E+03  0.12509000000E+03 0.  0.
         25    1    4    4    0    0  0.31429534256E+01  0.36313806197E+01  0.12920566905E+03  0.17990185684E+03  0.12509000000E+03 0.  0.
<mgrwt>
<rscale>  2 0.45430834E+03</rscale>
<asrwt>0</asrwt>
<pdfrwt beam="1">  1       21 0.45879866E-01 0.45430834E+03</pdfrwt>
<pdfrwt beam="2">  1       21 0.24322122E-01 0.45430834E+03</pdfrwt>
<totfact> 0.67260260E+04</totfact>
</mgrwt>
</event>
<event>
 7    0  0.4732500E-002  0.4093545E+03  0.7546771E-02  0.1040588E+00
         21   -1    0    0  502  501  0.00000000000E+00  0.00000000000E+00  0.20280248697E+03  0.20280248697E+03  0.00000000000E+00 0.  1.
         21   -1    0    0  501  502 -0.00000000000E+00 -0.00000000000E+00 -0.20656931382E+03  0.20656931382E+03  0.00000000000E+00 0.  1.
      99926    2    1    2    0    0  0.00000000000E+00  0.00000000000E+00 -0.37668268493E+01  0.40937180078E+03  0.40935447022E+03 0.  0.
      99925    2    3    3    0    0  0.16303974863E+02 -0.52113039221E+02  0.25270303314E+02  0.26982879135E+03  0.26303497858E+03 0.  0.
         25    1    3    3    0    0 -0.16303974863E+02  0.52113039221E+02 -0.29037130163E+02  0.13954300943E+03  0.12509000000E+03 0.  0.
         25    1    4    4    0    0 -0.52681455441E+01 -0.36583938493E+02  0.49790561050E+02  0.13961642447E+03  0.12509000000E+03 0.  0.
         25    1    4    4    0    0  0.21572120407E+02 -0.15529100728E+02 -0.24520257736E+02  0.13021236688E+03  0.12509000000E+03 0.  0.
<mgrwt>
<rscale>  2 0.40935447E+03</rscale>
<asrwt>0</asrwt>
<pdfrwt beam="1">  1       21 0.29823895E-01 0.40935447E+03</pdfrwt>
<pdfrwt beam="2">  1       21 0.30377840E-01 0.40935447E+03</pdfrwt>
<totfact> 0.10553720E+05</totfact>
</mgrwt>
</event>
<event>
 7    0  0.4732500E-002  0.4320583E+03  0.7546771E-02  0.1033212E+00
         21   -1    0    0  502  501  0.00000000000E+00  0.00000000000E+00  0.39251526745E+03  0.39251526745E+03  0.00000000000E+00 0. -1.
         21   -1    0    0  501  502 -0.00000000000E+00 -0.00000000000E+00 -0.11889627180E+03  0.11889627180E+03  0.00000000000E+00 0. -1.
      99926    2    1    2    0    0  0.00000000000E+00 -0.71054273576E-14  0.27361899566E+03  0.51141153925E+03  0.43205833830E+03 0.  0.
      99925    2    3    3    0    0 -0.15047989539E+02  0.33175909844E+02  0.27348929272E+03  0.38112490177E+03  0.26293100718E+03 0.  0.
         25    1    4    4    0    0 -0.14508149399E+02 -0.23165361057E+02  0.13955940044E+03  0.18939761008E+03  0.12509000000E+03 0.  0.
         25    1    4    4    0    0 -0.53984013941E+00  0.56341270901E+02  0.13392989227E+03  0.19172729169E+03  0.12509000000E+03 0.  0.
         25    1    3    3    0    0  0.15047989539E+02 -0.33175909844E+02  0.12970294072E+00  0.13028663748E+03  0.12509000000E+03 0.  0.
<mgrwt>
<rscale>  2 0.43205834E+03</rscale>
<asrwt>0</asrwt>
<pdfrwt beam="1">  1       21 0.57722833E-01 0.43205834E+03</pdfrwt>
<pdfrwt beam="2">  1       21 0.17484746E-01 0.43205834E+03</pdfrwt>
<totfact> 0.77669411E+04</totfact>
</mgrwt>
</event>
<event>
 7    0  0.4732500E-002  0.4500872E+03  0.7546771E-02  0.1027696E+00
         21   -1    0    0  502  501  0.00000000000E+00  0.00000000000E+00  0.11148229144E+03  0.11148229144E+03  0.00000000000E+00 0.  1.
         21   -1    0    0  501  502 -0.00000000000E+00 -0.00000000000E+00 -0.45428390878E+03  0.45428390878E+03  0.00000000000E+00 0.  1.
      99926    2    1    2    0    0 -0.35527136788E-14  0.00000000000E+00 -0.34280161734E+03  0.56576620022E+03  0.45008715207E+03 0.  0.
      99925    2    3    3    0    0 -0.31997133028E+02 -0.94900448947E+02 -0.26919311805E+03  0.38942666693E+03  0.26297962350E+03 0.  0.
         25    1    4    4    0    0 -0.14385665698E+02 -0.13227724776E+02 -0.89321033473E+02  0.15494410347E+03  0.12509000000E+03 0.  0.
         25    1    4    4    0    0 -0.17611467330E+02 -0.81672724171E+02 -0.17987208457E+03  0.23448256345E+03  0.12509000000E+03 0.  0.
         25    1    3    3    0    0  0.31997133028E+02  0.94900448947E+02 -0.73608499296E+02  0.17633953329E+03  0.12509000000E+03 0.  0.
<mgrwt>
<rscale>  2 0.45008715E+03</rscale>
<asrwt>0</asrwt>
<pdfrwt beam="1">  1       21 0.16394455E-01 0.45008715E+03</pdfrwt>
<pdfrwt beam="2">  1       21 0.66806456E-01 0.45008715E+03</pdfrwt>
<totfact> 0.63258785E+04</totfact>
</mgrwt>
</event>
<event>
 7    0  0.4732500E-002  0.4566233E+03  0.7546771E-02  0.1025765E+00
         21   -1    0    0  502  501  0.00000000000E+00  0.00000000000E+00  0.80927125051E+03  0.80927125051E+03  0.00000000000E+00 0.  1.
         21   -1    0    0  501  502 -0.00000000000E+00 -0.00000000000E+00 -0.64411291506E+02  0.64411291506E+02  0.00000000000E+00 0.  1.
      99926    2    1    2    0    0  0.00000000000E+00  0.00000000000E+00  0.74485995900E+03  0.87368254201E+03  0.45662328641E+03 0.  0.
      99925    2    3    3    0    0  0.18063119295E+02  0.44744227953E+02  0.26932652221E+03  0.37960979452E+03  0.26313209290E+03 0.  0.
         25    1    4    4    0    0  0.25163463652E+02  0.45485823685E+02  0.97267105736E+02  0.16676497839E+03  0.12509000000E+03 0.  0.
         25    1    4    4    0    0 -0.71003443566E+01 -0.74159573214E+00  0.17205941648E+03  0.21284481613E+03  0.12509000000E+03 0.  0.
         25    1    3    3    0    0 -0.18063119295E+02 -0.44744227953E+02  0.47553343679E+03  0.49407274750E+03  0.12509000000E+03 0.  0.
<mgrwt>
<rscale>  2 0.45662329E+03</rscale>
<asrwt>0</asrwt>
<pdfrwt beam="1">  1       21 0.11901047E+00 0.45662329E+03</pdfrwt>
<pdfrwt beam="2">  1       21 0.94722492E-02 0.45662329E+03</pdfrwt>
<totfact> 0.43831186E+04</totfact>
</mgrwt>
</event>
<event>
 7    0  0.4732500E-002  0.4523182E+03  0.7546771E-02  0.1027033E+00
         21   -1    0    0  502  501  0.00000000000E+00  0.00000000000E+00  0.11100830847E+03  0.11100830847E+03  0.00000000000E+00 0.  1.
         21   -1    0    0  501  502 -0.00000000000E+00 -0.00000000000E+00 -0.46075779503E+03  0.46075779503E+03  0.00000000000E+00 0.  1.
      99926    2    1    2    0    0  0.00000000000E+00  0.00000000000E+00 -0.34974948655E+03  0.57176610350E+03  0.45231822179E+03 0.  0.
      99925    2    3    3    0    0  0.10092513246E+02  0.92533309159E+02 -0.14484772727E+03  0.31428501451E+03  0.26292571979E+03 0.  0.
         25    1    3    3    0    0 -0.10092513246E+02 -0.92533309159E+02 -0.20490175928E+03  0.25748108898E+03  0.12509000000E+03 0.  0.
         25    1    4    4    0    0  0.32286198101E+01  0.71432535590E+02 -0.11353207247E+03  0.18343955600E+03  0.12509000000E+03 0.  0.
         25    1    4    4    0    0  0.68638934358E+01  0.21100773569E+02 -0.31315654803E+02  0.13084545852E+03  0.12509000000E+03 0.  0.
<mgrwt>
<rscale>  2 0.45231822E+03</rscale>
<asrwt>0</asrwt>
<pdfrwt beam="1">  1       21 0.16324752E-01 0.45231822E+03</pdfrwt>
<pdfrwt beam="2">  1       21 0.67758498E-01 0.45231822E+03</pdfrwt>
<totfact> 0.61749767E+04</totfact>
</mgrwt>
</event>
<event>
 7    0  0.4732500E-002  0.4567313E+03  0.7546771E-02  0.1025733E+00
         21   -1    0    0  502  501  0.00000000000E+00  0.00000000000E+00  0.41634802058E+02  0.41634802058E+02  0.00000000000E+00 0. -1.
         21   -1    0    0  501  502 -0.00000000000E+00 -0.00000000000E+00 -0.12525790161E+04  0.12525790161E+04  0.00000000000E+00 0. -1.
      99926    2    1    2    0    0  0.71054273576E-14  0.14210854715E-13 -0.12109442140E+04  0.12942138181E+04  0.45673134071E+03 0.  0.
      99925    2    3    3    0    0 -0.48201542482E+02 -0.95368735423E+02 -0.64231619814E+03  0.70226456952E+03  0.26303391952E+03 0.  0.
         25    1    4    4    0    0 -0.43024076844E+02 -0.83827378566E+02 -0.31916147179E+03  0.35551322586E+03  0.12509000000E+03 0.  0.
         25    1    4    4    0    0 -0.51774656378E+01 -0.11541356857E+02 -0.32315472635E+03  0.34675134366E+03  0.12509000000E+03 0.  0.
         25    1    3    3    0    0  0.48201542482E+02  0.95368735423E+02 -0.56862801588E+03  0.59194924862E+03  0.12509000000E+03 0.  0.
<mgrwt>
<rscale>  2 0.45673134E+03</rscale>
<asrwt>0</asrwt>
<pdfrwt beam="1">  1       21 0.61227645E-02 0.45673134E+03</pdfrwt>
<pdfrwt beam="2">  1       21 0.18420281E+00 0.45673134E+03</pdfrwt>
<totfact> 0.28892206E+04</totfact>
</mgrwt>
</event>
<event>
 7    0  0.4732500E-002  0.4496982E+03  0.7546771E-02  0.1027812E+00
         21   -1    0    0  502  501  0.00000000000E+00  0.00000000000E+00  0.35394600443E+03  0.35394600443E+03  0.00000000000E+00 0. -1.
         21   -1    0    0  501  502 -0.00000000000E+00 -0.00000000000E+00 -0.14283849880E+03  0.14283849880E+03  0.00000000000E+00 0. -1.
      99926    2    1    2    0    0  0.35527136788E-14  0.00000000000E+00  0.21110750563E+03  0.49678450323E+03  0.44969819181E+03 0.  0.
      99925    2    3    3    0    0 -0.20630134372E+02 -0.83820918410E+02  0.20543607912E+03  0.34469498359E+03  0.26298117860E+03 0.  0.
         25    1    4    4    0    0 -0.43878788403E+02 -0.41759924159E+02  0.13298709517E+03  0.19235985787E+03  0.12509000000E+03 0.  0.
         25    1    4    4    0    0  0.23248654031E+02 -0.42060994251E+02  0.72448983954E+02  0.15233512572E+03  0.12509000000E+03 0.  0.
         25    1    3    3    0    0  0.20630134372E+02  0.83820918410E+02  0.56714265074E+01  0.15208951965E+03  0.12509000000E+03 0.  0.
<mgrwt>
<rscale>  2 0.44969819E+03</rscale>
<asrwt>0</asrwt>
<pdfrwt beam="1">  1       21 0.52050883E-01 0.44969819E+03</pdfrwt>
<pdfrwt beam="2">  1       21 0.21005662E-01 0.44969819E+03</pdfrwt>
<totfact> 0.68327842E+04</totfact>
</mgrwt>
</event>
<event>
 7    0  0.4732500E-002  0.4566492E+03  0.7546771E-02  0.1025758E+00
         21   -1    0    0  502  501  0.00000000000E+00  0.00000000000E+00  0.71039780505E+03  0.71039780505E+03  0.00000000000E+00 0.  1.
         21   -1    0    0  501  502 -0.00000000000E+00 -0.00000000000E+00 -0.73384411455E+02  0.73384411455E+02  0.00000000000E+00 0.  1.
      99926    2    1    2    0    0 -0.35527136788E-14  0.00000000000E+00  0.63701339360E+03  0.78378221651E+03  0.45664920814E+03 0.  0.
      99925    2    3    3    0    0 -0.11488463191E+02 -0.57492221789E+02  0.56968390705E+03  0.63010037564E+03  0.26277250442E+03 0.  0.
         25    1    4    4    0    0 -0.35116560401E+02 -0.41624154441E+02  0.35074857412E+03  0.37634799508E+03  0.12509000000E+03 0.  0.
         25    1    4    4    0    0  0.23628097210E+02 -0.15868067349E+02  0.21893533293E+03  0.25375238057E+03  0.12509000000E+03 0.  0.
         25    1    3    3    0    0  0.11488463191E+02  0.57492221789E+02  0.67329486543E+02  0.15368184086E+03  0.12509000000E+03 0.  0.
<mgrwt>
<rscale>  2 0.45664921E+03</rscale>
<asrwt>0</asrwt>
<pdfrwt beam="1">  1       21 0.10447026E+00 0.45664921E+03</pdfrwt>
<pdfrwt beam="2">  1       21 0.10791826E-01 0.45664921E+03</pdfrwt>
<totfact> 0.47935767E+04</totfact>
</mgrwt>
</event>
<event>
 7    0  0.4732500E-002  0.4578701E+03  0.7546771E-02  0.1025401E+00
         21   -1    0    0  502  501  0.00000000000E+00  0.00000000000E+00  0.38546463137E+03  0.38546463137E+03  0.00000000000E+00 0.  1.
         21   -1    0    0  501  502 -0.00000000000E+00 -0.00000000000E+00 -0.13596903102E+03  0.13596903102E+03  0.00000000000E+00 0.  1.
      99926    2    1    2    0    0  0.00000000000E+00  0.00000000000E+00  0.24949560034E+03  0.52143366239E+03  0.45787007948E+03 0.  0.
      99925    2    3    3    0    0  0.58512701084E+02 -0.65742375094E+02  0.24255028676E+03  0.36832735438E+03  0.26284710824E+03 0.  0.
         25    1    4    4    0    0  0.20453828510E+02 -0.28625094096E+02  0.17086836761E+03  0.21466546593E+03  0.12509000000E+03 0.  0.
         25    1    4    4    0    0  0.38058872574E+02 -0.37117280999E+02  0.71681919144E+02  0.15366188845E+03  0.12509000000E+03 0.  0.
         25    1    3    3    0    0 -0.58512701084E+02  0.65742375094E+02  0.69453135875E+01  0.15310630801E+03  0.12509000000E+03 0.  0.
<mgrwt>
<rscale>  2 0.45787008E+03</rscale>
<asrwt>0</asrwt>
<pdfrwt beam="1">  1       21 0.56685975E-01 0.45787008E+03</pdfrwt>
<pdfrwt beam="2">  1       21 0.19995446E-01 0.45787008E+03</pdfrwt>
<totfact> 0.62357613E+04</totfact>
</mgrwt>
</event>
<event>
 7    0  0.4732500E-002  0.4549901E+03  0.7546771E-02  0.1026244E+00
         21   -1    0    0  502  501  0.00000000000E+00  0.00000000000E+00  0.67003794914E+03  0.67003794914E+03  0.00000000000E+00 0.  1.
         21   -1    0    0  501  502 -0.00000000000E+00 -0.00000000000E+00 -0.77240411036E+02  0.77240411036E+02  0.00000000000E+00 0.  1.
      99926    2    1    2    0    0  0.00000000000E+00  0.00000000000E+00  0.59279753810E+03  0.74727836018E+03  0.45499013880E+03 0.  0.
      99925    2    3    3    0    0  0.28837981282E+02  0.10863319074E+03  0.35153211075E+03  0.45318770437E+03  0.26300469808E+03 0.  0.
         25    1    3    3    0    0 -0.28837981282E+02 -0.10863319074E+03  0.24126542736E+03  0.29409065581E+03  0.12509000000E+03 0.  0.
         25    1    4    4    0    0  0.47499850766E+01  0.89902336652E+02  0.22452246248E+03  0.27232854561E+03  0.12509000000E+03 0.  0.
         25    1    4    4    0    0  0.24087996206E+02  0.18730854088E+02  0.12700964827E+03  0.18085915876E+03  0.12509000000E+03 0.  0.
<mgrwt>
<rscale>  2 0.45499014E+03</rscale>
<asrwt>0</asrwt>
<pdfrwt beam="1">  1       21 0.98534989E-01 0.45499014E+03</pdfrwt>
<pdfrwt beam="2">  1       21 0.11358884E-01 0.45499014E+03</pdfrwt>
<totfact> 0.50413979E+04</totfact>
</mgrwt>
</event>
<event>
 7    0  0.4732500E-002  0.4514167E+03  0.7546771E-02  0.1027300E+00
         21   -1    0    0  502  501  0.00000000000E+00  0.00000000000E+00  0.26488732020E+04  0.26488732020E+04  0.00000000000E+00 0.  1.
         21   -1    0    0  501  502 -0.00000000000E+00 -0.00000000000E+00 -0.19232425991E+02  0.19232425991E+02  0.00000000000E+00 0.  1.
      99926    2    1    2    0    0 -0.35527136788E-14  0.00000000000E+00  0.26296407760E+04  0.26681056280E+04  0.45141669361E+03 0.  0.
      99925    2    3    3    0    0  0.24377006470E+02 -0.82582691100E+02  0.12733371301E+04  0.13033268081E+04  0.26430887691E+03 0.  0.
         25    1    4    4    0    0  0.34481067954E+02 -0.13655848509E+02  0.49357964394E+03  0.51053285815E+03  0.12509000000E+03 0.  0.
         25    1    4    4    0    0 -0.10104061484E+02 -0.68926842590E+02  0.77975748620E+03  0.79279394995E+03  0.12509000000E+03 0.  0.
         25    1    3    3    0    0 -0.24377006470E+02  0.82582691100E+02  0.13563036459E+04  0.13647788199E+04  0.12509000000E+03 0.  0.
<mgrwt>
<rscale>  2 0.45141669E+03</rscale>
<asrwt>0</asrwt>
<pdfrwt beam="1">  1       21 0.38953993E+00 0.45141669E+03</pdfrwt>
<pdfrwt beam="2">  1       21 0.28282998E-02 0.45141669E+03</pdfrwt>
<totfact> 0.57179519E+03</totfact>
</mgrwt>
</event>
<event>
 7    0  0.4732500E-002  0.4524085E+03  0.7546771E-02  0.1027006E+00
         21   -1    0    0  502  501  0.00000000000E+00  0.00000000000E+00  0.28047043050E+04  0.28047043050E+04  0.00000000000E+00 0.  1.
         21   -1    0    0  501  502 -0.00000000000E+00 -0.00000000000E+00 -0.18243766297E+02  0.18243766297E+02  0.00000000000E+00 0.  1.
      99926    2    1    2    0    0  0.00000000000E+00  0.00000000000E+00  0.27864605387E+04  0.28229480713E+04  0.45240853163E+03 0.  0.
      99925    2    3    3    0    0 -0.78948903375E+02  0.76094533689E+02  0.16540867790E+04  0.16784214674E+04  0.26281598536E+03 0.  0.
         25    1    4    4    0    0 -0.21200197912E+02  0.54620558711E+02  0.10108669521E+04  0.10202609259E+04  0.12509000000E+03 0.  0.
         25    1    4    4    0    0 -0.57748705464E+02  0.21473974977E+02  0.64321982689E+03  0.65816054150E+03  0.12509000000E+03 0.  0.
         25    1    3    3    0    0  0.78948903375E+02 -0.76094533689E+02  0.11323737597E+04  0.11445266040E+04  0.12509000000E+03 0.  0.
<mgrwt>
<rscale>  2 0.45240853E+03</rscale>
<asrwt>0</asrwt>
<pdfrwt beam="1">  1       21 0.41245622E+00 0.45240853E+03</pdfrwt>
<pdfrwt beam="2">  1       21 0.26829088E-02 0.45240853E+03</pdfrwt>
<totfact> 0.44489747E+03</totfact>
</mgrwt>
</event>
<event>
 7    0  0.4732500E-002  0.4541784E+03  0.7546771E-02  0.1026483E+00
         21   -1    0    0  502  501  0.00000000000E+00  0.00000000000E+00  0.30446086328E+03  0.30446086328E+03  0.00000000000E+00 0.  1.
         21   -1    0    0  501  502 -0.00000000000E+00 -0.00000000000E+00 -0.16937974758E+03  0.16937974758E+03  0.00000000000E+00 0.  1.
      99926    2    1    2    0    0  0.00000000000E+00  0.00000000000E+00  0.13508111570E+03  0.47384061087E+03  0.45417839742E+03 0.  0.
      99925    2    3    3    0    0  0.17470620813E+02  0.51623985813E+02 -0.17503286807E+02  0.26914628635E+03  0.26298878285E+03 0.  0.
         25    1    3    3    0    0 -0.17470620813E+02 -0.51623985813E+02  0.15258440250E+03  0.20469432452E+03  0.12509000000E+03 0.  0.
         25    1    4    4    0    0 -0.20511333485E+02  0.53899482005E+02 -0.56230753978E+01  0.13785860887E+03  0.12509000000E+03 0.  0.
         25    1    4    4    0    0  0.37981954298E+02 -0.22754961916E+01 -0.11880211409E+02  0.13128767748E+03  0.12509000000E+03 0.  0.
<mgrwt>
<rscale>  2 0.45417840E+03</rscale>
<asrwt>0</asrwt>
<pdfrwt beam="1">  1       21 0.44773656E-01 0.45417840E+03</pdfrwt>
<pdfrwt beam="2">  1       21 0.24908786E-01 0.45417840E+03</pdfrwt>
<totfact> 0.67590889E+04</totfact>
</mgrwt>
</event>
<event>
 7    0  0.4732500E-002  0.4529094E+03  0.7546771E-02  0.1026858E+00
         21   -1    0    0  502  501  0.00000000000E+00  0.00000000000E+00  0.18124879247E+03  0.18124879247E+03  0.00000000000E+00 0. -1.
         21   -1    0    0  501  502 -0.00000000000E+00 -0.00000000000E+00 -0.28293560704E+03  0.28293560704E+03  0.00000000000E+00 0. -1.
      99926    2    1    2    0    0  0.00000000000E+00  0.00000000000E+00 -0.10168681457E+03  0.46418439951E+03  0.45290942636E+03 0.  0.
      99925    2    3    3    0    0 -0.65448646279E+02  0.89870330648E+02 -0.67282770519E+02  0.29332964254E+03  0.26297358490E+03 0.  0.
         25    1    3    3    0    0  0.65448646279E+02 -0.89870330648E+02 -0.34404044055E+02  0.17085475697E+03  0.12509000000E+03 0.  0.
         25    1    4    4    0    0 -0.29129707849E+02  0.47483235220E+02  0.77392044904E+01  0.13715174404E+03  0.12509000000E+03 0.  0.
         25    1    4    4    0    0 -0.36318938430E+02  0.42387095428E+02 -0.75021975010E+02  0.15617789851E+03  0.12509000000E+03 0.  0.
<mgrwt>
<rscale>  2 0.45290943E+03</rscale>
<asrwt>0</asrwt>
<pdfrwt beam="1">  1       21 0.26654234E-01 0.45290943E+03</pdfrwt>
<pdfrwt beam="2">  1       21 0.41608177E-01 0.45290943E+03</pdfrwt>
<totfact> 0.69008359E+04</totfact>
</mgrwt>
</event>
<event>
 7    0  0.4732500E-002  0.4293729E+03  0.7546771E-02  0.1034058E+00
         21   -1    0    0  502  501  0.00000000000E+00  0.00000000000E+00  0.18854670982E+03  0.18854670982E+03  0.00000000000E+00 0.  1.
         21   -1    0    0  501  502 -0.00000000000E+00 -0.00000000000E+00 -0.24445018773E+03  0.24445018773E+03  0.00000000000E+00 0.  1.
      99926    2    1    2    0    0 -0.71054273576E-14  0.00000000000E+00 -0.55903477908E+02  0.43299689755E+03  0.42937293167E+03 0.  0.
      99925    2    3    3    0    0  0.54049523057E+02  0.35093823308E+02 -0.94746252671E+02  0.28702019863E+03  0.26315549519E+03 0.  0.
         25    1    3    3    0    0 -0.54049523057E+02 -0.35093823308E+02  0.38842774763E+02  0.14597669892E+03  0.12509000000E+03 0.  0.
         25    1    4    4    0    0  0.64917029064E+02  0.63874461883E+01 -0.62144831111E+02  0.15415741392E+03  0.12509000000E+03 0.  0.
         25    1    4    4    0    0 -0.10867506006E+02  0.28706377120E+02 -0.32601421559E+02  0.13286278471E+03  0.12509000000E+03 0.  0.
<mgrwt>
<rscale>  2 0.42937293E+03</rscale>
<asrwt>0</asrwt>
<pdfrwt beam="1">  1       21 0.27727457E-01 0.42937293E+03</pdfrwt>
<pdfrwt beam="2">  1       21 0.35948557E-01 0.42937293E+03</pdfrwt>
<totfact> 0.86582494E+04</totfact>
</mgrwt>
</event>
<event>
 7    0  0.4732500E-002  0.4416696E+03  0.7546771E-02  0.1030236E+00
         21   -1    0    0  502  501  0.00000000000E+00  0.00000000000E+00  0.51821057258E+03  0.51821057258E+03  0.00000000000E+00 0. -1.
         21   -1    0    0  501  502 -0.00000000000E+00 -0.00000000000E+00 -0.94108464070E+02  0.94108464070E+02  0.00000000000E+00 0. -1.
      99926    2    1    2    0    0  0.00000000000E+00 -0.17763568394E-14  0.42410210851E+03  0.61231903665E+03  0.44166956449E+03 0.  0.
      99925    2    3    3    0    0 -0.78874550615E+02  0.11177012565E+02  0.18596257499E+03  0.33177658733E+03  0.26295913040E+03 0.  0.
         25    1    4    4    0    0 -0.27420465690E+02  0.44280851372E+02  0.93132758233E+02  0.16441987256E+03  0.12509000000E+03 0.  0.
         25    1    4    4    0    0 -0.51454084925E+02 -0.33103838807E+02  0.92829816752E+02  0.16735671477E+03  0.12509000000E+03 0.  0.
         25    1    3    3    0    0  0.78874550615E+02 -0.11177012565E+02  0.23813953352E+03  0.28054244932E+03  0.12509000000E+03 0.  0.
<mgrwt>
<rscale>  2 0.44166956E+03</rscale>
<asrwt>0</asrwt>
<pdfrwt beam="1">  1       21 0.76207436E-01 0.44166956E+03</pdfrwt>
<pdfrwt beam="2">  1       21 0.13839480E-01 0.44166956E+03</pdfrwt>
<totfact> 0.64448165E+04</totfact>
</mgrwt>
</event>
<event>
 7    0  0.4732500E-002  0.4542108E+03  0.7546771E-02  0.1026474E+00
         21   -1    0    0  502  501  0.00000000000E+00  0.00000000000E+00  0.14608533443E+03  0.14608533443E+03  0.00000000000E+00 0. -1.
         21   -1    0    0  501  502 -0.00000000000E+00 -0.00000000000E+00 -0.35305975859E+03  0.35305975859E+03  0.00000000000E+00 0. -1.
      99926    2    1    2    0    0  0.00000000000E+00  0.00000000000E+00 -0.20697442416E+03  0.49914509303E+03  0.45421075684E+03 0.  0.
      99925    2    3    3    0    0  0.43221666269E+02  0.86379456141E+02 -0.19303860254E+03  0.34049063169E+03  0.26332573995E+03 0.  0.
         25    1    3    3    0    0 -0.43221666269E+02 -0.86379456141E+02 -0.13935821627E+02  0.15865446134E+03  0.12509000000E+03 0.  0.
         25    1    4    4    0    0  0.42315539730E+02  0.35260323663E+02 -0.13902737238E+03  0.19496156980E+03  0.12509000000E+03 0.  0.
         25    1    4    4    0    0  0.90612653898E+00  0.51119132478E+02 -0.54011230153E+02  0.14552906189E+03  0.12509000000E+03 0.  0.
<mgrwt>
<rscale>  2 0.45421076E+03</rscale>
<asrwt>0</asrwt>
<pdfrwt beam="1">  1       21 0.21483138E-01 0.45421076E+03</pdfrwt>
<pdfrwt beam="2">  1       21 0.51920552E-01 0.45421076E+03</pdfrwt>
<totfact> 0.65741676E+04</totfact>
</mgrwt>
</event>
<event>
 7    0  0.4732500E-002  0.4515526E+03  0.7546771E-02  0.1027260E+00
         21   -1    0    0  502  501  0.00000000000E+00  0.00000000000E+00  0.22653373004E+03  0.22653373004E+03  0.00000000000E+00 0. -1.
         21   -1    0    0  501  502 -0.00000000000E+00 -0.00000000000E+00 -0.22502137583E+03  0.22502137583E+03  0.00000000000E+00 0. -1.
      99926    2    1    2    0    0  0.00000000000E+00  0.00000000000E+00  0.15123542146E+01  0.45155510587E+03  0.45155257326E+03 0.  0.
      99925    2    3    3    0    0  0.31766616648E+02 -0.98246668623E+02  0.39469003251E+02  0.28497257037E+03  0.26265954735E+03 0.  0.
         25    1    3    3    0    0 -0.31766616648E+02  0.98246668623E+02 -0.37956649037E+02  0.16658253550E+03  0.12509000000E+03 0.  0.
         25    1    4    4    0    0  0.93277015849E+01 -0.38679405985E+02 -0.19552325538E+02  0.13271361648E+03  0.12509000000E+03 0.  0.
         25    1    4    4    0    0  0.22438915063E+02 -0.59567262637E+02  0.59021328789E+02  0.15225895389E+03  0.12509000000E+03 0.  0.
<mgrwt>
<rscale>  2 0.45155257E+03</rscale>
<asrwt>0</asrwt>
<pdfrwt beam="1">  1       21 0.33313784E-01 0.45155257E+03</pdfrwt>
<pdfrwt beam="2">  1       21 0.33091379E-01 0.45155257E+03</pdfrwt>
<totfact> 0.70724378E+04</totfact>
</mgrwt>
</event>
<event>
 7    0  0.4732500E-002  0.4725126E+03  0.7546771E-02  0.1021213E+00
         21   -1    0    0  502  501  0.00000000000E+00  0.00000000000E+00  0.54041462845E+03  0.54041462845E+03  0.00000000000E+00 0.  1.
         21   -1    0    0  501  502 -0.00000000000E+00 -0.00000000000E+00 -0.10328558523E+03  0.10328558523E+03  0.00000000000E+00 0.  1.
      99926    2    1    2    0    0  0.00000000000E+00  0.00000000000E+00  0.43712904322E+03  0.64370021368E+03  0.47251260794E+03 0.  0.
      99925    2    3    3    0    0 -0.18290180467E+02  0.79756419908E+02  0.13534890923E+03  0.30692970638E+03  0.26304163208E+03 0.  0.
         25    1    3    3    0    0  0.18290180467E+02 -0.79756419908E+02  0.30178013399E+03  0.33677050730E+03  0.12509000000E+03 0.  0.
         25    1    4    4    0    0  0.22887059073E+02  0.61717141094E+02  0.84040545958E+02  0.16444799921E+03  0.12509000000E+03 0.  0.
         25    1    4    4    0    0 -0.41177239540E+02  0.18039278814E+02  0.51308363275E+02  0.14248170717E+03  0.12509000000E+03 0.  0.
<mgrwt>
<rscale>  2 0.47251261E+03</rscale>
<asrwt>0</asrwt>
<pdfrwt beam="1">  1       21 0.79472739E-01 0.47251261E+03</pdfrwt>
<pdfrwt beam="2">  1       21 0.15189057E-01 0.47251261E+03</pdfrwt>
<totfact> 0.48942835E+04</totfact>
</mgrwt>
</event>
<event>
 7    0  0.4732500E-002  0.4478899E+03  0.7546771E-02  0.1028353E+00
         21   -1    0    0  502  501  0.00000000000E+00  0.00000000000E+00  0.18037977319E+03  0.18037977319E+03  0.00000000000E+00 0.  1.
         21   -1    0    0  501  502 -0.00000000000E+00 -0.00000000000E+00 -0.27803200815E+03  0.27803200815E+03  0.00000000000E+00 0.  1.
      99926    2    1    2    0    0  0.71054273576E-14  0.00000000000E+00 -0.97652234963E+02  0.45841178135E+03  0.44788994439E+03 0.  0.
      99925    2    3    3    0    0  0.59545528496E+02 -0.79818576736E+02 -0.21034964969E+02  0.28111432136E+03  0.26204220417E+03 0.  0.
         25    1    3    3    0    0 -0.59545528496E+02  0.79818576736E+02 -0.76617269994E+02  0.17729745999E+03  0.12509000000E+03 0.  0.
         25    1    4    4    0    0  0.50608416261E+02 -0.68269306844E+02 -0.32415910680E+02  0.15466159646E+03  0.12509000000E+03 0.  0.
         25    1    4    4    0    0  0.89371122350E+01 -0.11549269891E+02  0.11380945710E+02  0.12645272490E+03  0.12509000000E+03 0.  0.
<mgrwt>
<rscale>  2 0.44788994E+03</rscale>
<asrwt>0</asrwt>
<pdfrwt beam="1">  1       21 0.26526438E-01 0.44788994E+03</pdfrwt>
<pdfrwt beam="2">  1       21 0.40887059E-01 0.44788994E+03</pdfrwt>
<totfact> 0.72300073E+04</totfact>
</mgrwt>
</event>
<event>
 7    0  0.4732500E-002  0.4386650E+03  0.7546771E-02  0.1031157E+00
         21   -1    0    0  502  501  0.00000000000E+00  0.00000000000E+00  0.72629613228E+03  0.72629613228E+03  0.00000000000E+00 0. -1.
         21   -1    0    0  501  502 -0.00000000000E+00 -0.00000000000E+00 -0.66235702766E+02  0.66235702766E+02  0.00000000000E+00 0. -1.
      99926    2    1    2    0    0  0.88817841970E-15  0.00000000000E+00  0.66006042951E+03  0.79253183504E+03  0.43866495068E+03 0.  0.
      99925    2    3    3    0    0  0.68825606382E+01 -0.49305005870E+02  0.57239252692E+03  0.63187218706E+03  0.26296559217E+03 0.  0.
         25    1    4    4    0    0  0.58403055342E+00 -0.58257927974E+02  0.35415050542E+03  0.38008474825E+03  0.12509000000E+03 0.  0.
         25    1    4    4    0    0  0.62985300847E+01  0.89529221039E+01  0.21824202150E+03  0.25178743881E+03  0.12509000000E+03 0.  0.
         25    1    3    3    0    0 -0.68825606382E+01  0.49305005870E+02  0.87667902594E+02  0.16065964798E+03  0.12509000000E+03 0.  0.
<mgrwt>
<rscale>  2 0.43866495E+03</rscale>
<asrwt>0</asrwt>
<pdfrwt beam="1">  1       21 0.10680825E+00 0.43866495E+03</pdfrwt>
<pdfrwt beam="2">  1       21 0.97405450E-02 0.43866495E+03</pdfrwt>
<totfact> 0.54826467E+04</totfact>
</mgrwt>
</event>
<event>
 7    0  0.4732500E-002  0.4558941E+03  0.7546771E-02  0.1025979E+00
         21   -1    0    0  502  501  0.00000000000E+00  0.00000000000E+00  0.36048704996E+03  0.36048704996E+03  0.00000000000E+00 0. -1.
         21   -1    0    0  501  502 -0.00000000000E+00 -0.00000000000E+00 -0.14413795051E+03  0.14413795051E+03  0.00000000000E+00 0. -1.
      99926    2    1    2    0    0  0.00000000000E+00  0.00000000000E+00  0.21634909945E+03  0.50462500048E+03  0.45589413055E+03 0.  0.
      99925    2    3    3    0    0 -0.69250187861E+02 -0.28400026710E+02  0.23148229040E+03  0.35806896476E+03  0.26273024706E+03 0.  0.
         25    1    4    4    0    0 -0.53465777269E+02  0.20305048124E+02  0.10617052251E+03  0.17375434460E+03  0.12509000000E+03 0.  0.
         25    1    3    3    0    0  0.69250187861E+02  0.28400026710E+02 -0.15133190952E+02  0.14655603571E+03  0.12509000000E+03 0.  0.
         25    1    4    4    0    0 -0.15784410592E+02 -0.48705074834E+02  0.12531176789E+03  0.18431462016E+03  0.12509000000E+03 0.  0.
<mgrwt>
<rscale>  2 0.45589413E+03</rscale>
<asrwt>0</asrwt>
<pdfrwt beam="1">  1       21 0.53012801E-01 0.45589413E+03</pdfrwt>
<pdfrwt beam="2">  1       21 0.21196757E-01 0.45589413E+03</pdfrwt>
<totfact> 0.64488053E+04</totfact>
</mgrwt>
</event>
<event>
 7    0  0.4732500E-002  0.4536646E+03  0.7546771E-02  0.1026635E+00
         21   -1    0    0  502  501  0.00000000000E+00  0.00000000000E+00  0.34475506316E+03  0.34475506316E+03  0.00000000000E+00 0. -1.
         21   -1    0    0  501  502 -0.00000000000E+00 -0.00000000000E+00 -0.14924475023E+03  0.14924475023E+03  0.00000000000E+00 0. -1.
      99926    2    1    2    0    0  0.00000000000E+00  0.00000000000E+00  0.19551031294E+03  0.49399981339E+03  0.45366456018E+03 0.  0.
      99925    2    3    3    0    0  0.72318990561E+02 -0.61410816222E+02  0.58612546378E+02  0.28569755384E+03  0.26303295788E+03 0.  0.
         25    1    4    4    0    0  0.45236650939E+02 -0.32535393426E+02  0.70378482081E+02  0.15396605228E+03  0.12509000000E+03 0.  0.
         25    1    4    4    0    0  0.27082339623E+02 -0.28875422795E+02 -0.11765935703E+02  0.13173150156E+03  0.12509000000E+03 0.  0.
         25    1    3    3    0    0 -0.72318990561E+02  0.61410816222E+02  0.13689776656E+03  0.20830225955E+03  0.12509000000E+03 0.  0.
<mgrwt>
<rscale>  2 0.45366456E+03</rscale>
<asrwt>0</asrwt>
<pdfrwt beam="1">  1       21 0.50699274E-01 0.45366456E+03</pdfrwt>
<pdfrwt beam="2">  1       21 0.21947757E-01 0.45366456E+03</pdfrwt>
<totfact> 0.66395377E+04</totfact>
</mgrwt>
</event>
<event>
 7    0  0.4732500E-002  0.4586781E+03  0.7546771E-02  0.1025165E+00
         21   -1    0    0  502  501  0.00000000000E+00  0.00000000000E+00  0.30234699645E+03  0.30234699645E+03  0.00000000000E+00 0. -1.
         21   -1    0    0  501  502 -0.00000000000E+00 -0.00000000000E+00 -0.17396039011E+03  0.17396039011E+03  0.00000000000E+00 0. -1.
      99926    2    1    2    0    0  0.00000000000E+00  0.00000000000E+00  0.12838660633E+03  0.47630738656E+03  0.45867810696E+03 0.  0.
      99925    2    3    3    0    0 -0.10271842716E+03 -0.38125526346E+02  0.37534230237E+02  0.28681782648E+03  0.26239477150E+03 0.  0.
         25    1    3    3    0    0  0.10271842716E+03  0.38125526346E+02  0.90852376096E+02  0.18948956008E+03  0.12509000000E+03 0.  0.
         25    1    4    4    0    0 -0.14581139768E+02 -0.35811587756E+02  0.24720472991E+02  0.13324297107E+03  0.12509000000E+03 0.  0.
         25    1    4    4    0    0 -0.88137287387E+02 -0.23139385897E+01  0.12813757246E+02  0.15357485541E+03  0.12509000000E+03 0.  0.
<mgrwt>
<rscale>  2 0.45867811E+03</rscale>
<asrwt>0</asrwt>
<pdfrwt beam="1">  1       21 0.44462794E-01 0.45867811E+03</pdfrwt>
<pdfrwt beam="2">  1       21 0.25582410E-01 0.45867811E+03</pdfrwt>
<totfact> 0.65050422E+04</totfact>
</mgrwt>
</event>
<event>
 7    0  0.4732500E-002  0.4565425E+03  0.7546771E-02  0.1025789E+00
         21   -1    0    0  502  501  0.00000000000E+00  0.00000000000E+00  0.39411363482E+03  0.39411363482E+03  0.00000000000E+00 0.  1.
         21   -1    0    0  501  502 -0.00000000000E+00 -0.00000000000E+00 -0.13221506560E+03  0.13221506560E+03  0.00000000000E+00 0.  1.
      99926    2    1    2    0    0  0.00000000000E+00  0.00000000000E+00  0.26189856922E+03  0.52632870042E+03  0.45654248470E+03 0.  0.
      99925    2    3    3    0    0  0.11348530930E+03  0.39417970755E+01  0.18230476128E+03  0.33957448882E+03  0.26302348617E+03 0.  0.
         25    1    3    3    0    0 -0.11348530930E+03 -0.39417970755E+01  0.79593807940E+02  0.18675421161E+03  0.12509000000E+03 0.  0.
         25    1    4    4    0    0  0.73793359458E+02  0.53274872245E+01  0.51255554869E+02  0.15410542503E+03  0.12509000000E+03 0.  0.
         25    1    4    4    0    0  0.39691949843E+02 -0.13856901490E+01  0.13104920641E+03  0.18546906378E+03  0.12509000000E+03 0.  0.
<mgrwt>
<rscale>  2 0.45654248E+03</rscale>
<asrwt>0</asrwt>
<pdfrwt beam="1">  1       21 0.57957887E-01 0.45654248E+03</pdfrwt>
<pdfrwt beam="2">  1       21 0.19443392E-01 0.45654248E+03</pdfrwt>
<totfact> 0.62685730E+04</totfact>
</mgrwt>
</event>
<event>
 7    0  0.4732500E-002  0.4561612E+03  0.7546771E-02  0.1025900E+00
         21   -1    0    0  502  501  0.00000000000E+00  0.00000000000E+00  0.15167891007E+03  0.15167891007E+03  0.00000000000E+00 0. -1.
         21   -1    0    0  501  502 -0.00000000000E+00 -0.00000000000E+00 -0.34296639608E+03  0.34296639608E+03  0.00000000000E+00 0. -1.
      99926    2    1    2    0    0  0.00000000000E+00  0.00000000000E+00 -0.19128748600E+03  0.49464530615E+03  0.45616123969E+03 0.  0.
      99925    2    3    3    0    0 -0.86166268616E+02 -0.32163367982E+02 -0.19400628940E+03  0.33935844876E+03  0.26280526693E+03 0.  0.
         25    1    3    3    0    0  0.86166268616E+02  0.32163367982E+02  0.27188033960E+01  0.15528685739E+03  0.12509000000E+03 0.  0.
         25    1    4    4    0    0 -0.69979608728E+02 -0.19819943948E+02 -0.65371629410E+02  0.15877951331E+03  0.12509000000E+03 0.  0.
         25    1    4    4    0    0 -0.16186659888E+02 -0.12343424034E+02 -0.12863465999E+03  0.18057893544E+03  0.12509000000E+03 0.  0.
<mgrwt>
<rscale>  2 0.45616124E+03</rscale>
<asrwt>0</asrwt>
<pdfrwt beam="1">  1       21 0.22305722E-01 0.45616124E+03</pdfrwt>
<pdfrwt beam="2">  1       21 0.50436234E-01 0.45616124E+03</pdfrwt>
<totfact> 0.65046788E+04</totfact>
</mgrwt>
</event>
<event>
 7    0  0.4732500E-002  0.4562608E+03  0.7546771E-02  0.1025871E+00
         21   -1    0    0  502  501  0.00000000000E+00  0.00000000000E+00  0.13951660909E+03  0.13951660909E+03  0.00000000000E+00 0. -1.
         21   -1    0    0  501  502 -0.00000000000E+00 -0.00000000000E+00 -0.37302710132E+03  0.37302710132E+03  0.00000000000E+00 0. -1.
      99926    2    1    2    0    0  0.00000000000E+00 -0.14210854715E-13 -0.23351049222E+03  0.51254371041E+03  0.45626078629E+03 0.  0.
      99925    2    3    3    0    0 -0.10434298874E+02  0.11359047306E+03 -0.15584076426E+03  0.32628645577E+03  0.26299208591E+03 0.  0.
         25    1    4    4    0    0 -0.34979871289E+01  0.91034137408E+02 -0.56224747890E+02  0.16464562084E+03  0.12509000000E+03 0.  0.
         25    1    3    3    0    0  0.10434298874E+02 -0.11359047306E+03 -0.77669727964E+02  0.18625725464E+03  0.12509000000E+03 0.  0.
         25    1    4    4    0    0 -0.69363117455E+01  0.22556335654E+02 -0.99616016368E+02  0.16164083493E+03  0.12509000000E+03 0.  0.
<mgrwt>
<rscale>  2 0.45626079E+03</rscale>
<asrwt>0</asrwt>
<pdfrwt beam="1">  1       21 0.20517149E-01 0.45626079E+03</pdfrwt>
<pdfrwt beam="2">  1       21 0.54856925E-01 0.45626079E+03</pdfrwt>
<totfact> 0.63757793E+04</totfact>
</mgrwt>
</event>
<event>
 7    0  0.4732500E-002  0.4573867E+03  0.7546771E-02  0.1025542E+00
         21   -1    0    0  502  501  0.00000000000E+00  0.00000000000E+00  0.13229716903E+03  0.13229716903E+03  0.00000000000E+00 0. -1.
         21   -1    0    0  501  502 -0.00000000000E+00 -0.00000000000E+00 -0.39532708208E+03  0.39532708208E+03  0.00000000000E+00 0. -1.
      99926    2    1    2    0    0  0.00000000000E+00  0.00000000000E+00 -0.26302991305E+03  0.52762425112E+03  0.45738672391E+03 0.  0.
      99925    2    3    3    0    0  0.51661155031E+02  0.87249901513E+02 -0.22870022061E+03  0.36298082994E+03  0.26300165730E+03 0.  0.
         25    1    4    4    0    0  0.44401763672E+02  0.89153429198E+01 -0.92665264675E+02  0.16212760201E+03  0.12509000000E+03 0.  0.
         25    1    3    3    0    0 -0.51661155031E+02 -0.87249901513E+02 -0.34329692436E+02  0.16464342117E+03  0.12509000000E+03 0.  0.
         25    1    4    4    0    0  0.72593913593E+01  0.78334558593E+02 -0.13603495594E+03  0.20085322793E+03  0.12509000000E+03 0.  0.
<mgrwt>
<rscale>  2 0.45738672E+03</rscale>
<asrwt>0</asrwt>
<pdfrwt beam="1">  1       21 0.19455466E-01 0.45738672E+03</pdfrwt>
<pdfrwt beam="2">  1       21 0.58136335E-01 0.45738672E+03</pdfrwt>
<totfact> 0.62182826E+04</totfact>
</mgrwt>
</event>
<event>
 7    0  0.4732500E-002  0.4525328E+03  0.7546771E-02  0.1026969E+00
         21   -1    0    0  502  501  0.00000000000E+00  0.00000000000E+00  0.97659270125E+02  0.97659270125E+02  0.00000000000E+00 0.  1.
         21   -1    0    0  501  502 -0.00000000000E+00 -0.00000000000E+00 -0.52423573537E+03  0.52423573537E+03  0.00000000000E+00 0.  1.
      99926    2    1    2    0    0  0.17763568394E-14  0.00000000000E+00 -0.42657646525E+03  0.62189500550E+03  0.45253278020E+03 0.  0.
      99925    2    3    3    0    0  0.15186925475E+02  0.67626327208E+02 -0.15040824957E+03  0.31089604362E+03  0.26311546052E+03 0.  0.
         25    1    4    4    0    0  0.47934333007E+02  0.39000246882E+02 -0.82032590405E+02  0.16185046656E+03  0.12509000000E+03 0.  0.
         25    1    3    3    0    0 -0.15186925475E+02 -0.67626327208E+02 -0.27616821568E+03  0.31099896188E+03  0.12509000000E+03 0.  0.
         25    1    4    4    0    0 -0.32747407531E+02  0.28626080327E+02 -0.68375659165E+02  0.14904557706E+03  0.12509000000E+03 0.  0.
<mgrwt>
<rscale>  2 0.45253278E+03</rscale>
<asrwt>0</asrwt>
<pdfrwt beam="1">  1       21 0.14361657E-01 0.45253278E+03</pdfrwt>
<pdfrwt beam="2">  1       21 0.77093491E-01 0.45253278E+03</pdfrwt>
<totfact> 0.58481391E+04</totfact>
</mgrwt>
</event>
<event>
 7    0  0.4732500E-002  0.4571890E+03  0.7546771E-02  0.1025600E+00
         21   -1    0    0  502  501  0.00000000000E+00  0.00000000000E+00  0.17975285487E+03  0.17975285487E+03  0.00000000000E+00 0.  1.
         21   -1    0    0  501  502 -0.00000000000E+00 -0.00000000000E+00 -0.29070719668E+03  0.29070719668E+03  0.00000000000E+00 0.  1.
      99926    2    1    2    0    0  0.00000000000E+00  0.14210854715E-13 -0.11095434181E+03  0.47046005155E+03  0.45718901358E+03 0.  0.
      99925    2    3    3    0    0 -0.27215795987E+02 -0.84520839222E+02 -0.14536037164E+03  0.31324760038E+03  0.26288771308E+03 0.  0.
         25    1    3    3    0    0  0.27215795987E+02  0.84520839222E+02  0.34406029830E+02  0.15721245117E+03  0.12509000000E+03 0.  0.
         25    1    4    4    0    0 -0.12458085711E+02 -0.56935084440E+02 -0.32238476885E+02  0.14171674295E+03  0.12509000000E+03 0.  0.
         25    1    4    4    0    0 -0.14757710276E+02 -0.27585754783E+02 -0.11312189476E+03  0.17153085744E+03  0.12509000000E+03 0.  0.
<mgrwt>
<rscale>  2 0.45718901E+03</rscale>
<asrwt>0</asrwt>
<pdfrwt beam="1">  1       21 0.26434243E-01 0.45718901E+03</pdfrwt>
<pdfrwt beam="2">  1       21 0.42751058E-01 0.45718901E+03</pdfrwt>
<totfact> 0.66243781E+04</totfact>
</mgrwt>
</event>
<event>
 7    0  0.4732500E-002  0.4655228E+03  0.7546771E-02  0.1023192E+00
         21   -1    0    0  502  501  0.00000000000E+00  0.00000000000E+00  0.12564054994E+03  0.12564054994E+03  0.00000000000E+00 0.  1.
         21   -1    0    0  501  502 -0.00000000000E+00 -0.00000000000E+00 -0.43121324740E+03  0.43121324740E+03  0.00000000000E+00 0.  1.
      99926    2    1    2    0    0  0.00000000000E+00  0.00000000000E+00 -0.30557269746E+03  0.55685379735E+03  0.46552280093E+03 0.  0.
      99925    2    3    3    0    0 -0.83597352800E+02  0.63176533330E+02 -0.11394295862E+03  0.30516101504E+03  0.26298375524E+03 0.  0.
         25    1    4    4    0    0 -0.11313466589E+02  0.42465198848E+02 -0.81556816695E+02  0.15566088169E+03  0.12509000000E+03 0.  0.
         25    1    4    4    0    0 -0.72283886211E+02  0.20711334482E+02 -0.32386141921E+02  0.14950013335E+03  0.12509000000E+03 0.  0.
         25    1    3    3    0    0  0.83597352800E+02 -0.63176533330E+02 -0.19162973884E+03  0.25169278231E+03  0.12509000000E+03 0.  0.
<mgrwt>
<rscale>  2 0.46552280E+03</rscale>
<asrwt>0</asrwt>
<pdfrwt beam="1">  1       21 0.18476551E-01 0.46552280E+03</pdfrwt>
<pdfrwt beam="2">  1       21 0.63413713E-01 0.46552280E+03</pdfrwt>
<totfact> 0.56558630E+04</totfact>
</mgrwt>
</event>
<event>
 7    0  0.4732500E-002  0.4556596E+03  0.7546771E-02  0.1026048E+00
         21   -1    0    0  502  501  0.00000000000E+00  0.00000000000E+00  0.59832587659E+03  0.59832587659E+03  0.00000000000E+00 0. -1.
         21   -1    0    0  501  502 -0.00000000000E+00 -0.00000000000E+00 -0.86752772252E+02  0.86752772252E+02  0.00000000000E+00 0. -1.
      99926    2    1    2    0    0  0.00000000000E+00  0.22204460493E-15  0.51157310433E+03  0.68507864884E+03  0.45565964712E+03 0.  0.
      99925    2    3    3    0    0 -0.20801971778E+02 -0.11483266407E+01  0.15525450928E+03  0.30686642011E+03  0.26387306883E+03 0.  0.
         25    1    3    3    0    0  0.20801971778E+02  0.11483266407E+01  0.35631859505E+03  0.37821222873E+03  0.12509000000E+03 0.  0.
         25    1    4    4    0    0 -0.27688330940E+02  0.20108728753E+02  0.41079501019E+02  0.13603689994E+03  0.12509000000E+03 0.  0.
         25    1    4    4    0    0  0.68863591625E+01 -0.21257055393E+02  0.11417500827E+03  0.17082952016E+03  0.12509000000E+03 0.  0.
<mgrwt>
<rscale>  2 0.45565965E+03</rscale>
<asrwt>0</asrwt>
<pdfrwt beam="1">  1       21 0.87989098E-01 0.45565965E+03</pdfrwt>
<pdfrwt beam="2">  1       21 0.12757761E-01 0.45565965E+03</pdfrwt>
<totfact> 0.53442737E+04</totfact>
</mgrwt>
</event>
<event>
 7    0  0.4732500E-002  0.4503910E+03  0.7546771E-02  0.1027606E+00
         21   -1    0    0  502  501  0.00000000000E+00  0.00000000000E+00  0.15026025165E+03  0.15026025165E+03  0.00000000000E+00 0.  1.
         21   -1    0    0  501  502 -0.00000000000E+00 -0.00000000000E+00 -0.33750121679E+03  0.33750121679E+03  0.00000000000E+00 0.  1.
      99926    2    1    2    0    0  0.00000000000E+00  0.00000000000E+00 -0.18724096514E+03  0.48776146844E+03  0.45039102019E+03 0.  0.
      99925    2    3    3    0    0  0.64184032963E+02  0.53374232949E+02 -0.42531993797E+02  0.27905930430E+03  0.26286256103E+03 0.  0.
         25    1    3    3    0    0 -0.64184032963E+02 -0.53374232949E+02 -0.14470897134E+03  0.20870216414E+03  0.12509000000E+03 0.  0.
         25    1    4    4    0    0  0.51738299565E+02  0.19312780231E+02 -0.56746063842E+02  0.14804546256E+03  0.12509000000E+03 0.  0.
         25    1    4    4    0    0  0.12445733399E+02  0.34061452718E+02  0.14214070045E+02  0.13101384174E+03  0.12509000000E+03 0.  0.
<mgrwt>
<rscale>  2 0.45039102E+03</rscale>
<asrwt>0</asrwt>
<pdfrwt beam="1">  1       21 0.22097096E-01 0.45039102E+03</pdfrwt>
<pdfrwt beam="2">  1       21 0.49632531E-01 0.45039102E+03</pdfrwt>
<totfact> 0.68615752E+04</totfact>
</mgrwt>
</event>
<event>
 7    0  0.4732500E-002  0.4556827E+03  0.7546771E-02  0.1026041E+00
         21   -1    0    0  502  501  0.00000000000E+00  0.00000000000E+00  0.41749099897E+03  0.41749099897E+03  0.00000000000E+00 0.  1.
         21   -1    0    0  501  502 -0.00000000000E+00 -0.00000000000E+00 -0.12434204566E+03  0.12434204566E+03  0.00000000000E+00 0.  1.
      99926    2    1    2    0    0 -0.17763568394E-14  0.35527136788E-14  0.29314895331E+03  0.54183304463E+03  0.45568271793E+03 0.  0.
      99925    2    3    3    0    0  0.10116022928E+02 -0.31129979494E+02  0.55236587789E+02  0.27105414716E+03  0.26333981947E+03 0.  0.
         25    1    4    4    0    0 -0.29099144166E+02 -0.38173963094E+02  0.24159854085E+02  0.13614410857E+03  0.12509000000E+03 0.  0.
         25    1    3    3    0    0 -0.10116022928E+02  0.31129979494E+02  0.23791236552E+03  0.27077889747E+03  0.12509000000E+03 0.  0.
         25    1    4    4    0    0  0.39215167094E+02  0.70439836003E+01  0.31076733704E+02  0.13491003859E+03  0.12509000000E+03 0.  0.
<mgrwt>
<rscale>  2 0.45568272E+03</rscale>
<asrwt>0</asrwt>
<pdfrwt beam="1">  1       21 0.61395735E-01 0.45568272E+03</pdfrwt>
<pdfrwt beam="2">  1       21 0.18285595E-01 0.45568272E+03</pdfrwt>
<totfact> 0.62073393E+04</totfact>
</mgrwt>
</event>
<event>
 7    0  0.4732500E-002  0.4532081E+03  0.7546771E-02  0.1026770E+00
         21   -1    0    0  502  501  0.00000000000E+00  0.00000000000E+00  0.48725663187E+03  0.48725663187E+03  0.00000000000E+00 0.  1.
         21   -1    0    0  501  502 -0.00000000000E+00 -0.00000000000E+00 -0.10538470164E+03  0.10538470164E+03  0.00000000000E+00 0.  1.
      99926    2    1    2    0    0  0.00000000000E+00 -0.17763568394E-14  0.38187193023E+03  0.59264133352E+03  0.45320809690E+03 0.  0.
      99925    2    3    3    0    0 -0.38706167627E+02  0.14336095880E+02  0.10531396034E+03  0.28631551046E+03  0.26302442896E+03 0.  0.
         25    1    4    4    0    0 -0.30597115809E+02  0.43038024849E+02  0.37146380038E+02  0.14076866387E+03  0.12509000000E+03 0.  0.
         25    1    4    4    0    0 -0.81090518181E+01 -0.28701928969E+02  0.68167580297E+02  0.14554684659E+03  0.12509000000E+03 0.  0.
         25    1    3    3    0    0  0.38706167627E+02 -0.14336095880E+02  0.27655796990E+03  0.30632582306E+03  0.12509000000E+03 0.  0.
<mgrwt>
<rscale>  2 0.45320810E+03</rscale>
<asrwt>0</asrwt>
<pdfrwt beam="1">  1       21 0.71655386E-01 0.45320810E+03</pdfrwt>
<pdfrwt beam="2">  1       21 0.15497750E-01 0.45320810E+03</pdfrwt>
<totfact> 0.59978375E+04</totfact>
</mgrwt>
</event>
<event>
 7    0  0.4732500E-002  0.4521984E+03  0.7546771E-02  0.1027068E+00
         21   -1    0    0  502  501  0.00000000000E+00  0.00000000000E+00  0.35832650249E+03  0.35832650249E+03  0.00000000000E+00 0. -1.
         21   -1    0    0  501  502 -0.00000000000E+00 -0.00000000000E+00 -0.14266558275E+03  0.14266558275E+03  0.00000000000E+00 0. -1.
      99926    2    1    2    0    0 -0.88817841970E-15  0.00000000000E+00  0.21566091974E+03  0.50099208524E+03  0.45219844889E+03 0.  0.
      99925    2    3    3    0    0  0.57863478820E+01 -0.89383579261E+02  0.63004143229E+02  0.28425605783E+03  0.26231484572E+03 0.  0.
         25    1    3    3    0    0 -0.57863478820E+01  0.89383579261E+02  0.15265677651E+03  0.21673602741E+03  0.12509000000E+03 0.  0.
         25    1    4    4    0    0 -0.82630657590E+01 -0.27998836958E+02 -0.50492078244E+01  0.12855044040E+03  0.12509000000E+03 0.  0.
         25    1    4    4    0    0  0.14049413641E+02 -0.61384742303E+02  0.68053351053E+02  0.15570561744E+03  0.12509000000E+03 0.  0.
<mgrwt>
<rscale>  2 0.45219845E+03</rscale>
<asrwt>0</asrwt>
<pdfrwt beam="1">  1       21 0.52695074E-01 0.45219845E+03</pdfrwt>
<pdfrwt beam="2">  1       21 0.20980233E-01 0.45219845E+03</pdfrwt>
<totfact> 0.66671358E+04</totfact>
</mgrwt>
</event>
<event>
 7    0  0.4732500E-002  0.4543007E+03  0.7546771E-02  0.1026447E+00
         21   -1    0    0  502  501  0.00000000000E+00  0.00000000000E+00  0.28617671301E+03  0.28617671301E+03  0.00000000000E+00 0. -1.
         21   -1    0    0  501  502 -0.00000000000E+00 -0.00000000000E+00 -0.18029869714E+03  0.18029869714E+03  0.00000000000E+00 0. -1.
      99926    2    1    2    0    0  0.00000000000E+00  0.00000000000E+00  0.10587801587E+03  0.46647541016E+03  0.45430073083E+03 0.  0.
      99925    2    3    3    0    0  0.41491291931E+02  0.75854260915E+02  0.14056998304E+03  0.31050606416E+03  0.26301843955E+03 0.  0.
         25    1    4    4    0    0  0.28884716403E+02  0.79591148216E+02  0.79122624746E+02  0.17051972192E+03  0.12509000000E+03 0.  0.
         25    1    3    3    0    0 -0.41491291931E+02 -0.75854260915E+02 -0.34691967170E+02  0.15596934600E+03  0.12509000000E+03 0.  0.
         25    1    4    4    0    0  0.12606575528E+02 -0.37368873007E+01  0.61447358290E+02  0.13998634224E+03  0.12509000000E+03 0.  0.
<mgrwt>
<rscale>  2 0.45430073E+03</rscale>
<asrwt>0</asrwt>
<pdfrwt beam="1">  1       21 0.42084811E-01 0.45430073E+03</pdfrwt>
<pdfrwt beam="2">  1       21 0.26514514E-01 0.45430073E+03</pdfrwt>
<totfact> 0.68075810E+04</totfact>
</mgrwt>
</event>
<event>
 7    0  0.4732500E-002  0.4269551E+03  0.7546771E-02  0.1034826E+00
         21   -1    0    0  502  501  0.00000000000E+00  0.00000000000E+00  0.16969505077E+03  0.16969505077E+03  0.00000000000E+00 0. -1.
         21   -1    0    0  501  502 -0.00000000000E+00 -0.00000000000E+00 -0.26855628011E+03  0.26855628011E+03  0.00000000000E+00 0. -1.
      99926    2    1    2    0    0  0.00000000000E+00  0.00000000000E+00 -0.98861229339E+02  0.43825133088E+03  0.42695513388E+03 0.  0.
      99925    2    3    3    0    0  0.61464156833E+02 -0.16094742470E+02 -0.12071350682E+03  0.29625867810E+03  0.26298397349E+03 0.  0.
         25    1    3    3    0    0 -0.61464156833E+02  0.16094742470E+02  0.21852277484E+02  0.14199265277E+03  0.12509000000E+03 0.  0.
         25    1    4    4    0    0 -0.10042325140E+02 -0.19044039458E+01 -0.49577119149E+02  0.13494396575E+03  0.12509000000E+03 0.  0.
         25    1    4    4    0    0  0.71506481973E+02 -0.14190338524E+02 -0.71136387673E+02  0.16131471236E+03  0.12509000000E+03 0.  0.
<mgrwt>
<rscale>  2 0.42695513E+03</rscale>
<asrwt>0</asrwt>
<pdfrwt beam="1">  1       21 0.24955155E-01 0.42695513E+03</pdfrwt>
<pdfrwt beam="2">  1       21 0.39493570E-01 0.42695513E+03</pdfrwt>
<totfact> 0.87844798E+04</totfact>
</mgrwt>
</event>
<event>
 7    0  0.4732500E-002  0.4515038E+03  0.7546771E-02  0.1027275E+00
         21   -1    0    0  502  501  0.00000000000E+00  0.00000000000E+00  0.13359829246E+04  0.13359829246E+04  0.00000000000E+00 0.  1.
         21   -1    0    0  501  502 -0.00000000000E+00 -0.00000000000E+00 -0.38147139963E+02  0.38147139963E+02  0.00000000000E+00 0.  1.
      99926    2    1    2    0    0  0.00000000000E+00 -0.71054273576E-14  0.12978357847E+04  0.13741300646E+04  0.45150383216E+03 0.  0.
      99925    2    3    3    0    0  0.71887259613E+02 -0.37773983241E+02  0.10439051452E+04  0.10796424933E+04  0.26324002202E+03 0.  0.
         25    1    4    4    0    0  0.25742598685E+02 -0.58301109489E+02  0.51224375807E+03  0.53113357693E+03  0.12509000000E+03 0.  0.
         25    1    3    3    0    0 -0.71887259613E+02  0.37773983241E+02  0.25393063946E+03  0.29448757132E+03  0.12509000000E+03 0.  0.
         25    1    4    4    0    0  0.46144660929E+02  0.20527126247E+02  0.53166138714E+03  0.54850891635E+03  0.12509000000E+03 0.  0.
<mgrwt>
<rscale>  2 0.45150383E+03</rscale>
<asrwt>0</asrwt>
<pdfrwt beam="1">  1       21 0.19646805E+00 0.45150383E+03</pdfrwt>
<pdfrwt beam="2">  1       21 0.56098744E-02 0.45150383E+03</pdfrwt>
<totfact> 0.27776780E+04</totfact>
</mgrwt>
</event>
<event>
 7    0  0.4732500E-002  0.4582710E+03  0.7546771E-02  0.1025284E+00
         21   -1    0    0  502  501  0.00000000000E+00  0.00000000000E+00  0.11979544174E+04  0.11979544174E+04  0.00000000000E+00 0. -1.
         21   -1    0    0  501  502 -0.00000000000E+00 -0.00000000000E+00 -0.43827267099E+02  0.43827267099E+02  0.00000000000E+00 0. -1.
      99926    2    1    2    0    0  0.00000000000E+00  0.00000000000E+00  0.11541271503E+04  0.12417816845E+04  0.45827096012E+03 0.  0.
      99925    2    3    3    0    0 -0.18235382851E+02  0.97257459621E+02  0.89114865984E+03  0.93421585872E+03  0.26233908232E+03 0.  0.
         25    1    3    3    0    0  0.18235382851E+02 -0.97257459621E+02  0.26297849044E+03  0.30756582576E+03  0.12509000000E+03 0.  0.
         25    1    4    4    0    0 -0.29801666022E+02  0.35418044774E+02  0.53884803643E+03  0.55511016173E+03  0.12509000000E+03 0.  0.
         25    1    4    4    0    0  0.11566283171E+02  0.61839414847E+02  0.35230062341E+03  0.37910569699E+03  0.12509000000E+03 0.  0.
<mgrwt>
<rscale>  2 0.45827096E+03</rscale>
<asrwt>0</asrwt>
<pdfrwt beam="1">  1       21 0.17616975E+00 0.45827096E+03</pdfrwt>
<pdfrwt beam="2">  1       21 0.64451871E-02 0.45827096E+03</pdfrwt>
<totfact> 0.30080153E+04</totfact>
</mgrwt>
</event>
<event>
 7    0  0.4732500E-002  0.4538769E+03  0.7546771E-02  0.1026572E+00
         21   -1    0    0  502  501  0.00000000000E+00  0.00000000000E+00  0.11148296086E+03  0.11148296086E+03  0.00000000000E+00 0.  1.
         21   -1    0    0  501  502 -0.00000000000E+00 -0.00000000000E+00 -0.46196344197E+03  0.46196344197E+03  0.00000000000E+00 0.  1.
      99926    2    1    2    0    0  0.00000000000E+00 -0.71054273576E-14 -0.35048048111E+03  0.57344640282E+03  0.45387686576E+03 0.  0.
      99925    2    3    3    0    0 -0.27358032509E+02 -0.45311535635E+02 -0.34565423698E+03  0.43753320281E+03  0.26297690928E+03 0.  0.
         25    1    4    4    0    0 -0.12483986470E+02 -0.50352879206E+02 -0.12993250775E+03  0.18767319210E+03  0.12509000000E+03 0.  0.
         25    1    3    3    0    0  0.27358032509E+02  0.45311535635E+02 -0.48262441274E+01  0.13591320001E+03  0.12509000000E+03 0.  0.
         25    1    4    4    0    0 -0.14874046039E+02  0.50413435706E+01 -0.21572172924E+03  0.24986001072E+03  0.12509000000E+03 0.  0.
<mgrwt>
<rscale>  2 0.45387687E+03</rscale>
<asrwt>0</asrwt>
<pdfrwt beam="1">  1       21 0.16394553E-01 0.45387687E+03</pdfrwt>
<pdfrwt beam="2">  1       21 0.67935801E-01 0.45387687E+03</pdfrwt>
<totfact> 0.60882101E+04</totfact>
</mgrwt>
</event>
<event>
 7    0  0.4732500E-002  0.4624554E+03  0.7546771E-02  0.1024071E+00
         21   -1    0    0  502  501  0.00000000000E+00  0.00000000000E+00  0.14944004870E+04  0.14944004870E+04  0.00000000000E+00 0.  1.
         21   -1    0    0  501  502 -0.00000000000E+00 -0.00000000000E+00 -0.35777718669E+02  0.35777718669E+02  0.00000000000E+00 0.  1.
      99926    2    1    2    0    0  0.00000000000E+00 -0.14210854715E-13  0.14586227683E+04  0.15301782057E+04  0.46245536089E+03 0.  0.
      99925    2    3    3    0    0  0.24351469917E+02 -0.11144895122E+03  0.78606687750E+03  0.83664176308E+03  0.26278211698E+03 0.  0.
         25    1    4    4    0    0 -0.19918559960E+02 -0.80489059778E+02  0.42519622229E+03  0.45090417310E+03  0.12509000000E+03 0.  0.
         25    1    4    4    0    0  0.44270029877E+02 -0.30959891441E+02  0.36087065521E+03  0.38573758997E+03  0.12509000000E+03 0.  0.
         25    1    3    3    0    0 -0.24351469917E+02  0.11144895122E+03  0.67255589083E+03  0.69353644260E+03  0.12509000000E+03 0.  0.
<mgrwt>
<rscale>  2 0.46245536E+03</rscale>
<asrwt>0</asrwt>
<pdfrwt beam="1">  1       21 0.21976474E+00 0.46245536E+03</pdfrwt>
<pdfrwt beam="2">  1       21 0.52614302E-02 0.46245536E+03</pdfrwt>
<totfact> 0.21761522E+04</totfact>
</mgrwt>
</event>
<event>
 7    0  0.4732500E-002  0.4599147E+03  0.7546771E-02  0.1024806E+00
         21   -1    0    0  502  501  0.00000000000E+00  0.00000000000E+00  0.24677869871E+03  0.24677869871E+03  0.00000000000E+00 0.  1.
         21   -1    0    0  501  502 -0.00000000000E+00 -0.00000000000E+00 -0.21428259604E+03  0.21428259604E+03  0.00000000000E+00 0.  1.
      99926    2    1    2    0    0  0.00000000000E+00  0.14210854715E-13  0.32496102670E+02  0.46106129474E+03  0.45991468864E+03 0.  0.
      99925    2    3    3    0    0  0.63305179360E+02  0.75981854229E+02 -0.43700953937E+02  0.28432904686E+03  0.26296852589E+03 0.  0.
         25    1    3    3    0    0 -0.63305179360E+02 -0.75981854229E+02  0.76197056606E+02  0.17673224788E+03  0.12509000000E+03 0.  0.
         25    1    4    4    0    0  0.48202281108E+02  0.32939365212E+01 -0.68458573556E+01  0.13427093425E+03  0.12509000000E+03 0.  0.
         25    1    4    4    0    0  0.15102898252E+02  0.72687917708E+02 -0.36855096581E+02  0.15005811261E+03  0.12509000000E+03 0.  0.
<mgrwt>
<rscale>  2 0.45991469E+03</rscale>
<asrwt>0</asrwt>
<pdfrwt beam="1">  1       21 0.36290985E-01 0.45991469E+03</pdfrwt>
<pdfrwt beam="2">  1       21 0.31512147E-01 0.45991469E+03</pdfrwt>
<totfact> 0.65497746E+04</totfact>
</mgrwt>
</event>
<event>
 7    0  0.4732500E-002  0.4562898E+03  0.7546771E-02  0.1025863E+00
         21   -1    0    0  502  501  0.00000000000E+00  0.00000000000E+00  0.28725920244E+03  0.28725920244E+03  0.00000000000E+00 0.  1.
         21   -1    0    0  501  502 -0.00000000000E+00 -0.00000000000E+00 -0.18119559914E+03  0.18119559914E+03  0.00000000000E+00 0.  1.
      99926    2    1    2    0    0  0.00000000000E+00  0.14210854715E-13  0.10606360330E+03  0.46845480158E+03  0.45628983462E+03 0.  0.
      99925    2    3    3    0    0  0.94024847141E+02 -0.64770925547E+02  0.59971868386E+02  0.29293300577E+03  0.26301554364E+03 0.  0.
         25    1    4    4    0    0  0.33101181949E+02 -0.21542821387E+02  0.66538440775E+02  0.14708723126E+03  0.12509000000E+03 0.  0.
         25    1    3    3    0    0 -0.94024847141E+02  0.64770925547E+02  0.46091734916E+02  0.17552179581E+03  0.12509000000E+03 0.  0.
         25    1    4    4    0    0  0.60923665192E+02 -0.43228104161E+02 -0.65665723896E+01  0.14584577451E+03  0.12509000000E+03 0.  0.
<mgrwt>
<rscale>  2 0.45628983E+03</rscale>
<asrwt>0</asrwt>
<pdfrwt beam="1">  1       21 0.42244000E-01 0.45628983E+03</pdfrwt>
<pdfrwt beam="2">  1       21 0.26646412E-01 0.45628983E+03</pdfrwt>
<totfact> 0.66864281E+04</totfact>
</mgrwt>
</event>
<event>
 7    0  0.4732500E-002  0.4496277E+03  0.7546771E-02  0.1027833E+00
         21   -1    0    0  502  501  0.00000000000E+00  0.00000000000E+00  0.40180764389E+02  0.40180764389E+02  0.00000000000E+00 0.  1.
         21   -1    0    0  501  502 -0.00000000000E+00 -0.00000000000E+00 -0.12578473139E+04  0.12578473139E+04  0.00000000000E+00 0.  1.
      99926    2    1    2    0    0  0.71054273576E-14  0.00000000000E+00 -0.12176665495E+04  0.12980280783E+04  0.44962769736E+03 0.  0.
      99925    2    3    3    0    0  0.52847860935E+02  0.86501686790E+02 -0.87804402328E+03  0.92217384239E+03  0.26299781471E+03 0.  0.
         25    1    4    4    0    0 -0.14877025981E+02  0.38304330828E+02 -0.41003912549E+03  0.43066012144E+03  0.12509000000E+03 0.  0.
         25    1    4    4    0    0  0.67724886916E+02  0.48197355961E+02 -0.46800489778E+03  0.49151372095E+03  0.12509000000E+03 0.  0.
         25    1    3    3    0    0 -0.52847860935E+02 -0.86501686790E+02 -0.33962252626E+03  0.37585423593E+03  0.12509000000E+03 0.  0.
<mgrwt>
<rscale>  2 0.44962770E+03</rscale>
<asrwt>0</asrwt>
<pdfrwt beam="1">  1       21 0.59089358E-02 0.44962770E+03</pdfrwt>
<pdfrwt beam="2">  1       21 0.18497755E+00 0.44962770E+03</pdfrwt>
<totfact> 0.30423425E+04</totfact>
</mgrwt>
</event>
<event>
 7    0  0.4732500E-002  0.4543084E+03  0.7546771E-02  0.1026445E+00
         21   -1    0    0  502  501  0.00000000000E+00  0.00000000000E+00  0.31137934871E+03  0.31137934871E+03  0.00000000000E+00 0.  1.
         21   -1    0    0  501  502 -0.00000000000E+00 -0.00000000000E+00 -0.16571115398E+03  0.16571115398E+03  0.00000000000E+00 0.  1.
      99926    2    1    2    0    0 -0.35527136788E-14  0.00000000000E+00  0.14566819473E+03  0.47709050269E+03  0.45430840274E+03 0.  0.
      99925    2    3    3    0    0  0.26697931627E+02  0.10089166603E+03  0.47735849916E+02  0.28701115061E+03  0.26306801664E+03 0.  0.
         25    1    4    4    0    0  0.28376614799E+02  0.91480913348E+02  0.27800278731E+02  0.15998235331E+03  0.12509000000E+03 0.  0.
         25    1    3    3    0    0 -0.26697931627E+02 -0.10089166603E+03  0.97932344810E+02  0.19007935208E+03  0.12509000000E+03 0.  0.
         25    1    4    4    0    0 -0.16786831722E+01  0.94107526832E+01  0.19935571185E+02  0.12702879729E+03  0.12509000000E+03 0.  0.
<mgrwt>
<rscale>  2 0.45430840E+03</rscale>
<asrwt>0</asrwt>
<pdfrwt beam="1">  1       21 0.45791081E-01 0.45430840E+03</pdfrwt>
<pdfrwt beam="2">  1       21 0.24369287E-01 0.45430840E+03</pdfrwt>
<totfact> 0.67281051E+04</totfact>
</mgrwt>
</event>
<event>
 7    0  0.4732500E-002  0.4525009E+03  0.7546771E-02  0.1026979E+00
         21   -1    0    0  502  501  0.00000000000E+00  0.00000000000E+00  0.35366822133E+03  0.35366822133E+03  0.00000000000E+00 0. -1.
         21   -1    0    0  501  502 -0.00000000000E+00 -0.00000000000E+00 -0.14473810102E+03  0.14473810102E+03  0.00000000000E+00 0. -1.
      99926    2    1    2    0    0  0.17763568394E-14  0.14210854715E-13  0.20893012031E+03  0.49840632235E+03  0.45250090275E+03 0.  0.
      99925    2    3    3    0    0 -0.14925591484E+02  0.81730537942E+02  0.51050669461E+02  0.28051625095E+03  0.26302194221E+03 0.  0.
         25    1    4    4    0    0  0.24373719200E+02  0.66405701780E+02  0.22550047428E+02  0.14546411295E+03  0.12509000000E+03 0.  0.
         25    1    4    4    0    0 -0.39299310684E+02  0.15324836162E+02  0.28500622034E+02  0.13505213801E+03  0.12509000000E+03 0.  0.
         25    1    3    3    0    0  0.14925591484E+02 -0.81730537942E+02  0.15787945085E+03  0.21789007140E+03  0.12509000000E+03 0.  0.
<mgrwt>
<rscale>  2 0.45250090E+03</rscale>
<asrwt>0</asrwt>
<pdfrwt beam="1">  1       21 0.52010032E-01 0.45250090E+03</pdfrwt>
<pdfrwt beam="2">  1       21 0.21285015E-01 0.45250090E+03</pdfrwt>
<totfact> 0.66696096E+04</totfact>
</mgrwt>
</event>
<event>
 7    0  0.4732500E-002  0.4571999E+03  0.7546771E-02  0.1025596E+00
         21   -1    0    0  502  501  0.00000000000E+00  0.00000000000E+00  0.50142452473E+03  0.50142452473E+03  0.00000000000E+00 0. -1.
         21   -1    0    0  501  502 -0.00000000000E+00 -0.00000000000E+00 -0.10421895747E+03  0.10421895747E+03  0.00000000000E+00 0. -1.
      99926    2    1    2    0    0  0.00000000000E+00  0.00000000000E+00  0.39720556726E+03  0.60564348219E+03  0.45719991783E+03 0.  0.
      99925    2    3    3    0    0  0.96373455074E+02  0.57803405087E+02  0.28315130509E+03  0.40245647646E+03  0.26299710527E+03 0.  0.
         25    1    4    4    0    0  0.39775155825E+02  0.50113197253E+02  0.95798780259E+02  0.17005384429E+03  0.12509000000E+03 0.  0.
         25    1    4    4    0    0  0.56598299249E+02  0.76902078341E+01  0.18735252483E+03  0.23240263216E+03  0.12509000000E+03 0.  0.
         25    1    3    3    0    0 -0.96373455074E+02 -0.57803405087E+02  0.11405426217E+03  0.20318700574E+03  0.12509000000E+03 0.  0.
<mgrwt>
<rscale>  2 0.45719992E+03</rscale>
<asrwt>0</asrwt>
<pdfrwt beam="1">  1       21 0.73738900E-01 0.45719992E+03</pdfrwt>
<pdfrwt beam="2">  1       21 0.15326317E-01 0.45719992E+03</pdfrwt>
<totfact> 0.57329368E+04</totfact>
</mgrwt>
</event>
<event>
 7    0  0.4732500E-002  0.4540152E+03  0.7546771E-02  0.1026531E+00
         21   -1    0    0  502  501  0.00000000000E+00  0.00000000000E+00  0.50506956605E+03  0.50506956605E+03  0.00000000000E+00 0.  1.
         21   -1    0    0  501  502 -0.00000000000E+00 -0.00000000000E+00 -0.10203041990E+03  0.10203041990E+03  0.00000000000E+00 0.  1.
      99926    2    1    2    0    0  0.47739590059E-14  0.00000000000E+00  0.40303914614E+03  0.60709998595E+03  0.45401524161E+03 0.  0.
      99925    2    3    3    0    0 -0.43498331100E+00 -0.29665840271E+02  0.39871614080E+03  0.47846698954E+03  0.26282284501E+03 0.  0.
         25    1    4    4    0    0 -0.38077631054E+02 -0.22996014513E+02  0.18081966715E+03  0.22432561779E+03  0.12509000000E+03 0.  0.
         25    1    4    4    0    0  0.37642647743E+02 -0.66698257572E+01  0.21789647365E+03  0.25414137175E+03  0.12509000000E+03 0.  0.
         25    1    3    3    0    0  0.43498331100E+00  0.29665840271E+02  0.43230053470E+01  0.12863299641E+03  0.12509000000E+03 0.  0.
<mgrwt>
<rscale>  2 0.45401524E+03</rscale>
<asrwt>0</asrwt>
<pdfrwt beam="1">  1       21 0.74274936E-01 0.45401524E+03</pdfrwt>
<pdfrwt beam="2">  1       21 0.15004474E-01 0.45401524E+03</pdfrwt>
<totfact> 0.58698657E+04</totfact>
</mgrwt>
</event>
<event>
 7    0  0.4732500E-002  0.4569157E+03  0.7546771E-02  0.1025680E+00
         21   -1    0    0  502  501  0.00000000000E+00  0.00000000000E+00  0.24731659561E+03  0.24731659561E+03  0.00000000000E+00 0.  1.
         21   -1    0    0  501  502 -0.00000000000E+00 -0.00000000000E+00 -0.21103710450E+03  0.21103710450E+03  0.00000000000E+00 0.  1.
      99926    2    1    2    0    0  0.00000000000E+00  0.00000000000E+00  0.36279491101E+02  0.45835370011E+03  0.45691565188E+03 0.  0.
      99925    2    3    3    0    0 -0.12943138694E+02  0.11351730708E+03  0.35932779947E+02  0.28893902497E+03  0.26294655660E+03 0.  0.
         25    1    4    4    0    0  0.17456612509E+02  0.23298235016E+02  0.37912666138E+01  0.12848899905E+03  0.12509000000E+03 0.  0.
         25    1    4    4    0    0 -0.30399751203E+02  0.90219072061E+02  0.32141513333E+02  0.16045002591E+03  0.12509000000E+03 0.  0.
         25    1    3    3    0    0  0.12943138694E+02 -0.11351730708E+03  0.34671115390E+00  0.16941467514E+03  0.12509000000E+03 0.  0.
<mgrwt>
<rscale>  2 0.45691565E+03</rscale>
<asrwt>0</asrwt>
<pdfrwt beam="1">  1       21 0.36370087E-01 0.45691565E+03</pdfrwt>
<pdfrwt beam="2">  1       21 0.31034868E-01 0.45691565E+03</pdfrwt>
<totfact> 0.67266802E+04</totfact>
</mgrwt>
</event>
<event>
 7    0  0.4732500E-002  0.4365174E+03  0.7546771E-02  0.1031821E+00
         21   -1    0    0  502  501  0.00000000000E+00  0.00000000000E+00  0.11632986854E+03  0.11632986854E+03  0.00000000000E+00 0. -1.
         21   -1    0    0  501  502 -0.00000000000E+00 -0.00000000000E+00 -0.40949815104E+03  0.40949815104E+03  0.00000000000E+00 0. -1.
      99926    2    1    2    0    0  0.00000000000E+00  0.00000000000E+00 -0.29316828250E+03  0.52582801958E+03  0.43651742727E+03 0.  0.
      99925    2    3    3    0    0  0.52270904436E+02 -0.70548425939E+02 -0.23073054462E+03  0.36073620554E+03  0.26302984224E+03 0.  0.
         25    1    4    4    0    0  0.18522067308E+02  0.59680510764E+01 -0.98075909513E+02  0.16014080285E+03  0.12509000000E+03 0.  0.
         25    1    3    3    0    0 -0.52270904436E+02  0.70548425939E+02 -0.62437737874E+02  0.16509181404E+03  0.12509000000E+03 0.  0.
         25    1    4    4    0    0  0.33748837128E+02 -0.76516477016E+02 -0.13265463511E+03  0.20059540268E+03  0.12509000000E+03 0.  0.
<mgrwt>
<rscale>  2 0.43651743E+03</rscale>
<asrwt>0</asrwt>
<pdfrwt beam="1">  1       21 0.17107334E-01 0.43651743E+03</pdfrwt>
<pdfrwt beam="2">  1       21 0.60220316E-01 0.43651743E+03</pdfrwt>
<totfact> 0.73698625E+04</totfact>
</mgrwt>
</event>
<event>
 7    0  0.4732500E-002  0.4566949E+03  0.7546771E-02  0.1025744E+00
         21   -1    0    0  502  501  0.00000000000E+00  0.00000000000E+00  0.20693252062E+03  0.20693252062E+03  0.00000000000E+00 0.  1.
         21   -1    0    0  501  502 -0.00000000000E+00 -0.00000000000E+00 -0.25197853631E+03  0.25197853631E+03  0.00000000000E+00 0.  1.
      99926    2    1    2    0    0 -0.71054273576E-14  0.00000000000E+00 -0.45046015695E+02  0.45891105693E+03  0.45669488134E+03 0.  0.
      99925    2    3    3    0    0  0.37087592139E+02  0.81769222596E+02  0.43426793358E+02  0.28132546828E+03  0.26305215731E+03 0.  0.
         25    1    3    3    0    0 -0.37087592139E+02 -0.81769222596E+02 -0.88472809053E+02  0.17758558865E+03  0.12509000000E+03 0.  0.
         25    1    4    4    0    0  0.42101091549E+02  0.40843249210E+02 -0.11464394398E+02  0.13863482014E+03  0.12509000000E+03 0.  0.
         25    1    4    4    0    0 -0.50134994105E+01  0.40925973386E+02  0.54891187756E+02  0.14269064814E+03  0.12509000000E+03 0.  0.
<mgrwt>
<rscale>  2 0.45669488E+03</rscale>
<asrwt>0</asrwt>
<pdfrwt beam="1">  1       21 0.30431253E-01 0.45669488E+03</pdfrwt>
<pdfrwt beam="2">  1       21 0.37055667E-01 0.45669488E+03</pdfrwt>
<totfact> 0.67344907E+04</totfact>
</mgrwt>
</event>
<event>
 7    0  0.4732500E-002  0.4494957E+03  0.7546771E-02  0.1027873E+00
         21   -1    0    0  502  501  0.00000000000E+00  0.00000000000E+00  0.47552022350E+02  0.47552022350E+02  0.00000000000E+00 0.  1.
         21   -1    0    0  501  502 -0.00000000000E+00 -0.00000000000E+00 -0.10622388542E+04  0.10622388542E+04  0.00000000000E+00 0.  1.
      99926    2    1    2    0    0  0.00000000000E+00  0.00000000000E+00 -0.10146868318E+04  0.11097908765E+04  0.44949574296E+03 0.  0.
      99925    2    3    3    0    0  0.92739630506E+02  0.13182538829E+02 -0.77385694294E+03  0.82270036488E+03  0.26307205066E+03 0.  0.
         25    1    3    3    0    0 -0.92739630506E+02 -0.13182538829E+02 -0.24082988888E+03  0.28709051164E+03  0.12509000000E+03 0.  0.
         25    1    4    4    0    0  0.24310417405E+02 -0.28668292107E+02 -0.35530133398E+03  0.37854908981E+03  0.12509000000E+03 0.  0.
         25    1    4    4    0    0  0.68429213100E+02  0.41850830936E+02 -0.41855560896E+03  0.44415127507E+03  0.12509000000E+03 0.  0.
<mgrwt>
<rscale>  2 0.44949574E+03</rscale>
<asrwt>0</asrwt>
<pdfrwt beam="1">  1       21 0.69929449E-02 0.44949574E+03</pdfrwt>
<pdfrwt beam="2">  1       21 0.15621159E+00 0.44949574E+03</pdfrwt>
<totfact> 0.36703580E+04</totfact>
</mgrwt>
</event>
<event>
 7    0  0.4732500E-002  0.4567221E+03  0.7546771E-02  0.1025736E+00
         21   -1    0    0  502  501  0.00000000000E+00  0.00000000000E+00  0.32627475467E+02  0.32627475467E+02  0.00000000000E+00 0.  1.
         21   -1    0    0  501  502 -0.00000000000E+00 -0.00000000000E+00 -0.15983081195E+04  0.15983081195E+04  0.00000000000E+00 0.  1.
      99926    2    1    2    0    0  0.00000000000E+00  0.44408920985E-15 -0.15656806440E+04  0.16309355950E+04  0.45672205534E+03 0.  0.
      99925    2    3    3    0    0 -0.57793732508E+02  0.24111120693E+01 -0.63537294317E+03  0.69047514637E+03  0.26402882773E+03 0.  0.
         25    1    4    4    0    0 -0.27366483514E+01  0.23343535476E+02 -0.24063046873E+03  0.27221855277E+03  0.12509000000E+03 0.  0.
         25    1    4    4    0    0 -0.55057084157E+02 -0.20932423407E+02 -0.39474247444E+03  0.41825659360E+03  0.12509000000E+03 0.  0.
         25    1    3    3    0    0  0.57793732508E+02 -0.24111120693E+01 -0.93030770085E+03  0.94046044858E+03  0.12509000000E+03 0.  0.
<mgrwt>
<rscale>  2 0.45672206E+03</rscale>
<asrwt>0</asrwt>
<pdfrwt beam="1">  1       21 0.47981580E-02 0.45672206E+03</pdfrwt>
<pdfrwt beam="2">  1       21 0.23504532E+00 0.45672206E+03</pdfrwt>
<totfact> 0.20464642E+04</totfact>
</mgrwt>
</event>
<event>
 7    0  0.4732500E-002  0.4284707E+03  0.7546771E-02  0.1034344E+00
         21   -1    0    0  502  501  0.00000000000E+00  0.00000000000E+00  0.79677129965E+02  0.79677129965E+02  0.00000000000E+00 0. -1.
         21   -1    0    0  501  502 -0.00000000000E+00 -0.00000000000E+00 -0.57603463919E+03  0.57603463919E+03  0.00000000000E+00 0. -1.
      99926    2    1    2    0    0 -0.35527136788E-14  0.00000000000E+00 -0.49635750923E+03  0.65571176916E+03  0.42847070757E+03 0.  0.
      99925    2    3    3    0    0  0.70047767969E+01  0.70383086468E+02 -0.24582432974E+03  0.36689136150E+03  0.26301487465E+03 0.  0.
         25    1    4    4    0    0  0.43039049724E+02  0.38665548812E+02 -0.13631777424E+03  0.19384898282E+03  0.12509000000E+03 0.  0.
         25    1    4    4    0    0 -0.36034272927E+02  0.31717537656E+02 -0.10950655550E+03  0.17304237867E+03  0.12509000000E+03 0.  0.
         25    1    3    3    0    0 -0.70047767969E+01 -0.70383086468E+02 -0.25053317949E+03  0.28882040766E+03  0.12509000000E+03 0.  0.
<mgrwt>
<rscale>  2 0.42847071E+03</rscale>
<asrwt>0</asrwt>
<pdfrwt beam="1">  1       21 0.11717225E-01 0.42847071E+03</pdfrwt>
<pdfrwt beam="2">  1       21 0.84710975E-01 0.42847071E+03</pdfrwt>
<totfact> 0.68637811E+04</totfact>
</mgrwt>
</event>
<event>
 7    0  0.4732500E-002  0.4578445E+03  0.7546771E-02  0.1025408E+00
         21   -1    0    0  502  501  0.00000000000E+00  0.00000000000E+00  0.47178765523E+03  0.47178765523E+03  0.00000000000E+00 0.  1.
         21   -1    0    0  501  502 -0.00000000000E+00 -0.00000000000E+00 -0.11107837037E+03  0.11107837037E+03  0.00000000000E+00 0.  1.
      99926    2    1    2    0    0  0.00000000000E+00  0.00000000000E+00  0.36070928486E+03  0.58286602561E+03  0.45784453215E+03 0.  0.
      99925    2    3    3    0    0  0.70164360961E+02 -0.47388905539E+02  0.32704729036E+03  0.42811014077E+03  0.26296314681E+03 0.  0.
         25    1    3    3    0    0 -0.70164360961E+02  0.47388905539E+02  0.33661994499E+02  0.15475588483E+03  0.12509000000E+03 0.  0.
         25    1    4    4    0    0  0.76706628673E+01 -0.29528741135E+02  0.20269781236E+03  0.24013474730E+03  0.12509000000E+03 0.  0.
         25    1    4    4    0    0  0.62493698094E+02 -0.17860164404E+02  0.12434947800E+03  0.18797539347E+03  0.12509000000E+03 0.  0.
<mgrwt>
<rscale>  2 0.45784453E+03</rscale>
<asrwt>0</asrwt>
<pdfrwt beam="1">  1       21 0.69380536E-01 0.45784453E+03</pdfrwt>
<pdfrwt beam="2">  1       21 0.16335055E-01 0.45784453E+03</pdfrwt>
<totfact> 0.58420697E+04</totfact>
</mgrwt>
</event>
<event>
 7    0  0.4732500E-002  0.4291131E+03  0.7546771E-02  0.1034140E+00
         21   -1    0    0  502  501  0.00000000000E+00  0.00000000000E+00  0.17944529008E+03  0.17944529008E+03  0.00000000000E+00 0. -1.
         21   -1    0    0  501  502 -0.00000000000E+00 -0.00000000000E+00 -0.25653791096E+03  0.25653791096E+03  0.00000000000E+00 0. -1.
      99926    2    1    2    0    0  0.00000000000E+00  0.00000000000E+00 -0.77092620885E+02  0.43598320104E+03  0.42911313123E+03 0.  0.
      99925    2    3    3    0    0 -0.80538673376E+02  0.11925217512E+02 -0.80266906833E+02  0.28669732457E+03  0.26291422719E+03 0.  0.
         25    1    4    4    0    0 -0.32208157451E+01 -0.78038670176E+01 -0.51609021851E+02  0.13558124218E+03  0.12509000000E+03 0.  0.
         25    1    3    3    0    0  0.80538673376E+02 -0.11925217512E+02  0.31742859482E+01  0.14928587647E+03  0.12509000000E+03 0.  0.
         25    1    4    4    0    0 -0.77317857630E+02  0.19729084530E+02 -0.28657884982E+02  0.15111608239E+03  0.12509000000E+03 0.  0.
<mgrwt>
<rscale>  2 0.42911313E+03</rscale>
<asrwt>0</asrwt>
<pdfrwt beam="1">  1       21 0.26389013E-01 0.42911313E+03</pdfrwt>
<pdfrwt beam="2">  1       21 0.37726163E-01 0.42911313E+03</pdfrwt>
<totfact> 0.86484611E+04</totfact>
</mgrwt>
</event>
<event>
 7    0  0.4732500E-002  0.4592244E+03  0.7546771E-02  0.1025006E+00
         21   -1    0    0  502  501  0.00000000000E+00  0.00000000000E+00  0.16076700826E+03  0.16076700826E+03  0.00000000000E+00 0. -1.
         21   -1    0    0  501  502 -0.00000000000E+00 -0.00000000000E+00 -0.32793898509E+03  0.32793898509E+03  0.00000000000E+00 0. -1.
      99926    2    1    2    0    0  0.35527136788E-14  0.00000000000E+00 -0.16717197683E+03  0.48870599335E+03  0.45922443107E+03 0.  0.
      99925    2    3    3    0    0  0.24260319442E+02 -0.11284592293E+03 -0.82921099517E+02  0.29878894869E+03  0.26282344205E+03 0.  0.
         25    1    4    4    0    0 -0.16979613450E+02 -0.24887688415E+02 -0.37844369663E+02  0.13411714552E+03  0.12509000000E+03 0.  0.
         25    1    4    4    0    0  0.41239932892E+02 -0.87958234519E+02 -0.45076729854E+02  0.16467180317E+03  0.12509000000E+03 0.  0.
         25    1    3    3    0    0 -0.24260319442E+02  0.11284592293E+03 -0.84250877313E+02  0.18991704465E+03  0.12509000000E+03 0.  0.
<mgrwt>
<rscale>  2 0.45922443E+03</rscale>
<asrwt>0</asrwt>
<pdfrwt beam="1">  1       21 0.23642207E-01 0.45922443E+03</pdfrwt>
<pdfrwt beam="2">  1       21 0.48226321E-01 0.45922443E+03</pdfrwt>
<totfact> 0.63901610E+04</totfact>
</mgrwt>
</event>
<event>
 7    0  0.4732500E-002  0.4290061E+03  0.7546771E-02  0.1034174E+00
         21   -1    0    0  502  501  0.00000000000E+00  0.00000000000E+00  0.15523612010E+04  0.15523612010E+04  0.00000000000E+00 0.  1.
         21   -1    0    0  501  502 -0.00000000000E+00 -0.00000000000E+00 -0.29639720548E+02  0.29639720548E+02  0.00000000000E+00 0.  1.
      99926    2    1    2    0    0 -0.71054273576E-14  0.14210854715E-13  0.15227214805E+04  0.15820009216E+04  0.42900607076E+03 0.  0.
      99925    2    3    3    0    0 -0.62890976050E+02  0.60126739483E+02  0.97670711602E+03  0.10151237797E+04  0.26258141211E+03 0.  0.
         25    1    4    4    0    0 -0.36576403108E+02  0.67759907868E+02  0.46574906347E+03  0.48836352915E+03  0.12509000000E+03 0.  0.
         25    1    4    4    0    0 -0.26314572942E+02 -0.76331683853E+01  0.51095805255E+03  0.52676025057E+03  0.12509000000E+03 0.  0.
         25    1    3    3    0    0  0.62890976050E+02 -0.60126739483E+02  0.54601436443E+03  0.56687714184E+03  0.12509000000E+03 0.  0.
<mgrwt>
<rscale>  2 0.42900607E+03</rscale>
<asrwt>0</asrwt>
<pdfrwt beam="1">  1       21 0.22828836E+00 0.42900607E+03</pdfrwt>
<pdfrwt beam="2">  1       21 0.43587835E-02 0.42900607E+03</pdfrwt>
<totfact> 0.26867247E+04</totfact>
</mgrwt>
</event>
<event>
 7    0  0.4732500E-002  0.4536927E+03  0.7546771E-02  0.1026627E+00
         21   -1    0    0  502  501  0.00000000000E+00  0.00000000000E+00  0.67804179117E+03  0.67804179117E+03  0.00000000000E+00 0. -1.
         21   -1    0    0  501  502 -0.00000000000E+00 -0.00000000000E+00 -0.75893961478E+02  0.75893961478E+02  0.00000000000E+00 0. -1.
      99926    2    1    2    0    0  0.00000000000E+00  0.00000000000E+00  0.60214782969E+03  0.75393575265E+03  0.45369274880E+03 0.  0.
      99925    2    3    3    0    0 -0.73534830572E+02 -0.79567057834E+02  0.33246226057E+03  0.43752446604E+03  0.26297949669E+03 0.  0.
         25    1    3    3    0    0  0.73534830572E+02  0.79567057834E+02  0.26968556912E+03  0.31641128661E+03  0.12509000000E+03 0.  0.
         25    1    4    4    0    0 -0.32573622655E+02 -0.71645340022E+02  0.21521721849E+03  0.26107480705E+03  0.12509000000E+03 0.  0.
         25    1    4    4    0    0 -0.40961207917E+02 -0.79217178114E+01  0.11724504208E+03  0.17644965900E+03  0.12509000000E+03 0.  0.
<mgrwt>
<rscale>  2 0.45369275E+03</rscale>
<asrwt>0</asrwt>
<pdfrwt beam="1">  1       21 0.99712025E-01 0.45369275E+03</pdfrwt>
<pdfrwt beam="2">  1       21 0.11160877E-01 0.45369275E+03</pdfrwt>
<totfact> 0.50588232E+04</totfact>
</mgrwt>
</event>
<event>
 7    0  0.4732500E-002  0.4422749E+03  0.7546771E-02  0.1030051E+00
         21   -1    0    0  502  501  0.00000000000E+00  0.00000000000E+00  0.16470838778E+03  0.16470838778E+03  0.00000000000E+00 0. -1.
         21   -1    0    0  501  502 -0.00000000000E+00 -0.00000000000E+00 -0.29689904955E+03  0.29689904955E+03  0.00000000000E+00 0. -1.
      99926    2    1    2    0    0 -0.14210854715E-13  0.00000000000E+00 -0.13219066177E+03  0.46160743732E+03  0.44227486378E+03 0.  0.
      99925    2    3    3    0    0 -0.97214907329E+02 -0.16200285872E+02 -0.10641648835E+03  0.30028476816E+03  0.26293209300E+03 0.  0.
         25    1    4    4    0    0 -0.62117335683E+01 -0.14649651430E+02 -0.47677261685E+02  0.13481033826E+03  0.12509000000E+03 0.  0.
         25    1    4    4    0    0 -0.91003173761E+02 -0.15506344415E+01 -0.58739226667E+02  0.16547442990E+03  0.12509000000E+03 0.  0.
         25    1    3    3    0    0  0.97214907329E+02  0.16200285872E+02 -0.25774173415E+02  0.16132266916E+03  0.12509000000E+03 0.  0.
<mgrwt>
<rscale>  2 0.44227486E+03</rscale>
<asrwt>0</asrwt>
<pdfrwt beam="1">  1       21 0.24221822E-01 0.44227486E+03</pdfrwt>
<pdfrwt beam="2">  1       21 0.43661624E-01 0.44227486E+03</pdfrwt>
<totfact> 0.75393673E+04</totfact>
</mgrwt>
</event>
<event>
 6    0  0.4732500E-002  0.4546609E+03  0.7546771E-02  0.1026341E+00
         21   -1    0    0  502  501  0.00000000000E+00  0.00000000000E+00  0.40282152083E+03  0.40282152083E+03  0.00000000000E+00 0. -1.
         21   -1    0    0  501  502 -0.00000000000E+00 -0.00000000000E+00 -0.12829288205E+03  0.12829288205E+03  0.00000000000E+00 0. -1.
      99926    2    1    2    0    0  0.00000000000E+00  0.00000000000E+00  0.27452863878E+03  0.53111440288E+03  0.45466090158E+03 0.  0.
         25    1    3    3    0    0  0.27863954695E+02 -0.41744436465E+02  0.33084507147E+02  0.13878433147E+03  0.12509000000E+03 0.  0.
         25    1    3    3    0    0 -0.73434236828E+02  0.77039097146E+02  0.88712746336E+02  0.18666833982E+03  0.12509000000E+03 0.  0.
         25    1    3    3    0    0  0.45570282132E+02 -0.35294660681E+02  0.15273138530E+03  0.20566173159E+03  0.12509000000E+03 0.  0.
<mgrwt>
<rscale>  2 0.45466090E+03</rscale>
<asrwt>0</asrwt>
<pdfrwt beam="1">  1       21 0.59238459E-01 0.45466090E+03</pdfrwt>
<pdfrwt beam="2">  1       21 0.18866600E-01 0.45466090E+03</pdfrwt>
<totfact> 0.63301092E+04</totfact>
</mgrwt>
</event>
<event>
 7    0  0.4732500E-002  0.4506950E+03  0.7546771E-02  0.1027515E+00
         21   -1    0    0  502  501  0.00000000000E+00  0.00000000000E+00  0.28909684349E+03  0.28909684349E+03  0.00000000000E+00 0.  1.
         21   -1    0    0  501  502 -0.00000000000E+00 -0.00000000000E+00 -0.17565566724E+03  0.17565566724E+03  0.00000000000E+00 0.  1.
      99926    2    1    2    0    0  0.00000000000E+00  0.00000000000E+00  0.11344117626E+03  0.46475251073E+03  0.45069501413E+03 0.  0.
      99925    2    3    3    0    0 -0.71578095231E+02 -0.79549881531E+02  0.49420851515E+02  0.28812375472E+03  0.26290924309E+03 0.  0.
         25    1    4    4    0    0 -0.37272587236E+02 -0.26302303725E+02  0.62911803624E+02  0.14726323396E+03  0.12509000000E+03 0.  0.
         25    1    3    3    0    0  0.71578095231E+02  0.79549881531E+02  0.64020324743E+02  0.17662875601E+03  0.12509000000E+03 0.  0.
         25    1    4    4    0    0 -0.34305507996E+02 -0.53247577807E+02 -0.13490952109E+02  0.14086052076E+03  0.12509000000E+03 0.  0.
<mgrwt>
<rscale>  2 0.45069501E+03</rscale>
<asrwt>0</asrwt>
<pdfrwt beam="1">  1       21 0.42514242E-01 0.45069501E+03</pdfrwt>
<pdfrwt beam="2">  1       21 0.25831716E-01 0.45069501E+03</pdfrwt>
<totfact> 0.70194708E+04</totfact>
</mgrwt>
</event>
<event>
 7    0  0.4732500E-002  0.4553897E+03  0.7546771E-02  0.1026127E+00
         21   -1    0    0  502  501  0.00000000000E+00  0.00000000000E+00  0.38368849691E+03  0.38368849691E+03  0.00000000000E+00 0.  1.
         21   -1    0    0  501  502 -0.00000000000E+00 -0.00000000000E+00 -0.13512251182E+03  0.13512251182E+03  0.00000000000E+00 0.  1.
      99926    2    1    2    0    0  0.00000000000E+00  0.35527136788E-14  0.24856598509E+03  0.51881100872E+03  0.45538973839E+03 0.  0.
      99925    2    3    3    0    0 -0.43875137398E+02  0.19025916063E+02  0.27365551311E+03  0.38256121724E+03  0.26301850110E+03 0.  0.
         25    1    4    4    0    0 -0.42849426740E+02  0.29510955590E+02  0.18311331004E+03  0.22778270848E+03  0.12509000000E+03 0.  0.
         25    1    4    4    0    0 -0.10257106580E+01 -0.10485039527E+02  0.90542203070E+02  0.15477850876E+03  0.12509000000E+03 0.  0.
         25    1    3    3    0    0  0.43875137398E+02 -0.19025916063E+02 -0.25089528011E+02  0.13624979148E+03  0.12509000000E+03 0.  0.
<mgrwt>
<rscale>  2 0.45538974E+03</rscale>
<asrwt>0</asrwt>
<pdfrwt beam="1">  1       21 0.56424779E-01 0.45538974E+03</pdfrwt>
<pdfrwt beam="2">  1       21 0.19870958E-01 0.45538974E+03</pdfrwt>
<totfact> 0.63770928E+04</totfact>
</mgrwt>
</event>
<event>
 7    0  0.4732500E-002  0.4243352E+03  0.7546771E-02  0.1035665E+00
         21   -1    0    0  502  501  0.00000000000E+00  0.00000000000E+00  0.13077196325E+03  0.13077196325E+03  0.00000000000E+00 0. -1.
         21   -1    0    0  501  502 -0.00000000000E+00 -0.00000000000E+00 -0.34422589498E+03  0.34422589498E+03  0.00000000000E+00 0. -1.
      99926    2    1    2    0    0 -0.17763568394E-14  0.00000000000E+00 -0.21345393173E+03  0.47499785823E+03  0.42433522638E+03 0.  0.
      99925    2    3    3    0    0 -0.81291661308E+01  0.18086514864E+02 -0.22674859201E+03  0.34765006102E+03  0.26277830121E+03 0.  0.
         25    1    4    4    0    0  0.30128915529E+02 -0.10960175948E+02 -0.10175753751E+03  0.16440797288E+03  0.12509000000E+03 0.  0.
         25    1    3    3    0    0  0.81291661308E+01 -0.18086514864E+02  0.13294660273E+02  0.12734779721E+03  0.12509000000E+03 0.  0.
         25    1    4    4    0    0 -0.38258081660E+02  0.29046690812E+02 -0.12499105450E+03  0.18324208813E+03  0.12509000000E+03 0.  0.
<mgrwt>
<rscale>  2 0.42433523E+03</rscale>
<asrwt>0</asrwt>
<pdfrwt beam="1">  1       21 0.19231171E-01 0.42433523E+03</pdfrwt>
<pdfrwt beam="2">  1       21 0.50621455E-01 0.42433523E+03</pdfrwt>
<totfact> 0.86218340E+04</totfact>
</mgrwt>
</event>
<event>
 7    0  0.4732500E-002  0.4455388E+03  0.7546771E-02  0.1029061E+00
         21   -1    0    0  502  501  0.00000000000E+00  0.00000000000E+00  0.62672786228E+03  0.62672786228E+03  0.00000000000E+00 0.  1.
         21   -1    0    0  501  502 -0.00000000000E+00 -0.00000000000E+00 -0.79183031327E+02  0.79183031327E+02  0.00000000000E+00 0.  1.
      99926    2    1    2    0    0  0.71054273576E-14 -0.14210854715E-13  0.54754483095E+03  0.70591089361E+03  0.44553882862E+03 0.  0.
      99925    2    3    3    0    0 -0.38085306155E+02  0.89312714412E+02  0.40668565937E+03  0.49397678635E+03  0.26304484107E+03 0.  0.
         25    1    4    4    0    0 -0.41758957668E+02  0.31378058121E+02  0.25625766767E+03  0.28990324838E+03  0.12509000000E+03 0.  0.
         25    1    4    4    0    0  0.36736515130E+01  0.57934656290E+02  0.15042799169E+03  0.20407353797E+03  0.12509000000E+03 0.  0.
         25    1    3    3    0    0  0.38085306155E+02 -0.89312714412E+02  0.14085917159E+03  0.21193410726E+03  0.12509000000E+03 0.  0.
<mgrwt>
<rscale>  2 0.44553883E+03</rscale>
<asrwt>0</asrwt>
<pdfrwt beam="1">  1       21 0.92165860E-01 0.44553883E+03</pdfrwt>
<pdfrwt beam="2">  1       21 0.11644564E-01 0.44553883E+03</pdfrwt>
<totfact> 0.56686811E+04</totfact>
</mgrwt>
</event>
<event>
 7    0  0.4732500E-002  0.4617609E+03  0.7546771E-02  0.1024272E+00
         21   -1    0    0  502  501  0.00000000000E+00  0.00000000000E+00  0.21160660306E+03  0.21160660306E+03  0.00000000000E+00 0. -1.
         21   -1    0    0  501  502 -0.00000000000E+00 -0.00000000000E+00 -0.25190987195E+03  0.25190987195E+03  0.00000000000E+00 0. -1.
      99926    2    1    2    0    0  0.00000000000E+00  0.00000000000E+00 -0.40303268882E+02  0.46351647501E+03  0.46176094370E+03 0.  0.
      99925    2    3    3    0    0  0.76879105115E+02 -0.75480989832E+02 -0.76886194270E+02  0.29442006713E+03  0.26299032763E+03 0.  0.
         25    1    4    4    0    0  0.10153387130E+01 -0.42799640607E+02 -0.18293298789E+02  0.13347281757E+03  0.12509000000E+03 0.  0.
         25    1    3    3    0    0 -0.76879105115E+02  0.75480989832E+02  0.36582925388E+02  0.16909640788E+03  0.12509000000E+03 0.  0.
         25    1    4    4    0    0  0.75863766402E+02 -0.32681349225E+02 -0.58592895482E+02  0.16094724956E+03  0.12509000000E+03 0.  0.
<mgrwt>
<rscale>  2 0.46176094E+03</rscale>
<asrwt>0</asrwt>
<pdfrwt beam="1">  1       21 0.31118618E-01 0.46176094E+03</pdfrwt>
<pdfrwt beam="2">  1       21 0.37045569E-01 0.46176094E+03</pdfrwt>
<totfact> 0.64382620E+04</totfact>
</mgrwt>
</event>
<event>
 7    0  0.4732500E-002  0.4578865E+03  0.7546771E-02  0.1025396E+00
         21   -1    0    0  502  501  0.00000000000E+00  0.00000000000E+00  0.11121587868E+03  0.11121587868E+03  0.00000000000E+00 0. -1.
         21   -1    0    0  501  502 -0.00000000000E+00 -0.00000000000E+00 -0.47129075003E+03  0.47129075003E+03  0.00000000000E+00 0. -1.
      99926    2    1    2    0    0  0.00000000000E+00  0.35527136788E-14 -0.36007487135E+03  0.58250662871E+03  0.45788651379E+03 0.  0.
      99925    2    3    3    0    0  0.59689946367E+02  0.22879000510E+02 -0.10302264703E+03  0.28957371405E+03  0.26296945014E+03 0.  0.
         25    1    3    3    0    0 -0.59689946367E+02 -0.22879000510E+02 -0.25705222432E+03  0.29293291466E+03  0.12509000000E+03 0.  0.
         25    1    4    4    0    0  0.36968948708E+02  0.42065726705E+02 -0.80777480230E+02  0.15908720233E+03  0.12509000000E+03 0.  0.
         25    1    4    4    0    0  0.22720997659E+02 -0.19186726195E+02 -0.22245166804E+02  0.13048651173E+03  0.12509000000E+03 0.  0.
<mgrwt>
<rscale>  2 0.45788651E+03</rscale>
<asrwt>0</asrwt>
<pdfrwt beam="1">  1       21 0.16355276E-01 0.45788651E+03</pdfrwt>
<pdfrwt beam="2">  1       21 0.69307463E-01 0.45788651E+03</pdfrwt>
<totfact> 0.58423558E+04</totfact>
</mgrwt>
</event>
<event>
 7    0  0.4732500E-002  0.4530987E+03  0.7546771E-02  0.1026802E+00
         21   -1    0    0  502  501  0.00000000000E+00  0.00000000000E+00  0.59198859589E+03  0.59198859589E+03  0.00000000000E+00 0. -1.
         21   -1    0    0  501  502 -0.00000000000E+00 -0.00000000000E+00 -0.86698658152E+02  0.86698658152E+02  0.00000000000E+00 0. -1.
      99926    2    1    2    0    0  0.00000000000E+00  0.71054273576E-14  0.50528993774E+03  0.67868725404E+03  0.45309873937E+03 0.  0.
      99925    2    3    3    0    0 -0.98043234927E+02  0.47643316114E+02  0.35249092016E+03  0.45312704178E+03  0.26304354337E+03 0.  0.
         25    1    3    3    0    0  0.98043234927E+02 -0.47643316114E+02  0.15279901758E+03  0.22556021227E+03  0.12509000000E+03 0.  0.
         25    1    4    4    0    0 -0.85358896514E+02  0.29584119466E+02  0.22773880443E+03  0.27508877200E+03  0.12509000000E+03 0.  0.
         25    1    4    4    0    0 -0.12684338413E+02  0.18059196648E+02  0.12475211573E+03  0.17803826977E+03  0.12509000000E+03 0.  0.
<mgrwt>
<rscale>  2 0.45309874E+03</rscale>
<asrwt>0</asrwt>
<pdfrwt beam="1">  1       21 0.87057144E-01 0.45309874E+03</pdfrwt>
<pdfrwt beam="2">  1       21 0.12749803E-01 0.45309874E+03</pdfrwt>
<totfact> 0.54893152E+04</totfact>
</mgrwt>
</event>
<event>
 7    0  0.4732500E-002  0.4554721E+03  0.7546771E-02  0.1026103E+00
         21   -1    0    0  502  501  0.00000000000E+00  0.00000000000E+00  0.33201499272E+03  0.33201499272E+03  0.00000000000E+00 0. -1.
         21   -1    0    0  501  502 -0.00000000000E+00 -0.00000000000E+00 -0.15620892513E+03  0.15620892513E+03  0.00000000000E+00 0. -1.
      99926    2    1    2    0    0  0.00000000000E+00  0.14210854715E-13  0.17580606759E+03  0.48822391785E+03  0.45547208538E+03 0.  0.
      99925    2    3    3    0    0 -0.30601367513E+02  0.10384343295E+03  0.73435265893E+02  0.29368037156E+03  0.26293634230E+03 0.  0.
         25    1    3    3    0    0  0.30601367513E+02 -0.10384343295E+03  0.10237080169E+03  0.19454354628E+03  0.12509000000E+03 0.  0.
         25    1    4    4    0    0 -0.74225741811E+01  0.26315877974E+02  0.67112088220E+02  0.14456541954E+03  0.12509000000E+03 0.  0.
         25    1    4    4    0    0 -0.23178793332E+02  0.77527554979E+02  0.63231776725E+01  0.14911495202E+03  0.12509000000E+03 0.  0.
<mgrwt>
<rscale>  2 0.45547209E+03</rscale>
<asrwt>0</asrwt>
<pdfrwt beam="1">  1       21 0.48825734E-01 0.45547209E+03</pdfrwt>
<pdfrwt beam="2">  1       21 0.22971901E-01 0.45547209E+03</pdfrwt>
<totfact> 0.65858991E+04</totfact>
</mgrwt>
</event>
<event>
 7    0  0.4732500E-002  0.4565193E+03  0.7546771E-02  0.1025796E+00
         21   -1    0    0  502  501  0.00000000000E+00  0.00000000000E+00  0.10606406635E+03  0.10606406635E+03  0.00000000000E+00 0.  1.
         21   -1    0    0  501  502 -0.00000000000E+00 -0.00000000000E+00 -0.49123571464E+03  0.49123571464E+03  0.00000000000E+00 0.  1.
      99926    2    1    2    0    0 -0.14210854715E-13  0.00000000000E+00 -0.38517164829E+03  0.59729978099E+03  0.45651925450E+03 0.  0.
      99925    2    3    3    0    0 -0.71213096363E+02  0.51630698105E+02 -0.14581837515E+03  0.31326715691E+03  0.26293778539E+03 0.  0.
         25    1    4    4    0    0  0.11775177063E+01  0.21483078559E+02 -0.89245985246E+02  0.15516205462E+03  0.12509000000E+03 0.  0.
         25    1    3    3    0    0  0.71213096363E+02 -0.51630698105E+02 -0.23935327314E+03  0.28403262408E+03  0.12509000000E+03 0.  0.
         25    1    4    4    0    0 -0.72390614069E+02  0.30147619546E+02 -0.56572389901E+02  0.15810510229E+03  0.12509000000E+03 0.  0.
<mgrwt>
<rscale>  2 0.45651925E+03</rscale>
<asrwt>0</asrwt>
<pdfrwt beam="1">  1       21 0.15597657E-01 0.45651925E+03</pdfrwt>
<pdfrwt beam="2">  1       21 0.72240546E-01 0.45651925E+03</pdfrwt>
<totfact> 0.58143614E+04</totfact>
</mgrwt>
</event>
<event>
 7    0  0.4732500E-002  0.4595517E+03  0.7546771E-02  0.1024911E+00
         21   -1    0    0  502  501  0.00000000000E+00  0.00000000000E+00  0.26444946872E+03  0.26444946872E+03  0.00000000000E+00 0. -1.
         21   -1    0    0  501  502 -0.00000000000E+00 -0.00000000000E+00 -0.19964852594E+03  0.19964852594E+03  0.00000000000E+00 0. -1.
      99926    2    1    2    0    0  0.00000000000E+00 -0.14210854715E-13  0.64800942786E+02  0.46409799466E+03  0.45955172338E+03 0.  0.
      99925    2    3    3    0    0 -0.34720400894E+02  0.90335267450E+02 -0.26104138208E+02  0.28167757740E+03  0.26323917793E+03 0.  0.
         25    1    3    3    0    0  0.34720400894E+02 -0.90335267450E+02  0.90905080994E+02  0.18242041726E+03  0.12509000000E+03 0.  0.
         25    1    4    4    0    0 -0.49077830289E+02  0.72113986778E+02 -0.40327218692E+01  0.15255435576E+03  0.12509000000E+03 0.  0.
         25    1    4    4    0    0  0.14357429395E+02  0.18221280672E+02 -0.22071416339E+02  0.12912322164E+03  0.12509000000E+03 0.  0.
<mgrwt>
<rscale>  2 0.45955172E+03</rscale>
<asrwt>0</asrwt>
<pdfrwt beam="1">  1       21 0.38889628E-01 0.45955172E+03</pdfrwt>
<pdfrwt beam="2">  1       21 0.29360077E-01 0.45955172E+03</pdfrwt>
<totfact> 0.65473850E+04</totfact>
</mgrwt>
</event>
<event>
 7    0  0.4732500E-002  0.4540905E+03  0.7546771E-02  0.1026509E+00
         21   -1    0    0  502  501  0.00000000000E+00  0.00000000000E+00  0.54144488974E+02  0.54144488974E+02  0.00000000000E+00 0. -1.
         21   -1    0    0  501  502 -0.00000000000E+00 -0.00000000000E+00 -0.95207366263E+03  0.95207366263E+03  0.00000000000E+00 0. -1.
      99926    2    1    2    0    0  0.17763568394E-14  0.00000000000E+00 -0.89792917366E+03  0.10062181516E+04  0.45409048406E+03 0.  0.
      99925    2    3    3    0    0 -0.13362419126E+02 -0.71170965079E+02 -0.75561378314E+03  0.80337575221E+03  0.26309038266E+03 0.  0.
         25    1    4    4    0    0 -0.27525110770E+02 -0.67176924417E+02 -0.45527767974E+03  0.47769827785E+03  0.12509000000E+03 0.  0.
         25    1    3    3    0    0  0.13362419126E+02  0.71170965079E+02 -0.14231539052E+03  0.20284239940E+03  0.12509000000E+03 0.  0.
         25    1    4    4    0    0  0.14162691644E+02 -0.39940406620E+01 -0.30033610341E+03  0.32567747436E+03  0.12509000000E+03 0.  0.
<mgrwt>
<rscale>  2 0.45409048E+03</rscale>
<asrwt>0</asrwt>
<pdfrwt beam="1">  1       21 0.79624255E-02 0.45409048E+03</pdfrwt>
<pdfrwt beam="2">  1       21 0.14001082E+00 0.45409048E+03</pdfrwt>
<totfact> 0.39203507E+04</totfact>
</mgrwt>
</event>
<event>
 7    0  0.4732500E-002  0.4529026E+03  0.7546771E-02  0.1026860E+00
         21   -1    0    0  502  501  0.00000000000E+00  0.00000000000E+00  0.32943599786E+03  0.32943599786E+03  0.00000000000E+00 0.  1.
         21   -1    0    0  501  502 -0.00000000000E+00 -0.00000000000E+00 -0.15566052885E+03  0.15566052885E+03  0.00000000000E+00 0.  1.
      99926    2    1    2    0    0  0.00000000000E+00  0.00000000000E+00  0.17377546900E+03  0.48509652671E+03  0.45290255751E+03 0.  0.
      99925    2    3    3    0    0  0.62488270203E+02 -0.90028268369E+02  0.13033940031E+03  0.31321263223E+03  0.26287624597E+03 0.  0.
         25    1    4    4    0    0  0.64285112766E+01 -0.56039062035E+02  0.97172476345E+02  0.16814190581E+03  0.12509000000E+03 0.  0.
         25    1    4    4    0    0  0.56059758927E+02 -0.33989206334E+02  0.33166923969E+02  0.14507072642E+03  0.12509000000E+03 0.  0.
         25    1    3    3    0    0 -0.62488270203E+02  0.90028268369E+02  0.43436068689E+02  0.17188389448E+03  0.12509000000E+03 0.  0.
<mgrwt>
<rscale>  2 0.45290256E+03</rscale>
<asrwt>0</asrwt>
<pdfrwt beam="1">  1       21 0.48446470E-01 0.45290256E+03</pdfrwt>
<pdfrwt beam="2">  1       21 0.22891254E-01 0.45290256E+03</pdfrwt>
<totfact> 0.67446996E+04</totfact>
</mgrwt>
</event>
<event>
 7    0  0.4732500E-002  0.3944333E+03  0.7546771E-02  0.1045724E+00
         21   -1    0    0  502  501  0.00000000000E+00  0.00000000000E+00  0.14109355036E+03  0.14109355036E+03  0.00000000000E+00 0.  1.
         21   -1    0    0  501  502 -0.00000000000E+00 -0.00000000000E+00 -0.27566393928E+03  0.27566393928E+03  0.00000000000E+00 0.  1.
      99926    2    1    2    0    0 -0.44408920985E-15  0.35527136788E-14 -0.13457038892E+03  0.41675748964E+03  0.39443328409E+03 0.  0.
      99925    2    3    3    0    0  0.25919587978E+01  0.29895170034E+02 -0.10523730747E+03  0.28481668015E+03  0.26295476981E+03 0.  0.
         25    1    4    4    0    0  0.30344295319E+01  0.44018822917E+02 -0.23463783147E+02  0.13470308739E+03  0.12509000000E+03 0.  0.
         25    1    3    3    0    0 -0.25919587978E+01 -0.29895170034E+02 -0.29333081450E+02  0.13194080949E+03  0.12509000000E+03 0.  0.
         25    1    4    4    0    0 -0.44247073411E+00 -0.14123652883E+02 -0.81773524322E+02  0.15011359276E+03  0.12509000000E+03 0.  0.
<mgrwt>
<rscale>  2 0.39443328E+03</rscale>
<asrwt>0</asrwt>
<pdfrwt beam="1">  1       21 0.20749052E-01 0.39443328E+03</pdfrwt>
<pdfrwt beam="2">  1       21 0.40538814E-01 0.39443328E+03</pdfrwt>
<totfact> 0.11951620E+05</totfact>
</mgrwt>
</event>
<event>
 7    0  0.4732500E-002  0.4326939E+03  0.7546771E-02  0.1033012E+00
         21   -1    0    0  502  501  0.00000000000E+00  0.00000000000E+00  0.98791620144E+03  0.98791620144E+03  0.00000000000E+00 0. -1.
         21   -1    0    0  501  502 -0.00000000000E+00 -0.00000000000E+00 -0.47378511827E+02  0.47378511827E+02  0.00000000000E+00 0. -1.
      99926    2    1    2    0    0 -0.17763568394E-14 -0.14210854715E-13  0.94053768961E+03  0.10352947133E+04  0.43269388456E+03 0.  0.
      99925    2    3    3    0    0  0.15345990261E+02 -0.81049833573E+02  0.69501168776E+03  0.74765761443E+03  0.26295643624E+03 0.  0.
         25    1    4    4    0    0 -0.18220994165E+02 -0.85482489178E+01  0.29851042200E+03  0.32428545656E+03  0.12509000000E+03 0.  0.
         25    1    4    4    0    0  0.33566984426E+02 -0.72501584655E+02  0.39650126575E+03  0.42337215788E+03  0.12509000000E+03 0.  0.
         25    1    3    3    0    0 -0.15345990261E+02  0.81049833573E+02  0.24552600185E+03  0.28763709883E+03  0.12509000000E+03 0.  0.
<mgrwt>
<rscale>  2 0.43269388E+03</rscale>
<asrwt>0</asrwt>
<pdfrwt beam="1">  1       21 0.14528178E+00 0.43269388E+03</pdfrwt>
<pdfrwt beam="2">  1       21 0.69674288E-02 0.43269388E+03</pdfrwt>
<totfact> 0.45193048E+04</totfact>
</mgrwt>
</event>
<event>
 7    0  0.4732500E-002  0.4403768E+03  0.7546771E-02  0.1030631E+00
         21   -1    0    0  502  501  0.00000000000E+00  0.00000000000E+00  0.50121856347E+02  0.50121856347E+02  0.00000000000E+00 0. -1.
         21   -1    0    0  501  502 -0.00000000000E+00 -0.00000000000E+00 -0.96730113952E+03  0.96730113952E+03  0.00000000000E+00 0. -1.
      99926    2    1    2    0    0 -0.35527136788E-14  0.00000000000E+00 -0.91717928317E+03  0.10174229959E+04  0.44037678758E+03 0.  0.
      99925    2    3    3    0    0 -0.80419330391E+01 -0.90213628644E+02 -0.49459369355E+03  0.56750160258E+03  0.26311969853E+03 0.  0.
         25    1    4    4    0    0  0.33838940195E+02 -0.30237745670E+02 -0.22372500882E+03  0.26030709327E+03  0.12509000000E+03 0.  0.
         25    1    3    3    0    0  0.80419330391E+01  0.90213628644E+02 -0.42258558962E+03  0.44992139328E+03  0.12509000000E+03 0.  0.
         25    1    4    4    0    0 -0.41880873234E+02 -0.59975882974E+02 -0.27086868474E+03  0.30719450931E+03  0.12509000000E+03 0.  0.
<mgrwt>
<rscale>  2 0.44037679E+03</rscale>
<asrwt>0</asrwt>
<pdfrwt beam="1">  1       21 0.73708616E-02 0.44037679E+03</pdfrwt>
<pdfrwt beam="2">  1       21 0.14225016E+00 0.44037679E+03</pdfrwt>
<totfact> 0.43224213E+04</totfact>
</mgrwt>
</event>
<event>
 7    0  0.4732500E-002  0.4552012E+03  0.7546771E-02  0.1026182E+00
         21   -1    0    0  502  501  0.00000000000E+00  0.00000000000E+00  0.10504016257E+03  0.10504016257E+03  0.00000000000E+00 0. -1.
         21   -1    0    0  501  502 -0.00000000000E+00 -0.00000000000E+00 -0.49316412419E+03  0.49316412419E+03  0.00000000000E+00 0. -1.
      99926    2    1    2    0    0  0.00000000000E+00  0.00000000000E+00 -0.38812396162E+03  0.59820428676E+03  0.45520122925E+03 0.  0.
      99925    2    3    3    0    0 -0.37423404474E+02  0.92001012457E+02 -0.17234736213E+03  0.32974247107E+03  0.26298628576E+03 0.  0.
         25    1    3    3    0    0  0.37423404474E+02 -0.92001012457E+02 -0.21577659949E+03  0.26846181569E+03  0.12509000000E+03 0.  0.
         25    1    4    4    0    0 -0.73120268174E+01  0.34826913939E+02 -0.38879594115E+02  0.13574060045E+03  0.12509000000E+03 0.  0.
         25    1    4    4    0    0 -0.30111377657E+02  0.57174098518E+02 -0.13346776801E+03  0.19400187062E+03  0.12509000000E+03 0.  0.
<mgrwt>
<rscale>  2 0.45520123E+03</rscale>
<asrwt>0</asrwt>
<pdfrwt beam="1">  1       21 0.15447083E-01 0.45520123E+03</pdfrwt>
<pdfrwt beam="2">  1       21 0.72524137E-01 0.45520123E+03</pdfrwt>
<totfact> 0.58695549E+04</totfact>
</mgrwt>
</event>
<event>
 7    0  0.4732500E-002  0.4550383E+03  0.7546771E-02  0.1026230E+00
         21   -1    0    0  502  501  0.00000000000E+00  0.00000000000E+00  0.95029911829E+02  0.95029911829E+02  0.00000000000E+00 0. -1.
         21   -1    0    0  501  502 -0.00000000000E+00 -0.00000000000E+00 -0.54472273388E+03  0.54472273388E+03  0.00000000000E+00 0. -1.
      99926    2    1    2    0    0  0.00000000000E+00 -0.14210854715E-13 -0.44969282205E+03  0.63975264571E+03  0.45503825497E+03 0.  0.
      99925    2    3    3    0    0 -0.74017318172E+02 -0.85282306806E+02 -0.27252123694E+03  0.39523492874E+03  0.26304218115E+03 0.  0.
         25    1    4    4    0    0 -0.37169049437E+02 -0.83198723684E+02 -0.16484537426E+03  0.22610853892E+03  0.12509000000E+03 0.  0.
         25    1    4    4    0    0 -0.36848268735E+02 -0.20835831219E+01 -0.10767586268E+03  0.16912638981E+03  0.12509000000E+03 0.  0.
         25    1    3    3    0    0  0.74017318172E+02  0.85282306806E+02 -0.17717158511E+03  0.24451771697E+03  0.12509000000E+03 0.  0.
<mgrwt>
<rscale>  2 0.45503825E+03</rscale>
<asrwt>0</asrwt>
<pdfrwt beam="1">  1       21 0.13974987E-01 0.45503825E+03</pdfrwt>
<pdfrwt beam="2">  1       21 0.80106284E-01 0.45503825E+03</pdfrwt>
<totfact> 0.56278740E+04</totfact>
</mgrwt>
</event>
<event>
 7    0  0.4732500E-002  0.4583206E+03  0.7546771E-02  0.1025269E+00
         21   -1    0    0  502  501  0.00000000000E+00  0.00000000000E+00  0.25750704728E+03  0.25750704728E+03  0.00000000000E+00 0.  1.
         21   -1    0    0  501  502 -0.00000000000E+00 -0.00000000000E+00 -0.20393398108E+03  0.20393398108E+03  0.00000000000E+00 0.  1.
      99926    2    1    2    0    0  0.17763568394E-14  0.00000000000E+00  0.53573066197E+02  0.46144102836E+03  0.45832057475E+03 0.  0.
      99925    2    3    3    0    0 -0.91138703034E+01 -0.10570254526E+03 -0.14229438780E+02  0.28395644175E+03  0.26300702115E+03 0.  0.
         25    1    4    4    0    0  0.12904090590E+02 -0.29487132756E+02  0.23066238265E+02  0.13120810188E+03  0.12509000000E+03 0.  0.
         25    1    4    4    0    0 -0.22017960893E+02 -0.76215412502E+02 -0.37295677045E+02  0.15274833986E+03  0.12509000000E+03 0.  0.
         25    1    3    3    0    0  0.91138703034E+01  0.10570254526E+03  0.67802504977E+02  0.17748458662E+03  0.12509000000E+03 0.  0.
<mgrwt>
<rscale>  2 0.45832057E+03</rscale>
<asrwt>0</asrwt>
<pdfrwt beam="1">  1       21 0.37868684E-01 0.45832057E+03</pdfrwt>
<pdfrwt beam="2">  1       21 0.29990291E-01 0.45832057E+03</pdfrwt>
<totfact> 0.66302350E+04</totfact>
</mgrwt>
</event>
<event>
 7    0  0.4732500E-002  0.4578186E+03  0.7546771E-02  0.1025416E+00
         21   -1    0    0  502  501  0.00000000000E+00  0.00000000000E+00  0.22398604004E+02  0.22398604004E+02  0.00000000000E+00 0.  1.
         21   -1    0    0  501  502 -0.00000000000E+00 -0.00000000000E+00 -0.23394081801E+04  0.23394081801E+04  0.00000000000E+00 0.  1.
      99926    2    1    2    0    0  0.00000000000E+00  0.00000000000E+00 -0.23170095761E+04  0.23618067841E+04  0.45781864282E+03 0.  0.
      99925    2    3    3    0    0 -0.21507650893E+02 -0.10819094465E+03 -0.16353133773E+04  0.16600054767E+04  0.26305984314E+03 0.  0.
         25    1    4    4    0    0  0.10147469109E+01 -0.12905084639E+02 -0.66778254429E+03  0.67952086464E+03  0.12509000000E+03 0.  0.
         25    1    4    4    0    0 -0.22522397804E+02 -0.95285860007E+02 -0.96753083306E+03  0.98048461209E+03  0.12509000000E+03 0.  0.
         25    1    3    3    0    0  0.21507650893E+02  0.10819094465E+03 -0.68169619874E+03  0.70180130737E+03  0.12509000000E+03 0.  0.
<mgrwt>
<rscale>  2 0.45781864E+03</rscale>
<asrwt>0</asrwt>
<pdfrwt beam="1">  1       21 0.32939107E-02 0.45781864E+03</pdfrwt>
<pdfrwt beam="2">  1       21 0.34403079E+00 0.45781864E+03</pdfrwt>
<totfact> 0.84641588E+03</totfact>
</mgrwt>
</event>
<event>
 7    0  0.4732500E-002  0.4464705E+03  0.7546771E-02  0.1028780E+00
         21   -1    0    0  502  501  0.00000000000E+00  0.00000000000E+00  0.21556037659E+04  0.21556037659E+04  0.00000000000E+00 0. -1.
         21   -1    0    0  501  502 -0.00000000000E+00 -0.00000000000E+00 -0.23118336598E+02  0.23118336598E+02  0.00000000000E+00 0. -1.
      99926    2    1    2    0    0  0.00000000000E+00 -0.17763568394E-14  0.21324854293E+04  0.21787221025E+04  0.44647048472E+03 0.  0.
      99925    2    3    3    0    0 -0.94012285783E+02  0.83631544051E+01  0.15762118320E+04  0.16007981668E+04  0.26306421165E+03 0.  0.
         25    1    3    3    0    0  0.94012285783E+02 -0.83631544051E+01  0.55627359735E+03  0.57792393568E+03  0.12509000000E+03 0.  0.
         25    1    4    4    0    0 -0.32905185392E+02  0.94727632151E+01  0.54434129751E+03  0.55957791302E+03  0.12509000000E+03 0.  0.
         25    1    4    4    0    0 -0.61107100391E+02 -0.11096088100E+01  0.10318705345E+04  0.10412202538E+04  0.12509000000E+03 0.  0.
<mgrwt>
<rscale>  2 0.44647048E+03</rscale>
<asrwt>0</asrwt>
<pdfrwt beam="1">  1       21 0.31700042E+00 0.44647048E+03</pdfrwt>
<pdfrwt beam="2">  1       21 0.33997569E-02 0.44647048E+03</pdfrwt>
<totfact> 0.11765598E+04</totfact>
</mgrwt>
</event>
<event>
 7    0  0.4732500E-002  0.4509975E+03  0.7546771E-02  0.1027425E+00
         21   -1    0    0  502  501  0.00000000000E+00  0.00000000000E+00  0.28559154253E+03  0.28559154253E+03  0.00000000000E+00 0. -1.
         21   -1    0    0  501  502 -0.00000000000E+00 -0.00000000000E+00 -0.17805036053E+03  0.17805036053E+03  0.00000000000E+00 0. -1.
      99926    2    1    2    0    0 -0.35527136788E-14  0.71054273576E-14  0.10754118200E+03  0.46364190307E+03  0.45099745948E+03 0.  0.
      99925    2    3    3    0    0  0.14517300904E+02  0.35859235172E+02  0.17312968554E+03  0.31719738569E+03  0.26295181441E+03 0.  0.
         25    1    3    3    0    0 -0.14517300904E+02 -0.35859235172E+02 -0.65588503540E+02  0.14644451738E+03  0.12509000000E+03 0.  0.
         25    1    4    4    0    0 -0.22079585973E+02 -0.93540432669E+01  0.92458922085E+02  0.15738858477E+03  0.12509000000E+03 0.  0.
         25    1    4    4    0    0  0.36596886877E+02  0.45213278439E+02  0.80670763455E+02  0.15980880092E+03  0.12509000000E+03 0.  0.
<mgrwt>
<rscale>  2 0.45099746E+03</rscale>
<asrwt>0</asrwt>
<pdfrwt beam="1">  1       21 0.41998757E-01 0.45099746E+03</pdfrwt>
<pdfrwt beam="2">  1       21 0.26183876E-01 0.45099746E+03</pdfrwt>
<totfact> 0.70111393E+04</totfact>
</mgrwt>
</event>
<event>
 7    0  0.4732500E-002  0.4667054E+03  0.7546771E-02  0.1022854E+00
         21   -1    0    0  502  501  0.00000000000E+00  0.00000000000E+00  0.29068182097E+03  0.29068182097E+03  0.00000000000E+00 0.  1.
         21   -1    0    0  501  502 -0.00000000000E+00 -0.00000000000E+00 -0.18733021474E+03  0.18733021474E+03  0.00000000000E+00 0.  1.
      99926    2    1    2    0    0  0.14210854715E-13  0.00000000000E+00  0.10335160623E+03  0.47801203572E+03  0.46670542291E+03 0.  0.
      99925    2    3    3    0    0 -0.88670467228E+02 -0.51866516478E+02 -0.69326042307E+01  0.28214804600E+03  0.26269159022E+03 0.  0.
         25    1    4    4    0    0 -0.33053226408E+02 -0.44286082478E+02  0.30313923500E+02  0.14007217759E+03  0.12509000000E+03 0.  0.
         25    1    3    3    0    0  0.88670467228E+02  0.51866516478E+02  0.11028421046E+03  0.19586398972E+03  0.12509000000E+03 0.  0.
         25    1    4    4    0    0 -0.55617240820E+02 -0.75804339993E+01 -0.37246527730E+02  0.14207586841E+03  0.12509000000E+03 0.  0.
<mgrwt>
<rscale>  2 0.46670542E+03</rscale>
<asrwt>0</asrwt>
<pdfrwt beam="1">  1       21 0.42747327E-01 0.46670542E+03</pdfrwt>
<pdfrwt beam="2">  1       21 0.27548561E-01 0.46670542E+03</pdfrwt>
<totfact> 0.60980660E+04</totfact>
</mgrwt>
</event>
<event>
 7    0  0.4732500E-002  0.4425524E+03  0.7546771E-02  0.1029967E+00
         21   -1    0    0  502  501  0.00000000000E+00  0.00000000000E+00  0.11577469547E+04  0.11577469547E+04  0.00000000000E+00 0.  1.
         21   -1    0    0  501  502 -0.00000000000E+00 -0.00000000000E+00 -0.42291769201E+02  0.42291769201E+02  0.00000000000E+00 0.  1.
      99926    2    1    2    0    0  0.00000000000E+00  0.00000000000E+00  0.11154551855E+04  0.12000387239E+04  0.44255244661E+03 0.  0.
      99925    2    3    3    0    0 -0.95514771053E+02  0.16612428709E+02  0.78683341085E+03  0.83529384984E+03  0.26307784945E+03 0.  0.
         25    1    4    4    0    0 -0.58265072187E+02  0.50187110433E+01  0.28580481710E+03  0.31741441000E+03  0.12509000000E+03 0.  0.
         25    1    4    4    0    0 -0.37249698866E+02  0.11593717666E+02  0.50102859375E+03  0.51787943984E+03  0.12509000000E+03 0.  0.
         25    1    3    3    0    0  0.95514771053E+02 -0.16612428709E+02  0.32862177460E+03  0.36474487401E+03  0.12509000000E+03 0.  0.
<mgrwt>
<rscale>  2 0.44255245E+03</rscale>
<asrwt>0</asrwt>
<pdfrwt beam="1">  1       21 0.17025688E+00 0.44255245E+03</pdfrwt>
<pdfrwt beam="2">  1       21 0.62193786E-02 0.44255245E+03</pdfrwt>
<totfact> 0.35471390E+04</totfact>
</mgrwt>
</event>
<event>
 7    0  0.4732500E-002  0.4542924E+03  0.7546771E-02  0.1026450E+00
         21   -1    0    0  502  501  0.00000000000E+00  0.00000000000E+00  0.13891412710E+04  0.13891412710E+04  0.00000000000E+00 0. -1.
         21   -1    0    0  501  502 -0.00000000000E+00 -0.00000000000E+00 -0.37141936433E+02  0.37141936433E+02  0.00000000000E+00 0. -1.
      99926    2    1    2    0    0 -0.35527136788E-14  0.00000000000E+00  0.13519993346E+04  0.14262832074E+04  0.45429240268E+03 0.  0.
      99925    2    3    3    0    0 -0.31720403702E+02  0.10430015345E+03  0.74853587633E+03  0.80042351106E+03  0.26170046404E+03 0.  0.
         25    1    4    4    0    0 -0.40953883608E+02  0.73551980460E+02  0.46564344306E+03  0.48944707434E+03  0.12509000000E+03 0.  0.
         25    1    4    4    0    0  0.92334799062E+01  0.30748172992E+02  0.28289243327E+03  0.31097643672E+03  0.12509000000E+03 0.  0.
         25    1    3    3    0    0  0.31720403702E+02 -0.10430015345E+03  0.60346345823E+03  0.62585969637E+03  0.12509000000E+03 0.  0.
<mgrwt>
<rscale>  2 0.45429240E+03</rscale>
<asrwt>0</asrwt>
<pdfrwt beam="1">  1       21 0.20428545E+00 0.45429240E+03</pdfrwt>
<pdfrwt beam="2">  1       21 0.54620504E-02 0.45429240E+03</pdfrwt>
<totfact> 0.25781429E+04</totfact>
</mgrwt>
</event>
<event>
 7    0  0.4732500E-002  0.4565612E+03  0.7546771E-02  0.1025783E+00
         21   -1    0    0  502  501  0.00000000000E+00  0.00000000000E+00  0.30710568974E+02  0.30710568974E+02  0.00000000000E+00 0. -1.
         21   -1    0    0  501  502 -0.00000000000E+00 -0.00000000000E+00 -0.16968764372E+04  0.16968764372E+04  0.00000000000E+00 0. -1.
      99926    2    1    2    0    0  0.00000000000E+00  0.00000000000E+00 -0.16661658682E+04  0.17275870062E+04  0.45656123736E+03 0.  0.
      99925    2    3    3    0    0 -0.73084410887E+02 -0.76292273818E+02 -0.87865187676E+03  0.92323158907E+03  0.26299354436E+03 0.  0.
         25    1    4    4    0    0 -0.51258307678E+02 -0.12676613478E+02 -0.52127707739E+03  0.53867003828E+03  0.12509000000E+03 0.  0.
         25    1    3    3    0    0  0.73084410887E+02  0.76292273818E+02 -0.78751399146E+03  0.80435541710E+03  0.12509000000E+03 0.  0.
         25    1    4    4    0    0 -0.21826103209E+02 -0.63615660340E+02 -0.35737479937E+03  0.38456155079E+03  0.12509000000E+03 0.  0.
<mgrwt>
<rscale>  2 0.45656124E+03</rscale>
<asrwt>0</asrwt>
<pdfrwt beam="1">  1       21 0.45162617E-02 0.45656124E+03</pdfrwt>
<pdfrwt beam="2">  1       21 0.24954057E+00 0.45656124E+03</pdfrwt>
<totfact> 0.18468412E+04</totfact>
</mgrwt>
</event>
<event>
 7    0  0.4732500E-002  0.4553707E+03  0.7546771E-02  0.1026132E+00
         21   -1    0    0  502  501  0.00000000000E+00  0.00000000000E+00  0.25652446802E+03  0.25652446802E+03  0.00000000000E+00 0. -1.
         21   -1    0    0  501  502 -0.00000000000E+00 -0.00000000000E+00 -0.20208839423E+03  0.20208839423E+03  0.00000000000E+00 0. -1.
      99926    2    1    2    0    0 -0.35527136788E-14  0.00000000000E+00  0.54436073788E+02  0.45861286224E+03  0.45537069656E+03 0.  0.
      99925    2    3    3    0    0 -0.26288722675E+02 -0.46357817696E+02 -0.66661807234E+02  0.27653499679E+03  0.26303547993E+03 0.  0.
         25    1    3    3    0    0  0.26288722675E+02  0.46357817696E+02  0.12109788102E+03  0.18207786546E+03  0.12509000000E+03 0.  0.
         25    1    4    4    0    0 -0.94225223689E+01 -0.56369807177E+02 -0.59107377531E+02  0.14969144687E+03  0.12509000000E+03 0.  0.
         25    1    4    4    0    0 -0.16866200306E+02  0.10011989481E+02 -0.75544297032E+01  0.12684354991E+03  0.12509000000E+03 0.  0.
<mgrwt>
<rscale>  2 0.45537070E+03</rscale>
<asrwt>0</asrwt>
<pdfrwt beam="1">  1       21 0.37724186E-01 0.45537070E+03</pdfrwt>
<pdfrwt beam="2">  1       21 0.29718882E-01 0.45537070E+03</pdfrwt>
<totfact> 0.68080233E+04</totfact>
</mgrwt>
</event>
<event>
 7    0  0.4732500E-002  0.4549478E+03  0.7546771E-02  0.1026257E+00
         21   -1    0    0  502  501  0.00000000000E+00  0.00000000000E+00  0.41953950176E+02  0.41953950176E+02  0.00000000000E+00 0.  1.
         21   -1    0    0  501  502 -0.00000000000E+00 -0.00000000000E+00 -0.12333611391E+04  0.12333611391E+04  0.00000000000E+00 0.  1.
      99926    2    1    2    0    0 -0.14210854715E-13  0.00000000000E+00 -0.11914071890E+04  0.12753150893E+04  0.45494778505E+03 0.  0.
      99925    2    3    3    0    0 -0.69631516508E+02  0.69568870875E+02 -0.90586733465E+03  0.94840700990E+03  0.26304344233E+03 0.  0.
         25    1    3    3    0    0  0.69631516508E+02 -0.69568870875E+02 -0.28553985431E+03  0.32690807941E+03  0.12509000000E+03 0.  0.
         25    1    4    4    0    0 -0.64932431407E+02  0.55650553796E+02 -0.56671585361E+03  0.58662387577E+03  0.12509000000E+03 0.  0.
         25    1    4    4    0    0 -0.46990851012E+01  0.13918317079E+02 -0.33915148103E+03  0.36178313413E+03  0.12509000000E+03 0.  0.
<mgrwt>
<rscale>  2 0.45494779E+03</rscale>
<asrwt>0</asrwt>
<pdfrwt beam="1">  1       21 0.61696978E-02 0.45494779E+03</pdfrwt>
<pdfrwt beam="2">  1       21 0.18137666E+00 0.45494779E+03</pdfrwt>
<totfact> 0.29852284E+04</totfact>
</mgrwt>
</event>
<event>
 7    0  0.4732500E-002  0.4553632E+03  0.7546771E-02  0.1026135E+00
         21   -1    0    0  502  501  0.00000000000E+00  0.00000000000E+00  0.76975544615E+02  0.76975544615E+02  0.00000000000E+00 0.  1.
         21   -1    0    0  501  502 -0.00000000000E+00 -0.00000000000E+00 -0.67344643748E+03  0.67344643748E+03  0.00000000000E+00 0.  1.
      99926    2    1    2    0    0 -0.35527136788E-14 -0.35527136788E-14 -0.59647089287E+03  0.75042198210E+03  0.45536317943E+03 0.  0.
      99925    2    3    3    0    0 -0.22804688612E+02 -0.26765541335E+02 -0.55317026533E+03  0.61345884665E+03  0.26286491981E+03 0.  0.
         25    1    4    4    0    0 -0.44342846816E+02 -0.28356703534E+02 -0.32808090075E+03  0.35504221754E+03  0.12509000000E+03 0.  0.
         25    1    3    3    0    0  0.22804688612E+02  0.26765541335E+02 -0.43300627541E+02  0.13696313545E+03  0.12509000000E+03 0.  0.
         25    1    4    4    0    0  0.21538158204E+02  0.15911621990E+01 -0.22508936458E+03  0.25841662911E+03  0.12509000000E+03 0.  0.
<mgrwt>
<rscale>  2 0.45536318E+03</rscale>
<asrwt>0</asrwt>
<pdfrwt beam="1">  1       21 0.11319932E-01 0.45536318E+03</pdfrwt>
<pdfrwt beam="2">  1       21 0.99036247E-01 0.45536318E+03</pdfrwt>
<totfact> 0.50106219E+04</totfact>
</mgrwt>
</event>
<event>
 7    0  0.4732500E-002  0.4518992E+03  0.7546771E-02  0.1027157E+00
         21   -1    0    0  502  501  0.00000000000E+00  0.00000000000E+00  0.11523230507E+04  0.11523230507E+04  0.00000000000E+00 0. -1.
         21   -1    0    0  501  502 -0.00000000000E+00 -0.00000000000E+00 -0.44304610955E+02  0.44304610955E+02  0.00000000000E+00 0. -1.
      99926    2    1    2    0    0  0.00000000000E+00  0.00000000000E+00  0.11080184397E+04  0.11966276617E+04  0.45189921202E+03 0.  0.
      99925    2    3    3    0    0 -0.95517187393E+02 -0.42359127908E+02  0.79196993026E+03  0.84102676564E+03  0.26304338286E+03 0.  0.
         25    1    3    3    0    0  0.95517187393E+02  0.42359127908E+02  0.31604850948E+03  0.35560089602E+03  0.12509000000E+03 0.  0.
         25    1    4    4    0    0 -0.18059060112E+02 -0.47890574799E+02  0.35074715511E+03  0.37588656763E+03  0.12509000000E+03 0.  0.
         25    1    4    4    0    0 -0.77458127281E+02  0.55314468907E+01  0.44122277516E+03  0.46514019801E+03  0.12509000000E+03 0.  0.
<mgrwt>
<rscale>  2 0.45189921E+03</rscale>
<asrwt>0</asrwt>
<pdfrwt beam="1">  1       21 0.16945925E+00 0.45189921E+03</pdfrwt>
<pdfrwt beam="2">  1       21 0.65153847E-02 0.45189921E+03</pdfrwt>
<totfact> 0.33054271E+04</totfact>
</mgrwt>
</event>
<event>
 7    0  0.4732500E-002  0.4620741E+03  0.7546771E-02  0.1024181E+00
         21   -1    0    0  502  501  0.00000000000E+00  0.00000000000E+00  0.16120748040E+04  0.16120748040E+04  0.00000000000E+00 0.  1.
         21   -1    0    0  501  502 -0.00000000000E+00 -0.00000000000E+00 -0.33111433771E+02  0.33111433771E+02  0.00000000000E+00 0.  1.
      99926    2    1    2    0    0  0.14210854715E-13 -0.35527136788E-14  0.15789633702E+04  0.16451862378E+04  0.46207405513E+03 0.  0.
      99925    2    3    3    0    0 -0.11600986903E+03  0.24231121999E+02  0.92846874702E+03  0.97225518640E+03  0.26302185515E+03 0.  0.
         25    1    4    4    0    0 -0.61326012945E+02 -0.19739483009E+02  0.54408365829E+03  0.56198315132E+03  0.12509000000E+03 0.  0.
         25    1    3    3    0    0  0.11600986903E+03 -0.24231121999E+02  0.65049462321E+03  0.67293105138E+03  0.12509000000E+03 0.  0.
         25    1    4    4    0    0 -0.54683856089E+02  0.43970605007E+02  0.38438508874E+03  0.41027203507E+03  0.12509000000E+03 0.  0.
<mgrwt>
<rscale>  2 0.46207406E+03</rscale>
<asrwt>0</asrwt>
<pdfrwt beam="1">  1       21 0.23706977E+00 0.46207406E+03</pdfrwt>
<pdfrwt beam="2">  1       21 0.48693296E-02 0.46207406E+03</pdfrwt>
<totfact> 0.19343233E+04</totfact>
</mgrwt>
</event>
<event>
 7    0  0.4732500E-002  0.4568826E+03  0.7546771E-02  0.1025689E+00
         21   -1    0    0  502  501  0.00000000000E+00  0.00000000000E+00  0.33426679028E+02  0.33426679028E+02  0.00000000000E+00 0.  1.
         21   -1    0    0  501  502 -0.00000000000E+00 -0.00000000000E+00 -0.15611909059E+04  0.15611909059E+04  0.00000000000E+00 0.  1.
      99926    2    1    2    0    0  0.00000000000E+00  0.14210854715E-13 -0.15277642268E+04  0.15946175849E+04  0.45688259898E+03 0.  0.
      99925    2    3    3    0    0 -0.65114281931E+02 -0.94322487036E+02 -0.98644253905E+03  0.10273316966E+04  0.26306830054E+03 0.  0.
         25    1    4    4    0    0 -0.93138240383E+01 -0.40791169395E+02 -0.34769359702E+03  0.37187230648E+03  0.12509000000E+03 0.  0.
         25    1    4    4    0    0 -0.55800457893E+02 -0.53531317641E+02 -0.63874894203E+03  0.65545939013E+03  0.12509000000E+03 0.  0.
         25    1    3    3    0    0  0.65114281931E+02  0.94322487036E+02 -0.54132168780E+03  0.56728588829E+03  0.12509000000E+03 0.  0.
<mgrwt>
<rscale>  2 0.45688260E+03</rscale>
<asrwt>0</asrwt>
<pdfrwt beam="1">  1       21 0.49156891E-02 0.45688260E+03</pdfrwt>
<pdfrwt beam="2">  1       21 0.22958685E+00 0.45688260E+03</pdfrwt>
<totfact> 0.21239502E+04</totfact>
</mgrwt>
</event>
<event>
 7    0  0.4732500E-002  0.4324909E+03  0.7546771E-02  0.1033076E+00
         21   -1    0    0  502  501  0.00000000000E+00  0.00000000000E+00  0.10214718948E+03  0.10214718948E+03  0.00000000000E+00 0. -1.
         21   -1    0    0  501  502 -0.00000000000E+00 -0.00000000000E+00 -0.45779135010E+03  0.45779135010E+03  0.00000000000E+00 0. -1.
      99926    2    1    2    0    0  0.00000000000E+00  0.00000000000E+00 -0.35564416062E+03  0.55993853958E+03  0.43249092375E+03 0.  0.
      99925    2    3    3    0    0 -0.19772590648E+02  0.41940392596E+02 -0.12773140889E+03  0.29585203410E+03  0.26279870889E+03 0.  0.
         25    1    4    4    0    0 -0.16053140747E+02  0.61026398011E+02 -0.72219933734E+02  0.15762344848E+03  0.12509000000E+03 0.  0.
         25    1    4    4    0    0 -0.37194499010E+01 -0.19086005414E+02 -0.55511475152E+02  0.13822858562E+03  0.12509000000E+03 0.  0.
         25    1    3    3    0    0  0.19772590648E+02 -0.41940392596E+02 -0.22791275173E+03  0.26408650547E+03  0.12509000000E+03 0.  0.
<mgrwt>
<rscale>  2 0.43249092E+03</rscale>
<asrwt>0</asrwt>
<pdfrwt beam="1">  1       21 0.15021645E-01 0.43249092E+03</pdfrwt>
<pdfrwt beam="2">  1       21 0.67322257E-01 0.43249092E+03</pdfrwt>
<totfact> 0.73442451E+04</totfact>
</mgrwt>
</event>
<event>
 6    0  0.4732500E-002  0.4659458E+03  0.7546771E-02  0.1023071E+00
         21   -1    0    0  502  501  0.00000000000E+00  0.00000000000E+00  0.51840011677E+02  0.51840011677E+02  0.00000000000E+00 0. -1.
         21   -1    0    0  501  502 -0.00000000000E+00 -0.00000000000E+00 -0.10469977328E+04  0.10469977328E+04  0.00000000000E+00 0. -1.
      99926    2    1    2    0    0  0.00000000000E+00  0.00000000000E+00 -0.99515772111E+03  0.10988377445E+04  0.46594581098E+03 0.  0.
         25    1    3    3    0    0 -0.71825226789E+02 -0.10060154240E+02 -0.61638096930E+03  0.63311379493E+03  0.12509000000E+03 0.  0.
         25    1    3    3    0    0  0.10841404110E+02  0.24186737319E+02 -0.21689386719E+03  0.25177964976E+03  0.12509000000E+03 0.  0.
         25    1    3    3    0    0  0.60983822678E+02 -0.14126583079E+02 -0.16188288461E+03  0.21394429978E+03  0.12509000000E+03 0.  0.
<mgrwt>
<rscale>  2 0.46594581E+03</rscale>
<asrwt>0</asrwt>
<pdfrwt beam="1">  1       21 0.76235309E-02 0.46594581E+03</pdfrwt>
<pdfrwt beam="2">  1       21 0.15397026E+00 0.46594581E+03</pdfrwt>
<totfact> 0.32655673E+04</totfact>
</mgrwt>
</event>
<event>
 7    0  0.4732500E-002  0.4461190E+03  0.7546771E-02  0.1028886E+00
         21   -1    0    0  502  501  0.00000000000E+00  0.00000000000E+00  0.51919861766E+03  0.51919861766E+03  0.00000000000E+00 0.  1.
         21   -1    0    0  501  502 -0.00000000000E+00 -0.00000000000E+00 -0.95831429936E+02  0.95831429936E+02  0.00000000000E+00 0.  1.
      99926    2    1    2    0    0  0.00000000000E+00  0.35527136788E-14  0.42336718772E+03  0.61503004759E+03  0.44611902426E+03 0.  0.
      99925    2    3    3    0    0  0.10180707164E+03  0.23002163509E+02  0.27818994488E+03  0.39681520094E+03  0.26301878051E+03 0.  0.
         25    1    3    3    0    0 -0.10180707164E+03 -0.23002163509E+02  0.14517724284E+03  0.21821484665E+03  0.12509000000E+03 0.  0.
         25    1    4    4    0    0  0.21926214850E+02 -0.19722310949E+02  0.12750609241E+03  0.18103878079E+03  0.12509000000E+03 0.  0.
         25    1    4    4    0    0  0.79880856787E+02  0.42724474459E+02  0.15068385248E+03  0.21577642016E+03  0.12509000000E+03 0.  0.
<mgrwt>
<rscale>  2 0.44611902E+03</rscale>
<asrwt>0</asrwt>
<pdfrwt beam="1">  1       21 0.76352736E-01 0.44611902E+03</pdfrwt>
<pdfrwt beam="2">  1       21 0.14092858E-01 0.44611902E+03</pdfrwt>
<totfact> 0.61997717E+04</totfact>
</mgrwt>
</event>
<event>
 7    0  0.4732500E-002  0.4459088E+03  0.7546771E-02  0.1028949E+00
         21   -1    0    0  502  501  0.00000000000E+00  0.00000000000E+00  0.55614701830E+02  0.55614701830E+02  0.00000000000E+00 0. -1.
         21   -1    0    0  501  502 -0.00000000000E+00 -0.00000000000E+00 -0.89380428209E+03  0.89380428209E+03  0.00000000000E+00 0. -1.
      99926    2    1    2    0    0  0.00000000000E+00  0.00000000000E+00 -0.83818958026E+03  0.94941898392E+03  0.44590877382E+03 0.  0.
      99925    2    3    3    0    0  0.97081834455E+02  0.32458865288E+02 -0.48872248535E+03  0.56438233755E+03  0.26305758827E+03 0.  0.
         25    1    3    3    0    0 -0.97081834455E+02 -0.32458865288E+02 -0.34946709491E+03  0.38503664636E+03  0.12509000000E+03 0.  0.
         25    1    4    4    0    0  0.45705948882E+02 -0.24226221586E+02 -0.24715015485E+03  0.28179185708E+03  0.12509000000E+03 0.  0.
         25    1    4    4    0    0  0.51375885573E+02  0.56685086874E+02 -0.24157233050E+03  0.28259048047E+03  0.12509000000E+03 0.  0.
<mgrwt>
<rscale>  2 0.44590877E+03</rscale>
<asrwt>0</asrwt>
<pdfrwt beam="1">  1       21 0.81786325E-02 0.44590877E+03</pdfrwt>
<pdfrwt beam="2">  1       21 0.13144181E+00 0.44590877E+03</pdfrwt>
<totfact> 0.44225667E+04</totfact>
</mgrwt>
</event>
<event>
 7    0  0.4732500E-002  0.4490320E+03  0.7546771E-02  0.1028011E+00
         21   -1    0    0  502  501  0.00000000000E+00  0.00000000000E+00  0.41405643268E+02  0.41405643268E+02  0.00000000000E+00 0. -1.
         21   -1    0    0  501  502 -0.00000000000E+00 -0.00000000000E+00 -0.12174051183E+04  0.12174051183E+04  0.00000000000E+00 0. -1.
      99926    2    1    2    0    0  0.35527136788E-14  0.71054273576E-14 -0.11759994750E+04  0.12588107616E+04  0.44903203468E+03 0.  0.
      99925    2    3    3    0    0  0.31869039776E+02  0.54321942252E+02 -0.98827901398E+03  0.10246036124E+04  0.26296510043E+03 0.  0.
         25    1    4    4    0    0  0.55419515545E+02  0.34370975038E+02 -0.48557917275E+03  0.50565534481E+03  0.12509000000E+03 0.  0.
         25    1    3    3    0    0 -0.31869039776E+02 -0.54321942252E+02 -0.18772046107E+03  0.23420714914E+03  0.12509000000E+03 0.  0.
         25    1    4    4    0    0 -0.23550475769E+02  0.19950967214E+02 -0.50269984123E+03  0.51894826763E+03  0.12509000000E+03 0.  0.
<mgrwt>
<rscale>  2 0.44903203E+03</rscale>
<asrwt>0</asrwt>
<pdfrwt beam="1">  1       21 0.60890658E-02 0.44903203E+03</pdfrwt>
<pdfrwt beam="2">  1       21 0.17903015E+00 0.44903203E+03</pdfrwt>
<totfact> 0.31785615E+04</totfact>
</mgrwt>
</event>
<event>
 7    0  0.4732500E-002  0.4162766E+03  0.7546771E-02  0.1038285E+00
         21   -1    0    0  502  501  0.00000000000E+00  0.00000000000E+00  0.71933049806E+03  0.71933049806E+03  0.00000000000E+00 0.  1.
         21   -1    0    0  501  502 -0.00000000000E+00 -0.00000000000E+00 -0.60224814371E+02  0.60224814371E+02  0.00000000000E+00 0.  1.
      99926    2    1    2    0    0  0.71054273576E-14  0.00000000000E+00  0.65910568368E+03  0.77955531243E+03  0.41627657017E+03 0.  0.
      99925    2    3    3    0    0 -0.39434511318E+02  0.69931549207E+01  0.54116461344E+03  0.60302885818E+03  0.26302220450E+03 0.  0.
         25    1    4    4    0    0 -0.37543413416E+02  0.19855426908E+01  0.35867163384E+03  0.38171494507E+03  0.12509000000E+03 0.  0.
         25    1    3    3    0    0  0.39434511318E+02 -0.69931549207E+01  0.11794107024E+03  0.17652645425E+03  0.12509000000E+03 0.  0.
         25    1    4    4    0    0 -0.18910979027E+01  0.50076122299E+01  0.18249297960E+03  0.22131391311E+03  0.12509000000E+03 0.  0.
<mgrwt>
<rscale>  2 0.41627657E+03</rscale>
<asrwt>0</asrwt>
<pdfrwt beam="1">  1       21 0.10578389E+00 0.41627657E+03</pdfrwt>
<pdfrwt beam="2">  1       21 0.88565908E-02 0.41627657E+03</pdfrwt>
<totfact> 0.66904290E+04</totfact>
</mgrwt>
</event>
<event>
 7    0  0.4732500E-002  0.4621201E+03  0.7546771E-02  0.1024168E+00
         21   -1    0    0  502  501  0.00000000000E+00  0.00000000000E+00  0.23126684020E+04  0.23126684020E+04  0.00000000000E+00 0.  1.
         21   -1    0    0  501  502 -0.00000000000E+00 -0.00000000000E+00 -0.23085345260E+02  0.23085345260E+02  0.00000000000E+00 0.  1.
      99926    2    1    2    0    0 -0.35527136788E-14  0.14210854715E-13  0.22895830567E+04  0.23357537473E+04  0.46212010791E+03 0.  0.
      99925    2    3    3    0    0  0.24270839773E+02 -0.82735867073E+02  0.10124944683E+04  0.10496600228E+04  0.26307188692E+03 0.  0.
         25    1    4    4    0    0  0.75742739551E+01 -0.34654287057E+02  0.34606376294E+03  0.36968354759E+03  0.12509000000E+03 0.  0.
         25    1    4    4    0    0  0.16696565818E+02 -0.48081580016E+02  0.66643070536E+03  0.67997647518E+03  0.12509000000E+03 0.  0.
         25    1    3    3    0    0 -0.24270839773E+02  0.82735867073E+02  0.12770885885E+04  0.12860937245E+04  0.12509000000E+03 0.  0.
<mgrwt>
<rscale>  2 0.46212011E+03</rscale>
<asrwt>0</asrwt>
<pdfrwt beam="1">  1       21 0.34009814E+00 0.46212011E+03</pdfrwt>
<pdfrwt beam="2">  1       21 0.33949053E-02 0.46212011E+03</pdfrwt>
<totfact> 0.84827903E+03</totfact>
</mgrwt>
</event>
<event>
 7    0  0.4732500E-002  0.4501566E+03  0.7546771E-02  0.1027675E+00
         21   -1    0    0  502  501  0.00000000000E+00  0.00000000000E+00  0.14140775638E+03  0.14140775638E+03  0.00000000000E+00 0. -1.
         21   -1    0    0  501  502 -0.00000000000E+00 -0.00000000000E+00 -0.35825643043E+03  0.35825643043E+03  0.00000000000E+00 0. -1.
      99926    2    1    2    0    0  0.00000000000E+00  0.00000000000E+00 -0.21684867405E+03  0.49966418681E+03  0.45015658625E+03 0.  0.
      99925    2    3    3    0    0  0.30717407821E+02  0.32156353348E+02 -0.27383172200E+02  0.26831537074E+03  0.26318379481E+03 0.  0.
         25    1    4    4    0    0  0.34706340728E+02 -0.13327566548E+02 -0.34441143959E+02  0.13496612395E+03  0.12509000000E+03 0.  0.
         25    1    4    4    0    0 -0.39889329072E+01  0.45483919896E+02  0.70579717587E+01  0.13334924679E+03  0.12509000000E+03 0.  0.
         25    1    3    3    0    0 -0.30717407821E+02 -0.32156353348E+02 -0.18946550185E+03  0.23134881607E+03  0.12509000000E+03 0.  0.
<mgrwt>
<rscale>  2 0.45015659E+03</rscale>
<asrwt>0</asrwt>
<pdfrwt beam="1">  1       21 0.20795259E-01 0.45015659E+03</pdfrwt>
<pdfrwt beam="2">  1       21 0.52684769E-01 0.45015659E+03</pdfrwt>
<totfact> 0.67866122E+04</totfact>
</mgrwt>
</event>
<event>
 7    0  0.4732500E-002  0.4451494E+03  0.7546771E-02  0.1029178E+00
         21   -1    0    0  502  501  0.00000000000E+00  0.00000000000E+00  0.45058184035E+02  0.45058184035E+02  0.00000000000E+00 0.  1.
         21   -1    0    0  501  502 -0.00000000000E+00 -0.00000000000E+00 -0.10994563562E+04  0.10994563562E+04  0.00000000000E+00 0.  1.
      99926    2    1    2    0    0  0.71054273576E-14  0.35527136788E-14 -0.10543981721E+04  0.11445145402E+04  0.44514944383E+03 0.  0.
      99925    2    3    3    0    0 -0.56359655268E+02 -0.27058113637E+02 -0.45694644046E+03  0.53091480745E+03  0.26298656062E+03 0.  0.
         25    1    4    4    0    0 -0.46184988192E+02 -0.11867524853E+02 -0.16294006540E+03  0.21088116154E+03  0.12509000000E+03 0.  0.
         25    1    3    3    0    0  0.56359655268E+02  0.27058113637E+02 -0.59745173168E+03  0.61359973276E+03  0.12509000000E+03 0.  0.
         25    1    4    4    0    0 -0.10174667077E+02 -0.15190588784E+02 -0.29400637507E+03  0.32003364591E+03  0.12509000000E+03 0.  0.
<mgrwt>
<rscale>  2 0.44514944E+03</rscale>
<asrwt>0</asrwt>
<pdfrwt beam="1">  1       21 0.66262040E-02 0.44514944E+03</pdfrwt>
<pdfrwt beam="2">  1       21 0.16168475E+00 0.44514944E+03</pdfrwt>
<totfact> 0.36704107E+04</totfact>
</mgrwt>
</event>
<event>
 7    0  0.4732500E-002  0.4488449E+03  0.7546771E-02  0.1028067E+00
         21   -1    0    0  502  501  0.00000000000E+00  0.00000000000E+00  0.65238295502E+02  0.65238295502E+02  0.00000000000E+00 0.  1.
         21   -1    0    0  501  502 -0.00000000000E+00 -0.00000000000E+00 -0.77202253137E+03  0.77202253137E+03  0.00000000000E+00 0.  1.
      99926    2    1    2    0    0  0.00000000000E+00  0.00000000000E+00 -0.70678423587E+03  0.83726082687E+03  0.44884489096E+03 0.  0.
      99925    2    3    3    0    0 -0.29264618341E+02  0.88613722000E+02 -0.34876970890E+03  0.44670901310E+03  0.26305859220E+03 0.  0.
         25    1    4    4    0    0 -0.17496422904E+02  0.19695998272E+01 -0.16588336428E+03  0.20850612169E+03  0.12509000000E+03 0.  0.
         25    1    3    3    0    0  0.29264618341E+02 -0.88613722000E+02 -0.35801452697E+03  0.39055181376E+03  0.12509000000E+03 0.  0.
         25    1    4    4    0    0 -0.11768195437E+02  0.86644122173E+02 -0.18288634462E+03  0.23820289142E+03  0.12509000000E+03 0.  0.
<mgrwt>
<rscale>  2 0.44884489E+03</rscale>
<asrwt>0</asrwt>
<pdfrwt beam="1">  1       21 0.95938678E-02 0.44884489E+03</pdfrwt>
<pdfrwt beam="2">  1       21 0.11353272E+00 0.44884489E+03</pdfrwt>
<totfact> 0.48305497E+04</totfact>
</mgrwt>
</event>
<event>
 7    0  0.4732500E-002  0.4488653E+03  0.7546771E-02  0.1028061E+00
         21   -1    0    0  502  501  0.00000000000E+00  0.00000000000E+00  0.77885214172E+03  0.77885214172E+03  0.00000000000E+00 0. -1.
         21   -1    0    0  501  502 -0.00000000000E+00 -0.00000000000E+00 -0.64672102158E+02  0.64672102158E+02  0.00000000000E+00 0. -1.
      99926    2    1    2    0    0  0.00000000000E+00  0.00000000000E+00  0.71418003956E+03  0.84352424388E+03  0.44886525941E+03 0.  0.
      99925    2    3    3    0    0  0.13917306607E+02 -0.10021252195E+03  0.51930459899E+03  0.59081851300E+03  0.26296959482E+03 0.  0.
         25    1    4    4    0    0  0.13827757502E+02 -0.38217795002E+02  0.33280755660E+03  0.35785497699E+03  0.12509000000E+03 0.  0.
         25    1    4    4    0    0  0.89549104863E-01 -0.61994726947E+02  0.18649704240E+03  0.23296353601E+03  0.12509000000E+03 0.  0.
         25    1    3    3    0    0 -0.13917306607E+02  0.10021252195E+03  0.19487544057E+03  0.25270573087E+03  0.12509000000E+03 0.  0.
<mgrwt>
<rscale>  2 0.44886526E+03</rscale>
<asrwt>0</asrwt>
<pdfrwt beam="1">  1       21 0.11453707E+00 0.44886526E+03</pdfrwt>
<pdfrwt beam="2">  1       21 0.95106037E-02 0.44886526E+03</pdfrwt>
<totfact> 0.47999161E+04</totfact>
</mgrwt>
</event>
<event>
 7    0  0.4732500E-002  0.4587507E+03  0.7546771E-02  0.1025144E+00
         21   -1    0    0  502  501  0.00000000000E+00  0.00000000000E+00  0.34604661306E+03  0.34604661306E+03  0.00000000000E+00 0. -1.
         21   -1    0    0  501  502 -0.00000000000E+00 -0.00000000000E+00 -0.15204035090E+03  0.15204035090E+03  0.00000000000E+00 0. -1.
      99926    2    1    2    0    0  0.00000000000E+00  0.00000000000E+00  0.19400626216E+03  0.49808696396E+03  0.45875068819E+03 0.  0.
      99925    2    3    3    0    0 -0.26314901487E+02 -0.10151002393E+03  0.66335754188E+02  0.29085756039E+03  0.26306069481E+03 0.  0.
         25    1    3    3    0    0  0.26314901487E+02  0.10151002393E+03  0.12767050797E+03  0.20722940357E+03  0.12509000000E+03 0.  0.
         25    1    4    4    0    0 -0.50917887820E+01 -0.53488562810E+02 -0.76065609274E+01  0.13635365977E+03  0.12509000000E+03 0.  0.
         25    1    4    4    0    0 -0.21223112705E+02 -0.48021461120E+02  0.73942315115E+02  0.15450390062E+03  0.12509000000E+03 0.  0.
<mgrwt>
<rscale>  2 0.45875069E+03</rscale>
<asrwt>0</asrwt>
<pdfrwt beam="1">  1       21 0.50889208E-01 0.45875069E+03</pdfrwt>
<pdfrwt beam="2">  1       21 0.22358875E-01 0.45875069E+03</pdfrwt>
<totfact> 0.63493600E+04</totfact>
</mgrwt>
</event>
<event>
 7    0  0.4732500E-002  0.4356862E+03  0.7546771E-02  0.1032079E+00
         21   -1    0    0  502  501  0.00000000000E+00  0.00000000000E+00  0.14373273415E+03  0.14373273415E+03  0.00000000000E+00 0. -1.
         21   -1    0    0  501  502 -0.00000000000E+00 -0.00000000000E+00 -0.33016561618E+03  0.33016561618E+03  0.00000000000E+00 0. -1.
      99926    2    1    2    0    0  0.00000000000E+00 -0.71054273576E-14 -0.18643288203E+03  0.47389835033E+03  0.43568615647E+03 0.  0.
      99925    2    3    3    0    0  0.67978522589E+02 -0.62337114252E+02 -0.13819852222E+03  0.31116833800E+03  0.26309676487E+03 0.  0.
         25    1    3    3    0    0 -0.67978522589E+02  0.62337114252E+02 -0.48234359809E+02  0.16273001233E+03  0.12509000000E+03 0.  0.
         25    1    4    4    0    0  0.26251569674E+01 -0.35688722159E+02 -0.36335101475E+02  0.13508635770E+03  0.12509000000E+03 0.  0.
         25    1    4    4    0    0  0.65353365621E+02 -0.26648392094E+02 -0.10186342074E+03  0.17608198029E+03  0.12509000000E+03 0.  0.
<mgrwt>
<rscale>  2 0.43568616E+03</rscale>
<asrwt>0</asrwt>
<pdfrwt beam="1">  1       21 0.21137167E-01 0.43568616E+03</pdfrwt>
<pdfrwt beam="2">  1       21 0.48553766E-01 0.43568616E+03</pdfrwt>
<totfact> 0.78510931E+04</totfact>
</mgrwt>
</event>
<event>
 7    0  0.4732500E-002  0.4427465E+03  0.7546771E-02  0.1029907E+00
         21   -1    0    0  502  501  0.00000000000E+00  0.00000000000E+00  0.44362103649E+03  0.44362103649E+03  0.00000000000E+00 0.  1.
         21   -1    0    0  501  502 -0.00000000000E+00 -0.00000000000E+00 -0.11046839907E+03  0.11046839907E+03  0.00000000000E+00 0.  1.
      99926    2    1    2    0    0  0.00000000000E+00  0.00000000000E+00  0.33315263742E+03  0.55408943555E+03  0.44274645427E+03 0.  0.
      99925    2    3    3    0    0  0.89354090420E+02  0.47399967901E+02  0.20553430013E+03  0.34874860049E+03  0.26296449833E+03 0.  0.
         25    1    4    4    0    0  0.13335463367E+02  0.38407076292E+02  0.12492209269E+03  0.18140004254E+03  0.12509000000E+03 0.  0.
         25    1    3    3    0    0 -0.89354090420E+02 -0.47399967901E+02  0.12761833729E+03  0.20534083506E+03  0.12509000000E+03 0.  0.
         25    1    4    4    0    0  0.76018627053E+02  0.89928916088E+01  0.80612207438E+02  0.16734855795E+03  0.12509000000E+03 0.  0.
<mgrwt>
<rscale>  2 0.44274645E+03</rscale>
<asrwt>0</asrwt>
<pdfrwt beam="1">  1       21 0.65238387E-01 0.44274645E+03</pdfrwt>
<pdfrwt beam="2">  1       21 0.16245353E-01 0.44274645E+03</pdfrwt>
<totfact> 0.67948091E+04</totfact>
</mgrwt>
</event>
<event>
 7    0  0.4732500E-002  0.4242822E+03  0.7546771E-02  0.1035682E+00
         21   -1    0    0  502  501  0.00000000000E+00  0.00000000000E+00  0.32392309937E+03  0.32392309937E+03  0.00000000000E+00 0. -1.
         21   -1    0    0  501  502 -0.00000000000E+00 -0.00000000000E+00 -0.13893370581E+03  0.13893370581E+03  0.00000000000E+00 0. -1.
      99926    2    1    2    0    0  0.00000000000E+00  0.00000000000E+00  0.18498939356E+03  0.46285680518E+03  0.42428215419E+03 0.  0.
      99925    2    3    3    0    0  0.24021041905E+02 -0.24465708621E+02  0.20007208504E+03  0.33227894704E+03  0.26306820044E+03 0.  0.
         25    1    4    4    0    0 -0.18329570929E+02 -0.33290772457E+02  0.12077288666E+03  0.17798271532E+03  0.12509000000E+03 0.  0.
         25    1    4    4    0    0  0.42350612833E+02  0.88250638365E+01  0.79299198378E+02  0.15429623172E+03  0.12509000000E+03 0.  0.
         25    1    3    3    0    0 -0.24021041905E+02  0.24465708621E+02 -0.15082691480E+02  0.13057785813E+03  0.12509000000E+03 0.  0.
<mgrwt>
<rscale>  2 0.42428215E+03</rscale>
<asrwt>0</asrwt>
<pdfrwt beam="1">  1       21 0.47635750E-01 0.42428215E+03</pdfrwt>
<pdfrwt beam="2">  1       21 0.20431427E-01 0.42428215E+03</pdfrwt>
<totfact> 0.87417070E+04</totfact>
</mgrwt>
</event>
<event>
 7    0  0.4732500E-002  0.4528669E+03  0.7546771E-02  0.1026871E+00
         21   -1    0    0  502  501  0.00000000000E+00  0.00000000000E+00  0.13186390382E+03  0.13186390382E+03  0.00000000000E+00 0.  1.
         21   -1    0    0  501  502 -0.00000000000E+00 -0.00000000000E+00 -0.38882602706E+03  0.38882602706E+03  0.00000000000E+00 0.  1.
      99926    2    1    2    0    0  0.14210854715E-13 -0.71054273576E-14 -0.25696212324E+03  0.52068993089E+03  0.45286694663E+03 0.  0.
      99925    2    3    3    0    0 -0.97305409993E+02  0.40704709936E+02 -0.20245349425E+03  0.34822568834E+03  0.26296101699E+03 0.  0.
         25    1    4    4    0    0 -0.11848824709E+02  0.95441483067E+00 -0.10509461766E+03  0.16380992740E+03  0.12509000000E+03 0.  0.
         25    1    3    3    0    0  0.97305409993E+02 -0.40704709936E+02 -0.54508628985E+02  0.17246424255E+03  0.12509000000E+03 0.  0.
         25    1    4    4    0    0 -0.85456585285E+02  0.39750295105E+02 -0.97358876595E+02  0.18441576094E+03  0.12509000000E+03 0.  0.
<mgrwt>
<rscale>  2 0.45286695E+03</rscale>
<asrwt>0</asrwt>
<pdfrwt beam="1">  1       21 0.19391751E-01 0.45286695E+03</pdfrwt>
<pdfrwt beam="2">  1       21 0.57180298E-01 0.45286695E+03</pdfrwt>
<totfact> 0.64932114E+04</totfact>
</mgrwt>
</event>
<event>
 7    0  0.4732500E-002  0.4679734E+03  0.7546771E-02  0.1022494E+00
         21   -1    0    0  502  501  0.00000000000E+00  0.00000000000E+00  0.12406034330E+04  0.12406034330E+04  0.00000000000E+00 0. -1.
         21   -1    0    0  501  502 -0.00000000000E+00 -0.00000000000E+00 -0.44131564776E+02  0.44131564776E+02  0.00000000000E+00 0. -1.
      99926    2    1    2    0    0  0.00000000000E+00  0.00000000000E+00  0.11964718682E+04  0.12847349978E+04  0.46797337858E+03 0.  0.
      99925    2    3    3    0    0  0.13992702201E+02 -0.10893080263E+03  0.58091230358E+03  0.64706517631E+03  0.26300669663E+03 0.  0.
         25    1    3    3    0    0 -0.13992702201E+02  0.10893080263E+03  0.61555956467E+03  0.63766982148E+03  0.12509000000E+03 0.  0.
         25    1    4    4    0    0  0.26611324551E+02 -0.53702131854E+02  0.37243485427E+03  0.39742585514E+03  0.12509000000E+03 0.  0.
         25    1    4    4    0    0 -0.12618622350E+02 -0.55228670772E+02  0.20847744930E+03  0.24963932117E+03  0.12509000000E+03 0.  0.
<mgrwt>
<rscale>  2 0.46797338E+03</rscale>
<asrwt>0</asrwt>
<pdfrwt beam="1">  1       21 0.18244166E+00 0.46797338E+03</pdfrwt>
<pdfrwt beam="2">  1       21 0.64899368E-02 0.46797338E+03</pdfrwt>
<totfact> 0.26756276E+04</totfact>
</mgrwt>
</event>
<event>
 7    0  0.4732500E-002  0.4543232E+03  0.7546771E-02  0.1026441E+00
         21   -1    0    0  502  501  0.00000000000E+00  0.00000000000E+00  0.10815845002E+04  0.10815845002E+04  0.00000000000E+00 0.  1.
         21   -1    0    0  501  502 -0.00000000000E+00 -0.00000000000E+00 -0.47710004957E+02  0.47710004957E+02  0.00000000000E+00 0.  1.
      99926    2    1    2    0    0  0.00000000000E+00  0.00000000000E+00  0.10338744952E+04  0.11292945051E+04  0.45432324116E+03 0.  0.
      99925    2    3    3    0    0 -0.55275186809E+02 -0.66377551792E+02  0.47139679327E+03  0.54663680206E+03  0.26293636303E+03 0.  0.
         25    1    4    4    0    0 -0.46695141833E+02 -0.61091301156E+02  0.30215502966E+03  0.33594308059E+03  0.12509000000E+03 0.  0.
         25    1    3    3    0    0  0.55275186809E+02  0.66377551792E+02  0.56247770196E+03  0.58265770308E+03  0.12509000000E+03 0.  0.
         25    1    4    4    0    0 -0.85800449761E+01 -0.52862506357E+01  0.16924176362E+03  0.21069372148E+03  0.12509000000E+03 0.  0.
<mgrwt>
<rscale>  2 0.45432324E+03</rscale>
<asrwt>0</asrwt>
<pdfrwt beam="1">  1       21 0.15905653E+00 0.45432324E+03</pdfrwt>
<pdfrwt beam="2">  1       21 0.70161779E-02 0.45432324E+03</pdfrwt>
<totfact> 0.34663763E+04</totfact>
</mgrwt>
</event>
<event>
 7    0  0.4732500E-002  0.4552678E+03  0.7546771E-02  0.1026163E+00
         21   -1    0    0  502  501  0.00000000000E+00  0.00000000000E+00  0.51610073438E+02  0.51610073438E+02  0.00000000000E+00 0. -1.
         21   -1    0    0  501  502 -0.00000000000E+00 -0.00000000000E+00 -0.10040130572E+04  0.10040130572E+04  0.00000000000E+00 0. -1.
      99926    2    1    2    0    0  0.00000000000E+00 -0.88817841970E-15 -0.95240298376E+03  0.10556231306E+04  0.45526777885E+03 0.  0.
      99925    2    3    3    0    0 -0.72092268777E+02 -0.74502978622E+01 -0.39679728820E+03  0.48151686940E+03  0.26297833644E+03 0.  0.
         25    1    3    3    0    0  0.72092268777E+02  0.74502978622E+01 -0.55560569556E+03  0.57410626124E+03  0.12509000000E+03 0.  0.
         25    1    4    4    0    0 -0.63838740864E+02 -0.23942191305E+02 -0.25025907464E+03  0.28796827238E+03  0.12509000000E+03 0.  0.
         25    1    4    4    0    0 -0.82535279122E+01  0.16491893443E+02 -0.14653821356E+03  0.19354859701E+03  0.12509000000E+03 0.  0.
<mgrwt>
<rscale>  2 0.45526778E+03</rscale>
<asrwt>0</asrwt>
<pdfrwt beam="1">  1       21 0.75897177E-02 0.45526778E+03</pdfrwt>
<pdfrwt beam="2">  1       21 0.14764896E+00 0.45526778E+03</pdfrwt>
<totfact> 0.36994358E+04</totfact>
</mgrwt>
</event>
<event>
 7    0  0.4732500E-002  0.4461290E+03  0.7546771E-02  0.1028883E+00
         21   -1    0    0  502  501  0.00000000000E+00  0.00000000000E+00  0.54364730655E+02  0.54364730655E+02  0.00000000000E+00 0. -1.
         21   -1    0    0  501  502 -0.00000000000E+00 -0.00000000000E+00 -0.91525810990E+03  0.91525810990E+03  0.00000000000E+00 0. -1.
      99926    2    1    2    0    0  0.00000000000E+00  0.00000000000E+00 -0.86089337925E+03  0.96962284056E+03  0.44612895277E+03 0.  0.
      99925    2    3    3    0    0  0.52728622115E+02 -0.89299479361E+02 -0.51726047821E+03  0.58950998445E+03  0.26307587279E+03 0.  0.
         25    1    4    4    0    0 -0.64588668013E+01 -0.67276078153E+02 -0.27749984947E+03  0.31180356350E+03  0.12509000000E+03 0.  0.
         25    1    4    4    0    0  0.59187488917E+02 -0.22023401208E+02 -0.23976062874E+03  0.27770642095E+03  0.12509000000E+03 0.  0.
         25    1    3    3    0    0 -0.52728622115E+02  0.89299479361E+02 -0.34363290104E+03  0.38011285611E+03  0.12509000000E+03 0.  0.
<mgrwt>
<rscale>  2 0.44612895E+03</rscale>
<asrwt>0</asrwt>
<pdfrwt beam="1">  1       21 0.79948147E-02 0.44612895E+03</pdfrwt>
<pdfrwt beam="2">  1       21 0.13459676E+00 0.44612895E+03</pdfrwt>
<totfact> 0.43280877E+04</totfact>
</mgrwt>
</event>
<event>
 7    0  0.4732500E-002  0.4514790E+03  0.7546771E-02  0.1027282E+00
         21   -1    0    0  502  501  0.00000000000E+00  0.00000000000E+00  0.52678742045E+03  0.52678742045E+03  0.00000000000E+00 0. -1.
         21   -1    0    0  501  502 -0.00000000000E+00 -0.00000000000E+00 -0.96734122911E+02  0.96734122911E+02  0.00000000000E+00 0. -1.
      99926    2    1    2    0    0  0.14210854715E-13 -0.35527136788E-14  0.43005329754E+03  0.62352154337E+03  0.45147898768E+03 0.  0.
      99925    2    3    3    0    0 -0.10062180431E+03  0.17410488128E+02  0.21735353201E+03  0.35646991735E+03  0.26343950254E+03 0.  0.
         25    1    4    4    0    0 -0.93527013633E+02  0.97358531723E+01  0.10980622448E+03  0.19117270765E+03  0.12509000000E+03 0.  0.
         25    1    3    3    0    0  0.10062180431E+03 -0.17410488128E+02  0.21269976554E+03  0.26705162602E+03  0.12509000000E+03 0.  0.
         25    1    4    4    0    0 -0.70947906814E+01  0.76746349556E+01  0.10754730753E+03  0.16529720970E+03  0.12509000000E+03 0.  0.
<mgrwt>
<rscale>  2 0.45147899E+03</rscale>
<asrwt>0</asrwt>
<pdfrwt beam="1">  1       21 0.77468737E-01 0.45147899E+03</pdfrwt>
<pdfrwt beam="2">  1       21 0.14225607E-01 0.45147899E+03</pdfrwt>
<totfact> 0.58873003E+04</totfact>
</mgrwt>
</event>
<event>
 7    0  0.4732500E-002  0.4466846E+03  0.7546771E-02  0.1028715E+00
         21   -1    0    0  502  501  0.00000000000E+00  0.00000000000E+00  0.13605808579E+03  0.13605808579E+03  0.00000000000E+00 0.  1.
         21   -1    0    0  501  502 -0.00000000000E+00 -0.00000000000E+00 -0.36662115476E+03  0.36662115476E+03  0.00000000000E+00 0.  1.
      99926    2    1    2    0    0  0.14210854715E-13  0.00000000000E+00 -0.23056306896E+03  0.50267924055E+03  0.44668455325E+03 0.  0.
      99925    2    3    3    0    0  0.92184772300E+02  0.28517636252E+02 -0.19343843441E+03  0.34039235133E+03  0.26293960736E+03 0.  0.
         25    1    3    3    0    0 -0.92184772300E+02 -0.28517636252E+02 -0.37124634556E+02  0.16228688922E+03  0.12509000000E+03 0.  0.
         25    1    4    4    0    0  0.67020219590E+02 -0.22913713248E+01 -0.62814945480E+02  0.15521013399E+03  0.12509000000E+03 0.  0.
         25    1    4    4    0    0  0.25164552709E+02  0.30809007577E+02 -0.13062348893E+03  0.18518221735E+03  0.12509000000E+03 0.  0.
<mgrwt>
<rscale>  2 0.44668455E+03</rscale>
<asrwt>0</asrwt>
<pdfrwt beam="1">  1       21 0.20008542E-01 0.44668455E+03</pdfrwt>
<pdfrwt beam="2">  1       21 0.53914876E-01 0.44668455E+03</pdfrwt>
<totfact> 0.69561653E+04</totfact>
</mgrwt>
</event>
<event>
 7    0  0.4732500E-002  0.4652246E+03  0.7546771E-02  0.1023277E+00
         21   -1    0    0  502  501  0.00000000000E+00  0.00000000000E+00  0.69441288411E+02  0.69441288411E+02  0.00000000000E+00 0.  1.
         21   -1    0    0  501  502 -0.00000000000E+00 -0.00000000000E+00 -0.77919746049E+03  0.77919746049E+03  0.00000000000E+00 0.  1.
      99926    2    1    2    0    0 -0.14210854715E-13 -0.26645352591E-14 -0.70975617208E+03  0.84863874890E+03  0.46522457193E+03 0.  0.
      99925    2    3    3    0    0  0.11545168240E+03  0.72598769535E+01 -0.51575807422E+03  0.59044392546E+03  0.26312704384E+03 0.  0.
         25    1    4    4    0    0  0.97049458451E+02 -0.14356669555E+02 -0.29606408742E+03  0.33604488288E+03  0.12509000000E+03 0.  0.
         25    1    4    4    0    0  0.18402223946E+02  0.21616546508E+02 -0.21969398680E+03  0.25439904258E+03  0.12509000000E+03 0.  0.
         25    1    3    3    0    0 -0.11545168240E+03 -0.72598769535E+01 -0.19399809786E+03  0.25819482345E+03  0.12509000000E+03 0.  0.
<mgrwt>
<rscale>  2 0.46522457E+03</rscale>
<asrwt>0</asrwt>
<pdfrwt beam="1">  1       21 0.10211955E-01 0.46522457E+03</pdfrwt>
<pdfrwt beam="2">  1       21 0.11458786E+00 0.46522457E+03</pdfrwt>
<totfact> 0.42026577E+04</totfact>
</mgrwt>
</event>
<event>
 7    0  0.4732500E-002  0.4578974E+03  0.7546771E-02  0.1025393E+00
         21   -1    0    0  502  501  0.00000000000E+00  0.00000000000E+00  0.76386131108E+02  0.76386131108E+02  0.00000000000E+00 0.  1.
         21   -1    0    0  501  502 -0.00000000000E+00 -0.00000000000E+00 -0.68621745624E+03  0.68621745624E+03  0.00000000000E+00 0.  1.
      99926    2    1    2    0    0  0.35527136788E-14  0.00000000000E+00 -0.60983132513E+03  0.76260358734E+03  0.45789735348E+03 0.  0.
      99925    2    3    3    0    0 -0.12163597800E+02 -0.60557552187E+02 -0.54602344549E+03  0.60919523085E+03  0.26298679820E+03 0.  0.
         25    1    4    4    0    0  0.29592658976E+02 -0.43138029171E+02 -0.24317726594E+03  0.27842289022E+03  0.12509000000E+03 0.  0.
         25    1    3    3    0    0  0.12163597800E+02  0.60557552187E+02 -0.63807879643E+02  0.15340835650E+03  0.12509000000E+03 0.  0.
         25    1    4    4    0    0 -0.41756256775E+02 -0.17419523016E+02 -0.30284617954E+03  0.33077234063E+03  0.12509000000E+03 0.  0.
<mgrwt>
<rscale>  2 0.45789735E+03</rscale>
<asrwt>0</asrwt>
<pdfrwt beam="1">  1       21 0.11233256E-01 0.45789735E+03</pdfrwt>
<pdfrwt beam="2">  1       21 0.10091432E+00 0.45789735E+03</pdfrwt>
<totfact> 0.48513528E+04</totfact>
</mgrwt>
</event>
<event>
 7    0  0.4732500E-002  0.4520346E+03  0.7546771E-02  0.1027117E+00
         21   -1    0    0  502  501  0.00000000000E+00  0.00000000000E+00  0.89730717128E+03  0.89730717128E+03  0.00000000000E+00 0. -1.
         21   -1    0    0  501  502 -0.00000000000E+00 -0.00000000000E+00 -0.56930125756E+02  0.56930125756E+02  0.00000000000E+00 0. -1.
      99926    2    1    2    0    0  0.00000000000E+00  0.00000000000E+00  0.84037704553E+03  0.95423729704E+03  0.45203455666E+03 0.  0.
      99925    2    3    3    0    0  0.73665988248E+02 -0.64190766011E+02  0.64236681766E+03  0.70046044485E+03  0.26165353830E+03 0.  0.
         25    1    4    4    0    0  0.76126835634E+02 -0.29503203342E+02  0.33466790967E+03  0.36649127135E+03  0.12509000000E+03 0.  0.
         25    1    4    4    0    0 -0.24608473855E+01 -0.34687562669E+02  0.30769890799E+03  0.33396917350E+03  0.12509000000E+03 0.  0.
         25    1    3    3    0    0 -0.73665988248E+02  0.64190766011E+02  0.19801022787E+03  0.25377685219E+03  0.12509000000E+03 0.  0.
<mgrwt>
<rscale>  2 0.45203456E+03</rscale>
<asrwt>0</asrwt>
<pdfrwt beam="1">  1       21 0.13195693E+00 0.45203456E+03</pdfrwt>
<pdfrwt beam="2">  1       21 0.83720779E-02 0.45203456E+03</pdfrwt>
<totfact> 0.41933656E+04</totfact>
</mgrwt>
</event>
<event>
 7    0  0.4732500E-002  0.4585197E+03  0.7546771E-02  0.1025211E+00
         21   -1    0    0  502  501  0.00000000000E+00  0.00000000000E+00  0.19028436343E+03  0.19028436343E+03  0.00000000000E+00 0. -1.
         21   -1    0    0  501  502 -0.00000000000E+00 -0.00000000000E+00 -0.27621864656E+03  0.27621864656E+03  0.00000000000E+00 0. -1.
      99926    2    1    2    0    0 -0.14210854715E-13  0.00000000000E+00 -0.85934283126E+02  0.46650301000E+03  0.45851974583E+03 0.  0.
      99925    2    3    3    0    0  0.76944025194E+02  0.48572154213E+02  0.20039338574E+02  0.27899953330E+03  0.26298199047E+03 0.  0.
         25    1    4    4    0    0  0.76487351128E+02  0.31394630904E+02  0.27785237143E+02  0.15249742698E+03  0.12509000000E+03 0.  0.
         25    1    4    4    0    0  0.45667406658E+00  0.17177523308E+02 -0.77458985698E+01  0.12650210632E+03  0.12509000000E+03 0.  0.
         25    1    3    3    0    0 -0.76944025194E+02 -0.48572154213E+02 -0.10597362170E+03  0.18750347670E+03  0.12509000000E+03 0.  0.
<mgrwt>
<rscale>  2 0.45851975E+03</rscale>
<asrwt>0</asrwt>
<pdfrwt beam="1">  1       21 0.27982995E-01 0.45851975E+03</pdfrwt>
<pdfrwt beam="2">  1       21 0.40620389E-01 0.45851975E+03</pdfrwt>
<totfact> 0.65837276E+04</totfact>
</mgrwt>
</event>
<event>
 7    0  0.4732500E-002  0.4454684E+03  0.7546771E-02  0.1029082E+00
         21   -1    0    0  502  501  0.00000000000E+00  0.00000000000E+00  0.60061570909E+03  0.60061570909E+03  0.00000000000E+00 0. -1.
         21   -1    0    0  501  502 -0.00000000000E+00 -0.00000000000E+00 -0.82599428847E+02  0.82599428847E+02  0.00000000000E+00 0. -1.
      99926    2    1    2    0    0 -0.71054273576E-14  0.00000000000E+00  0.51801628024E+03  0.68321513794E+03  0.44546835815E+03 0.  0.
      99925    2    3    3    0    0 -0.39790828283E+02  0.88675754986E+02  0.27839305528E+03  0.39596351030E+03  0.26426825145E+03 0.  0.
         25    1    4    4    0    0 -0.45401485613E+02  0.95872964837E+01  0.13582310508E+03  0.19039074327E+03  0.12509000000E+03 0.  0.
         25    1    4    4    0    0  0.56106573303E+01  0.79088458502E+02  0.14256995020E+03  0.20557276703E+03  0.12509000000E+03 0.  0.
         25    1    3    3    0    0  0.39790828283E+02 -0.88675754986E+02  0.23962322497E+03  0.28725162764E+03  0.12509000000E+03 0.  0.
<mgrwt>
<rscale>  2 0.44546836E+03</rscale>
<asrwt>0</asrwt>
<pdfrwt beam="1">  1       21 0.88325838E-01 0.44546836E+03</pdfrwt>
<pdfrwt beam="2">  1       21 0.12146975E-01 0.44546836E+03</pdfrwt>
<totfact> 0.58060035E+04</totfact>
</mgrwt>
</event>
<event>
 7    0  0.4732500E-002  0.4560130E+03  0.7546771E-02  0.1025944E+00
         21   -1    0    0  502  501  0.00000000000E+00  0.00000000000E+00  0.31247521835E+02  0.31247521835E+02  0.00000000000E+00 0.  1.
         21   -1    0    0  501  502 -0.00000000000E+00 -0.00000000000E+00 -0.16637149435E+04  0.16637149435E+04  0.00000000000E+00 0.  1.
      99926    2    1    2    0    0  0.14210854715E-13  0.00000000000E+00 -0.16324674217E+04  0.16949624653E+04  0.45601302185E+03 0.  0.
      99925    2    3    3    0    0 -0.64790294615E+02  0.78738192641E+02 -0.83582443439E+03  0.88213711968E+03  0.26299415877E+03 0.  0.
         25    1    3    3    0    0  0.64790294615E+02 -0.78738192641E+02 -0.79664298729E+03  0.81282534567E+03  0.12509000000E+03 0.  0.
         25    1    4    4    0    0 -0.49974959440E+02  0.52259535298E+02 -0.33098938553E+03  0.36115098925E+03  0.12509000000E+03 0.  0.
         25    1    4    4    0    0 -0.14815335175E+02  0.26478657343E+02 -0.50483504885E+03  0.52098613043E+03  0.12509000000E+03 0.  0.
<mgrwt>
<rscale>  2 0.45601302E+03</rscale>
<asrwt>0</asrwt>
<pdfrwt beam="1">  1       21 0.45952234E-02 0.45601302E+03</pdfrwt>
<pdfrwt beam="2">  1       21 0.24466398E+00 0.45601302E+03</pdfrwt>
<totfact> 0.19215033E+04</totfact>
</mgrwt>
</event>
<event>
 7    0  0.4732500E-002  0.4572256E+03  0.7546771E-02  0.1025589E+00
         21   -1    0    0  502  501  0.00000000000E+00  0.00000000000E+00  0.20783497386E+04  0.20783497386E+04  0.00000000000E+00 0.  1.
         21   -1    0    0  501  502 -0.00000000000E+00 -0.00000000000E+00 -0.25146783158E+02  0.25146783158E+02  0.00000000000E+00 0.  1.
      99926    2    1    2    0    0  0.00000000000E+00 -0.17763568394E-14  0.20532029554E+04  0.21034965217E+04  0.45722559072E+03 0.  0.
      99925    2    3    3    0    0 -0.10009270734E+03 -0.10085842514E+02  0.10312897928E+04  0.10690525676E+04  0.26304843889E+03 0.  0.
         25    1    4    4    0    0 -0.20204851738E+02  0.24501271663E+02  0.49144578190E+03  0.50810925301E+03  0.12509000000E+03 0.  0.
         25    1    3    3    0    0  0.10009270734E+03  0.10085842514E+02  0.10219131626E+04  0.10344439542E+04  0.12509000000E+03 0.  0.
         25    1    4    4    0    0 -0.79887855605E+02 -0.34587114176E+02  0.53984401089E+03  0.56094331454E+03  0.12509000000E+03 0.  0.
<mgrwt>
<rscale>  2 0.45722559E+03</rscale>
<asrwt>0</asrwt>
<pdfrwt beam="1">  1       21 0.30563955E+00 0.45722559E+03</pdfrwt>
<pdfrwt beam="2">  1       21 0.36980578E-02 0.45722559E+03</pdfrwt>
<totfact> 0.11885895E+04</totfact>
</mgrwt>
</event>
<event>
 7    0  0.4732500E-002  0.4416347E+03  0.7546771E-02  0.1030246E+00
         21   -1    0    0  502  501  0.00000000000E+00  0.00000000000E+00  0.16290118025E+04  0.16290118025E+04  0.00000000000E+00 0. -1.
         21   -1    0    0  501  502 -0.00000000000E+00 -0.00000000000E+00 -0.29932447385E+02  0.29932447385E+02  0.00000000000E+00 0. -1.
      99926    2    1    2    0    0  0.88817841970E-15 -0.71054273576E-14  0.15990793552E+04  0.16589442499E+04  0.44163473626E+03 0.  0.
      99925    2    3    3    0    0 -0.28152001932E+01  0.55819138969E+02  0.13308673019E+04  0.13577650421E+04  0.26304834649E+03 0.  0.
         25    1    4    4    0    0  0.11379435777E+02 -0.11316265990E+02  0.64554726836E+03  0.65775096596E+03  0.12509000000E+03 0.  0.
         25    1    4    4    0    0 -0.14194635971E+02  0.67135404959E+02  0.68532003356E+03  0.70001407614E+03  0.12509000000E+03 0.  0.
         25    1    3    3    0    0  0.28152001932E+01 -0.55819138969E+02  0.26821205323E+03  0.30117920782E+03  0.12509000000E+03 0.  0.
<mgrwt>
<rscale>  2 0.44163474E+03</rscale>
<asrwt>0</asrwt>
<pdfrwt beam="1">  1       21 0.23956050E+00 0.44163474E+03</pdfrwt>
<pdfrwt beam="2">  1       21 0.44018316E-02 0.44163474E+03</pdfrwt>
<totfact> 0.22362169E+04</totfact>
</mgrwt>
</event>
<event>
 7    0  0.4732500E-002  0.4940211E+03  0.7546771E-02  0.1015351E+00
         21   -1    0    0  502  501  0.00000000000E+00  0.00000000000E+00  0.51179519549E+02  0.51179519549E+02  0.00000000000E+00 0. -1.
         21   -1    0    0  501  502 -0.00000000000E+00 -0.00000000000E+00 -0.11921608113E+04  0.11921608113E+04  0.00000000000E+00 0. -1.
      99926    2    1    2    0    0  0.00000000000E+00 -0.31086244690E-14 -0.11409812917E+04  0.12433403308E+04  0.49402112322E+03 0.  0.
      99925    2    3    3    0    0  0.69301656282E+02 -0.22309508380E+01 -0.10210617143E+04  0.10566965261E+04  0.26312131631E+03 0.  0.
         25    1    4    4    0    0  0.11830002978E+02 -0.24795934510E+02 -0.39348010769E+03  0.41379812782E+03  0.12509000000E+03 0.  0.
         25    1    4    4    0    0  0.57471653304E+02  0.22564983672E+02 -0.62758160661E+03  0.64289839825E+03  0.12509000000E+03 0.  0.
         25    1    3    3    0    0 -0.69301656282E+02  0.22309508380E+01 -0.11991957745E+03  0.18664380478E+03  0.12509000000E+03 0.  0.
<mgrwt>
<rscale>  2 0.49402112E+03</rscale>
<asrwt>0</asrwt>
<pdfrwt beam="1">  1       21 0.75263996E-02 0.49402112E+03</pdfrwt>
<pdfrwt beam="2">  1       21 0.17531777E+00 0.49402112E+03</pdfrwt>
<totfact> 0.22987301E+04</totfact>
</mgrwt>
</event>
<event>
 7    0  0.4732500E-002  0.4486708E+03  0.7546771E-02  0.1028119E+00
         21   -1    0    0  502  501  0.00000000000E+00  0.00000000000E+00  0.83752601353E+02  0.83752601353E+02  0.00000000000E+00 0. -1.
         21   -1    0    0  501  502 -0.00000000000E+00 -0.00000000000E+00 -0.60089336032E+03  0.60089336032E+03  0.00000000000E+00 0. -1.
      99926    2    1    2    0    0  0.00000000000E+00  0.00000000000E+00 -0.51714075896E+03  0.68464596167E+03  0.44867084622E+03 0.  0.
      99925    2    3    3    0    0 -0.49241862773E+02  0.95113066822E+02 -0.32381964104E+03  0.43069356600E+03  0.26299530669E+03 0.  0.
         25    1    4    4    0    0 -0.48895964349E+02  0.15404737967E+02 -0.16657630079E+03  0.21453040196E+03  0.12509000000E+03 0.  0.
         25    1    4    4    0    0 -0.34589842351E+00  0.79708328854E+02 -0.15724334025E+03  0.21616316404E+03  0.12509000000E+03 0.  0.
         25    1    3    3    0    0  0.49241862773E+02 -0.95113066822E+02 -0.19332111793E+03  0.25395239567E+03  0.12509000000E+03 0.  0.
<mgrwt>
<rscale>  2 0.44867085E+03</rscale>
<asrwt>0</asrwt>
<pdfrwt beam="1">  1       21 0.12316559E-01 0.44867085E+03</pdfrwt>
<pdfrwt beam="2">  1       21 0.88366672E-01 0.44867085E+03</pdfrwt>
<totfact> 0.56508348E+04</totfact>
</mgrwt>
</event>
<event>
 7    0  0.4732500E-002  0.4554918E+03  0.7546771E-02  0.1026097E+00
         21   -1    0    0  502  501  0.00000000000E+00  0.00000000000E+00  0.91254749862E+03  0.91254749862E+03  0.00000000000E+00 0. -1.
         21   -1    0    0  501  502 -0.00000000000E+00 -0.00000000000E+00 -0.56838895420E+02  0.56838895420E+02  0.00000000000E+00 0. -1.
      99926    2    1    2    0    0  0.00000000000E+00  0.00000000000E+00  0.85570860320E+03  0.96938639404E+03  0.45549178627E+03 0.  0.
      99925    2    3    3    0    0 -0.65411570998E+02 -0.13858557696E+02  0.34242203950E+03  0.43686283792E+03  0.26291738775E+03 0.  0.
         25    1    3    3    0    0  0.65411570998E+02  0.13858557696E+02  0.51328656370E+03  0.53252355612E+03  0.12509000000E+03 0.  0.
         25    1    4    4    0    0 -0.34843060931E+02 -0.65151401969E+01  0.23683711647E+03  0.27017737467E+03  0.12509000000E+03 0.  0.
         25    1    4    4    0    0 -0.30568510067E+02 -0.73434174989E+01  0.10558492303E+03  0.16668546325E+03  0.12509000000E+03 0.  0.
<mgrwt>
<rscale>  2 0.45549179E+03</rscale>
<asrwt>0</asrwt>
<pdfrwt beam="1">  1       21 0.13419815E+00 0.45549179E+03</pdfrwt>
<pdfrwt beam="2">  1       21 0.83586617E-02 0.45549179E+03</pdfrwt>
<totfact> 0.40210800E+04</totfact>
</mgrwt>
</event>
<event>
 7    0  0.4732500E-002  0.4542866E+03  0.7546771E-02  0.1026451E+00
         21   -1    0    0  502  501  0.00000000000E+00  0.00000000000E+00  0.10220309006E+04  0.10220309006E+04  0.00000000000E+00 0.  1.
         21   -1    0    0  501  502 -0.00000000000E+00 -0.00000000000E+00 -0.50481907766E+02  0.50481907766E+02  0.00000000000E+00 0.  1.
      99926    2    1    2    0    0  0.00000000000E+00  0.00000000000E+00  0.97154899283E+03  0.10725128084E+04  0.45428656004E+03 0.  0.
      99925    2    3    3    0    0 -0.79702164130E+02 -0.56120143395E+02  0.74602504931E+03  0.79681285794E+03  0.26240322201E+03 0.  0.
         25    1    4    4    0    0 -0.38143381781E+02 -0.63011501495E+02  0.33458501949E+03  0.36471908404E+03  0.12509000000E+03 0.  0.
         25    1    4    4    0    0 -0.41558782350E+02  0.68913580999E+01  0.41144002981E+03  0.43209377389E+03  0.12509000000E+03 0.  0.
         25    1    3    3    0    0  0.79702164130E+02  0.56120143395E+02  0.22552394352E+03  0.27569995042E+03  0.12509000000E+03 0.  0.
<mgrwt>
<rscale>  2 0.45428656E+03</rscale>
<asrwt>0</asrwt>
<pdfrwt beam="1">  1       21 0.15029865E+00 0.45428656E+03</pdfrwt>
<pdfrwt beam="2">  1       21 0.74238106E-02 0.45428656E+03</pdfrwt>
<totfact> 0.36665728E+04</totfact>
</mgrwt>
</event>
<event>
 7    0  0.4732500E-002  0.4563571E+03  0.7546771E-02  0.1025843E+00
         21   -1    0    0  502  501  0.00000000000E+00  0.00000000000E+00  0.19629206122E+03  0.19629206122E+03  0.00000000000E+00 0.  1.
         21   -1    0    0  501  502 -0.00000000000E+00 -0.00000000000E+00 -0.26524479544E+03  0.26524479544E+03  0.00000000000E+00 0.  1.
      99926    2    1    2    0    0  0.71054273576E-14  0.00000000000E+00 -0.68952734226E+02  0.46153685666E+03  0.45635708661E+03 0.  0.
      99925    2    3    3    0    0  0.51142269393E+02 -0.10217469225E+03 -0.49578845215E+02  0.29101396925E+03  0.26301305851E+03 0.  0.
         25    1    3    3    0    0 -0.51142269393E+02  0.10217469225E+03 -0.19373889011E+02  0.17052288741E+03  0.12509000000E+03 0.  0.
         25    1    4    4    0    0  0.42930551501E+02 -0.91439458705E+02 -0.23034464134E+02  0.16242629559E+03  0.12509000000E+03 0.  0.
         25    1    4    4    0    0  0.82117178921E+01 -0.10735233548E+02 -0.26544381082E+02  0.12858767366E+03  0.12509000000E+03 0.  0.
<mgrwt>
<rscale>  2 0.45635709E+03</rscale>
<asrwt>0</asrwt>
<pdfrwt beam="1">  1       21 0.28866480E-01 0.45635709E+03</pdfrwt>
<pdfrwt beam="2">  1       21 0.39006587E-01 0.45635709E+03</pdfrwt>
<totfact> 0.67337012E+04</totfact>
</mgrwt>
</event>
<event>
 7    0  0.4732500E-002  0.4407166E+03  0.7546771E-02  0.1030527E+00
         21   -1    0    0  502  501  0.00000000000E+00  0.00000000000E+00  0.22243971841E+03  0.22243971841E+03  0.00000000000E+00 0.  1.
         21   -1    0    0  501  502 -0.00000000000E+00 -0.00000000000E+00 -0.21829636367E+03  0.21829636367E+03  0.00000000000E+00 0.  1.
      99926    2    1    2    0    0  0.00000000000E+00  0.00000000000E+00  0.41433547325E+01  0.44073608208E+03  0.44071660583E+03 0.  0.
      99925    2    3    3    0    0  0.19514320218E+02 -0.44605593459E+02 -0.83794230925E+02  0.28026491728E+03  0.26297620246E+03 0.  0.
         25    1    4    4    0    0 -0.74445934802E+00  0.77263022623E+01 -0.67069410055E+02  0.14214803492E+03  0.12509000000E+03 0.  0.
         25    1    4    4    0    0  0.20258779566E+02 -0.52331895722E+02 -0.16724820870E+02  0.13811688236E+03  0.12509000000E+03 0.  0.
         25    1    3    3    0    0 -0.19514320218E+02  0.44605593459E+02  0.87937585658E+02  0.16047116480E+03  0.12509000000E+03 0.  0.
<mgrwt>
<rscale>  2 0.44071661E+03</rscale>
<asrwt>0</asrwt>
<pdfrwt beam="1">  1       21 0.32711723E-01 0.44071661E+03</pdfrwt>
<pdfrwt beam="2">  1       21 0.32102406E-01 0.44071661E+03</pdfrwt>
<totfact> 0.78136020E+04</totfact>
</mgrwt>
</event>
<event>
 7    0  0.4732500E-002  0.4520331E+03  0.7546771E-02  0.1027117E+00
         21   -1    0    0  502  501  0.00000000000E+00  0.00000000000E+00  0.30929304318E+03  0.30929304318E+03  0.00000000000E+00 0.  1.
         21   -1    0    0  501  502 -0.00000000000E+00 -0.00000000000E+00 -0.16516206446E+03  0.16516206446E+03  0.00000000000E+00 0.  1.
      99926    2    1    2    0    0 -0.71054273576E-14  0.17763568394E-14  0.14413097872E+03  0.47445510764E+03  0.45203308522E+03 0.  0.
      99925    2    3    3    0    0 -0.61596570597E+02  0.11791687460E+02 -0.43670832131E+01  0.27041500398E+03  0.26300574435E+03 0.  0.
         25    1    4    4    0    0 -0.72301973840E+01  0.10305572624E+02 -0.35231224296E+02  0.13056503302E+03  0.12509000000E+03 0.  0.
         25    1    4    4    0    0 -0.54366373213E+02  0.14861148358E+01  0.30864141083E+02  0.13984997096E+03  0.12509000000E+03 0.  0.
         25    1    3    3    0    0  0.61596570597E+02 -0.11791687460E+02  0.14849806194E+03  0.20404010366E+03  0.12509000000E+03 0.  0.
<mgrwt>
<rscale>  2 0.45203309E+03</rscale>
<asrwt>0</asrwt>
<pdfrwt beam="1">  1       21 0.45484271E-01 0.45203309E+03</pdfrwt>
<pdfrwt beam="2">  1       21 0.24288539E-01 0.45203309E+03</pdfrwt>
<totfact> 0.68709652E+04</totfact>
</mgrwt>
</event>
<event>
 7    0  0.4732500E-002  0.4480822E+03  0.7546771E-02  0.1028295E+00
         21   -1    0    0  502  501  0.00000000000E+00  0.00000000000E+00  0.48792634689E+03  0.48792634689E+03  0.00000000000E+00 0. -1.
         21   -1    0    0  501  502 -0.00000000000E+00 -0.00000000000E+00 -0.10287293136E+03  0.10287293136E+03  0.00000000000E+00 0. -1.
      99926    2    1    2    0    0  0.00000000000E+00  0.00000000000E+00  0.38505341553E+03  0.59079927825E+03  0.44808219600E+03 0.  0.
      99925    2    3    3    0    0 -0.47264905198E+02  0.84929171265E+02  0.30203753981E+03  0.41195275433E+03  0.26273838881E+03 0.  0.
         25    1    3    3    0    0  0.47264905198E+02 -0.84929171265E+02  0.83015875724E+02  0.17884652392E+03  0.12509000000E+03 0.  0.
         25    1    4    4    0    0 -0.30745032463E+02  0.49654495972E+02  0.97340612307E+02  0.16891870499E+03  0.12509000000E+03 0.  0.
         25    1    4    4    0    0 -0.16519872735E+02  0.35274675293E+02  0.20469692750E+03  0.24303404934E+03  0.12509000000E+03 0.  0.
<mgrwt>
<rscale>  2 0.44808220E+03</rscale>
<asrwt>0</asrwt>
<pdfrwt beam="1">  1       21 0.71753873E-01 0.44808220E+03</pdfrwt>
<pdfrwt beam="2">  1       21 0.15128373E-01 0.44808220E+03</pdfrwt>
<totfact> 0.62601182E+04</totfact>
</mgrwt>
</event>
<event>
 7    0  0.4732500E-002  0.4516828E+03  0.7546771E-02  0.1027221E+00
         21   -1    0    0  502  501  0.00000000000E+00  0.00000000000E+00  0.17197612578E+03  0.17197612578E+03  0.00000000000E+00 0. -1.
         21   -1    0    0  501  502 -0.00000000000E+00 -0.00000000000E+00 -0.29657801453E+03  0.29657801453E+03  0.00000000000E+00 0. -1.
      99926    2    1    2    0    0  0.00000000000E+00 -0.17763568394E-14 -0.12460188875E+03  0.46855414032E+03  0.45168279990E+03 0.  0.
      99925    2    3    3    0    0  0.83975426813E+02 -0.12410911202E+02 -0.15125508446E+03  0.31504907862E+03  0.26300554811E+03 0.  0.
         25    1    3    3    0    0 -0.83975426813E+02  0.12410911202E+02  0.26653195711E+02  0.15350506170E+03  0.12509000000E+03 0.  0.
         25    1    4    4    0    0  0.27166429919E+02 -0.25998451779E+02 -0.36760842088E+02  0.13569378033E+03  0.12509000000E+03 0.  0.
         25    1    4    4    0    0  0.56808996893E+02  0.13587540577E+02 -0.11449424238E+03  0.17935529829E+03  0.12509000000E+03 0.  0.
<mgrwt>
<rscale>  2 0.45168280E+03</rscale>
<asrwt>0</asrwt>
<pdfrwt beam="1">  1       21 0.25290607E-01 0.45168280E+03</pdfrwt>
<pdfrwt beam="2">  1       21 0.43614414E-01 0.45168280E+03</pdfrwt>
<totfact> 0.69350575E+04</totfact>
</mgrwt>
</event>
<event>
 7    0  0.4732500E-002  0.4583123E+03  0.7546771E-02  0.1025272E+00
         21   -1    0    0  502  501  0.00000000000E+00  0.00000000000E+00  0.13833867110E+04  0.13833867110E+04  0.00000000000E+00 0.  1.
         21   -1    0    0  501  502 -0.00000000000E+00 -0.00000000000E+00 -0.37959404792E+02  0.37959404792E+02  0.00000000000E+00 0.  1.
      99926    2    1    2    0    0 -0.71054273576E-14  0.00000000000E+00  0.13454273062E+04  0.14213461158E+04  0.45831227847E+03 0.  0.
      99925    2    3    3    0    0  0.19537967828E+02 -0.11259669647E+03  0.77749127114E+03  0.82867538405E+03  0.26296476415E+03 0.  0.
         25    1    4    4    0    0 -0.29381077524E+02 -0.66746445346E+02  0.39416260246E+03  0.41991665954E+03  0.12509000000E+03 0.  0.
         25    1    3    3    0    0 -0.19537967828E+02  0.11259669647E+03  0.56793603510E+03  0.59267073178E+03  0.12509000000E+03 0.  0.
         25    1    4    4    0    0  0.48919045352E+02 -0.45850251123E+02  0.38332866868E+03  0.40875872451E+03  0.12509000000E+03 0.  0.
<mgrwt>
<rscale>  2 0.45831228E+03</rscale>
<asrwt>0</asrwt>
<pdfrwt beam="1">  1       21 0.20343919E+00 0.45831228E+03</pdfrwt>
<pdfrwt beam="2">  1       21 0.55822663E-02 0.45831228E+03</pdfrwt>
<totfact> 0.25116021E+04</totfact>
</mgrwt>
</event>
<event>
 7    0  0.4732500E-002  0.4541410E+03  0.7546771E-02  0.1026494E+00
         21   -1    0    0  502  501  0.00000000000E+00  0.00000000000E+00  0.11729416441E+03  0.11729416441E+03  0.00000000000E+00 0. -1.
         21   -1    0    0  501  502 -0.00000000000E+00 -0.00000000000E+00 -0.43958713081E+03  0.43958713081E+03  0.00000000000E+00 0. -1.
      99926    2    1    2    0    0  0.00000000000E+00  0.14210854715E-13 -0.32229296640E+03  0.55688129522E+03  0.45414097016E+03 0.  0.
      99925    2    3    3    0    0  0.52064648098E+02 -0.99226289886E+02 -0.19272925196E+03  0.34477083253E+03  0.26299387486E+03 0.  0.
         25    1    4    4    0    0 -0.49234003495E+01 -0.64379053617E+02 -0.69931018446E+02  0.15718383459E+03  0.12509000000E+03 0.  0.
         25    1    4    4    0    0  0.56988048447E+02 -0.34847236269E+02 -0.12279823351E+03  0.18758699794E+03  0.12509000000E+03 0.  0.
         25    1    3    3    0    0 -0.52064648098E+02  0.99226289886E+02 -0.12956371444E+03  0.21211046270E+03  0.12509000000E+03 0.  0.
<mgrwt>
<rscale>  2 0.45414097E+03</rscale>
<asrwt>0</asrwt>
<pdfrwt beam="1">  1       21 0.17249142E-01 0.45414097E+03</pdfrwt>
<pdfrwt beam="2">  1       21 0.64645167E-01 0.45414097E+03</pdfrwt>
<totfact> 0.61833176E+04</totfact>
</mgrwt>
</event>
<event>
 7    0  0.4732500E-002  0.4547109E+03  0.7546771E-02  0.1026326E+00
         21   -1    0    0  502  501  0.00000000000E+00  0.00000000000E+00  0.26478961502E+03  0.26478961502E+03  0.00000000000E+00 0.  1.
         21   -1    0    0  501  502 -0.00000000000E+00 -0.00000000000E+00 -0.19521346390E+03  0.19521346390E+03  0.00000000000E+00 0.  1.
      99926    2    1    2    0    0  0.00000000000E+00 -0.44408920985E-15  0.69576151124E+02  0.46000307893E+03  0.45471088816E+03 0.  0.
      99925    2    3    3    0    0 -0.28086010637E+02 -0.24972037030E+01 -0.66913608682E+02  0.27272781988E+03  0.26288395289E+03 0.  0.
         25    1    3    3    0    0  0.28086010637E+02  0.24972037030E+01  0.13648975981E+03  0.18727525905E+03  0.12509000000E+03 0.  0.
         25    1    4    4    0    0  0.15152276479E+02 -0.25805849302E+02 -0.18803201707E+02  0.12998692948E+03  0.12509000000E+03 0.  0.
         25    1    4    4    0    0 -0.43238287115E+02  0.23308645599E+02 -0.48110406976E+02  0.14274089040E+03  0.12509000000E+03 0.  0.
<mgrwt>
<rscale>  2 0.45471089E+03</rscale>
<asrwt>0</asrwt>
<pdfrwt beam="1">  1       21 0.38939649E-01 0.45471089E+03</pdfrwt>
<pdfrwt beam="2">  1       21 0.28707863E-01 0.45471089E+03</pdfrwt>
<totfact> 0.68337757E+04</totfact>
</mgrwt>
</event>
<event>
 7    0  0.4732500E-002  0.4582196E+03  0.7546771E-02  0.1025299E+00
         21   -1    0    0  502  501  0.00000000000E+00  0.00000000000E+00  0.77378584009E+03  0.77378584009E+03  0.00000000000E+00 0.  1.
         21   -1    0    0  501  502 -0.00000000000E+00 -0.00000000000E+00 -0.67836990545E+02  0.67836990545E+02  0.00000000000E+00 0.  1.
      99926    2    1    2    0    0  0.00000000000E+00  0.00000000000E+00  0.70594884955E+03  0.84162283064E+03  0.45821960987E+03 0.  0.
      99925    2    3    3    0    0 -0.50179184270E+02  0.62585250068E+02  0.59686453312E+03  0.65728140759E+03  0.26331865450E+03 0.  0.
         25    1    4    4    0    0 -0.35944331539E+01  0.62807182961E+02  0.34261806428E+03  0.37012471986E+03  0.12509000000E+03 0.  0.
         25    1    3    3    0    0  0.50179184270E+02 -0.62585250068E+02  0.10908431643E+03  0.18434142304E+03  0.12509000000E+03 0.  0.
         25    1    4    4    0    0 -0.46584751116E+02 -0.22193289329E+00  0.25424646885E+03  0.28715668774E+03  0.12509000000E+03 0.  0.
<mgrwt>
<rscale>  2 0.45821961E+03</rscale>
<asrwt>0</asrwt>
<pdfrwt beam="1">  1       21 0.11379203E+00 0.45821961E+03</pdfrwt>
<pdfrwt beam="2">  1       21 0.99760284E-02 0.45821961E+03</pdfrwt>
<totfact> 0.44677245E+04</totfact>
</mgrwt>
</event>
<event>
 7    0  0.4732500E-002  0.4448734E+03  0.7546771E-02  0.1029262E+00
         21   -1    0    0  502  501  0.00000000000E+00  0.00000000000E+00  0.33285745930E+03  0.33285745930E+03  0.00000000000E+00 0.  1.
         21   -1    0    0  501  502 -0.00000000000E+00 -0.00000000000E+00 -0.14864648761E+03  0.14864648761E+03  0.00000000000E+00 0.  1.
      99926    2    1    2    0    0  0.71054273576E-14  0.00000000000E+00  0.18421097168E+03  0.48150394691E+03  0.44487343009E+03 0.  0.
      99925    2    3    3    0    0 -0.55485361461E+02  0.50506089123E+02  0.19395283857E+03  0.33531262553E+03  0.26303490810E+03 0.  0.
         25    1    4    4    0    0 -0.86704241661E+01  0.48586297039E+01  0.12890586490E+03  0.17989722801E+03  0.12509000000E+03 0.  0.
         25    1    4    4    0    0 -0.46814937295E+02  0.45647459419E+02  0.65046973665E+02  0.15541539753E+03  0.12509000000E+03 0.  0.
         25    1    3    3    0    0  0.55485361461E+02 -0.50506089123E+02 -0.97418668841E+01  0.14619132138E+03  0.12509000000E+03 0.  0.
<mgrwt>
<rscale>  2 0.44487343E+03</rscale>
<asrwt>0</asrwt>
<pdfrwt beam="1">  1       21 0.48949626E-01 0.44487343E+03</pdfrwt>
<pdfrwt beam="2">  1       21 0.21859778E-01 0.44487343E+03</pdfrwt>
<totfact> 0.72224619E+04</totfact>
</mgrwt>
</event>
<event>
 7    0  0.4732500E-002  0.4543203E+03  0.7546771E-02  0.1026441E+00
         21   -1    0    0  502  501  0.00000000000E+00  0.00000000000E+00  0.17291663827E+04  0.17291663827E+04  0.00000000000E+00 0.  1.
         21   -1    0    0  501  502 -0.00000000000E+00 -0.00000000000E+00 -0.29841966234E+02  0.29841966234E+02  0.00000000000E+00 0.  1.
      99926    2    1    2    0    0 -0.14210854715E-13  0.00000000000E+00  0.16993244165E+04  0.17590083489E+04  0.45432026064E+03 0.  0.
      99925    2    3    3    0    0  0.95779201455E+02  0.27665583863E+02  0.86933185960E+03  0.91374259634E+03  0.26315130682E+03 0.  0.
         25    1    4    4    0    0  0.65913073787E+02  0.76285873645E+01  0.33323264238E+03  0.36206937276E+03  0.12509000000E+03 0.  0.
         25    1    4    4    0    0  0.29866127669E+02  0.20036996499E+02  0.53609921722E+03  0.55167322358E+03  0.12509000000E+03 0.  0.
         25    1    3    3    0    0 -0.95779201455E+02 -0.27665583863E+02  0.82999255688E+03  0.84526575261E+03  0.12509000000E+03 0.  0.
<mgrwt>
<rscale>  2 0.45432026E+03</rscale>
<asrwt>0</asrwt>
<pdfrwt beam="1">  1       21 0.25428911E+00 0.45432026E+03</pdfrwt>
<pdfrwt beam="2">  1       21 0.43885256E-02 0.45432026E+03</pdfrwt>
<totfact> 0.18156197E+04</totfact>
</mgrwt>
</event>
<event>
 7    0  0.4732500E-002  0.4506906E+03  0.7546771E-02  0.1027516E+00
         21   -1    0    0  502  501  0.00000000000E+00  0.00000000000E+00  0.49240892817E+02  0.49240892817E+02  0.00000000000E+00 0.  1.
         21   -1    0    0  501  502 -0.00000000000E+00 -0.00000000000E+00 -0.10312670095E+04  0.10312670095E+04  0.00000000000E+00 0.  1.
      99926    2    1    2    0    0 -0.71054273576E-14  0.00000000000E+00 -0.98202611671E+03  0.10805079023E+04  0.45069061797E+03 0.  0.
      99925    2    3    3    0    0 -0.60503928101E+02 -0.85115869611E+02 -0.54471977281E+03  0.61382837302E+03  0.26298327715E+03 0.  0.
         25    1    4    4    0    0 -0.31560575962E+02 -0.56549240168E+02 -0.19796291346E+03  0.24296236277E+03  0.12509000000E+03 0.  0.
         25    1    4    4    0    0 -0.28943352139E+02 -0.28566629443E+02 -0.34675685936E+03  0.37086601025E+03  0.12509000000E+03 0.  0.
         25    1    3    3    0    0  0.60503928101E+02  0.85115869611E+02 -0.43730634390E+03  0.46667952932E+03  0.12509000000E+03 0.  0.
<mgrwt>
<rscale>  2 0.45069062E+03</rscale>
<asrwt>0</asrwt>
<pdfrwt beam="1">  1       21 0.72413079E-02 0.45069062E+03</pdfrwt>
<pdfrwt beam="2">  1       21 0.15165691E+00 0.45069062E+03</pdfrwt>
<totfact> 0.37419972E+04</totfact>
</mgrwt>
</event>
<event>
 7    0  0.4732500E-002  0.4537543E+03  0.7546771E-02  0.1026608E+00
         21   -1    0    0  502  501  0.00000000000E+00  0.00000000000E+00  0.29431578043E+03  0.29431578043E+03  0.00000000000E+00 0.  1.
         21   -1    0    0  501  502 -0.00000000000E+00 -0.00000000000E+00 -0.17489119029E+03  0.17489119029E+03  0.00000000000E+00 0.  1.
      99926    2    1    2    0    0  0.00000000000E+00  0.71054273576E-14  0.11942459014E+03  0.46920697072E+03  0.45375428222E+03 0.  0.
      99925    2    3    3    0    0 -0.93288731306E+02 -0.55864612412E+02  0.10288333028E+03  0.30263937577E+03  0.26302465627E+03 0.  0.
         25    1    4    4    0    0 -0.80074263864E+02 -0.48590836123E+01  0.47092814973E+02  0.15588694541E+03  0.12509000000E+03 0.  0.
         25    1    4    4    0    0 -0.13214467441E+02 -0.51005528800E+02  0.55790515309E+02  0.14675243036E+03  0.12509000000E+03 0.  0.
         25    1    3    3    0    0  0.93288731306E+02  0.55864612412E+02  0.16541259860E+02  0.16656759495E+03  0.12509000000E+03 0.  0.
<mgrwt>
<rscale>  2 0.45375428E+03</rscale>
<asrwt>0</asrwt>
<pdfrwt beam="1">  1       21 0.43281732E-01 0.45375428E+03</pdfrwt>
<pdfrwt beam="2">  1       21 0.25719293E-01 0.45375428E+03</pdfrwt>
<totfact> 0.68165891E+04</totfact>
</mgrwt>
</event>
<event>
 7    0  0.4732500E-002  0.4550398E+03  0.7546771E-02  0.1026230E+00
         21   -1    0    0  502  501  0.00000000000E+00  0.00000000000E+00  0.10520102230E+03  0.10520102230E+03  0.00000000000E+00 0. -1.
         21   -1    0    0  501  502 -0.00000000000E+00 -0.00000000000E+00 -0.49206083623E+03  0.49206083623E+03  0.00000000000E+00 0. -1.
      99926    2    1    2    0    0  0.00000000000E+00  0.00000000000E+00 -0.38685981394E+03  0.59726185853E+03  0.45503979169E+03 0.  0.
      99925    2    3    3    0    0 -0.11250858523E+03 -0.11883903106E+02 -0.23819455700E+03  0.37243242180E+03  0.26300162152E+03 0.  0.
         25    1    4    4    0    0 -0.68316236973E+02 -0.11070294507E+02 -0.72875516331E+02  0.16046186038E+03  0.12509000000E+03 0.  0.
         25    1    3    3    0    0  0.11250858523E+03  0.11883903106E+02 -0.14866525694E+03  0.22482943674E+03  0.12509000000E+03 0.  0.
         25    1    4    4    0    0 -0.44192348253E+02 -0.81360859908E+00 -0.16531904067E+03  0.21197056142E+03  0.12509000000E+03 0.  0.
<mgrwt>
<rscale>  2 0.45503979E+03</rscale>
<asrwt>0</asrwt>
<pdfrwt beam="1">  1       21 0.15470739E-01 0.45503979E+03</pdfrwt>
<pdfrwt beam="2">  1       21 0.72361887E-01 0.45503979E+03</pdfrwt>
<totfact> 0.58828624E+04</totfact>
</mgrwt>
</event>
<event>
 7    0  0.4732500E-002  0.4558648E+03  0.7546771E-02  0.1025987E+00
         21   -1    0    0  502  501  0.00000000000E+00  0.00000000000E+00  0.53762392200E+03  0.53762392200E+03  0.00000000000E+00 0. -1.
         21   -1    0    0  501  502 -0.00000000000E+00 -0.00000000000E+00 -0.96634816886E+02  0.96634816886E+02  0.00000000000E+00 0. -1.
      99926    2    1    2    0    0  0.71054273576E-14  0.00000000000E+00  0.44098910511E+03  0.63425873888E+03  0.45586484513E+03 0.  0.
      99925    2    3    3    0    0  0.63527658411E+02 -0.71914518846E+01  0.14589804731E+03  0.30743505422E+03  0.26294978986E+03 0.  0.
         25    1    3    3    0    0 -0.63527658411E+02  0.71914518846E+01  0.29509105780E+03  0.32682368467E+03  0.12509000000E+03 0.  0.
         25    1    4    4    0    0  0.50851823410E+02 -0.45333750659E+01  0.11623323437E+03  0.17822494860E+03  0.12509000000E+03 0.  0.
         25    1    4    4    0    0  0.12675835000E+02 -0.26580768187E+01  0.29664812941E+02  0.12921010561E+03  0.12509000000E+03 0.  0.
<mgrwt>
<rscale>  2 0.45586485E+03</rscale>
<asrwt>0</asrwt>
<pdfrwt beam="1">  1       21 0.79062340E-01 0.45586485E+03</pdfrwt>
<pdfrwt beam="2">  1       21 0.14211003E-01 0.45586485E+03</pdfrwt>
<totfact> 0.56232737E+04</totfact>
</mgrwt>
</event>
<event>
 7    0  0.4732500E-002  0.4465417E+03  0.7546771E-02  0.1028758E+00
         21   -1    0    0  502  501  0.00000000000E+00  0.00000000000E+00  0.55005843625E+03  0.55005843625E+03  0.00000000000E+00 0. -1.
         21   -1    0    0  501  502 -0.00000000000E+00 -0.00000000000E+00 -0.90626509983E+02  0.90626509983E+02  0.00000000000E+00 0. -1.
      99926    2    1    2    0    0  0.14210854715E-13 -0.35527136788E-14  0.45943192627E+03  0.64068494623E+03  0.44654171749E+03 0.  0.
      99925    2    3    3    0    0 -0.71450884539E+02 -0.31227389558E+02  0.39260663367E+03  0.47884086512E+03  0.26280834566E+03 0.  0.
         25    1    4    4    0    0 -0.37779558125E+02 -0.25107961831E+02  0.13034361670E+03  0.18626505650E+03  0.12509000000E+03 0.  0.
         25    1    3    3    0    0  0.71450884539E+02  0.31227389558E+02  0.66825292595E+02  0.16184408111E+03  0.12509000000E+03 0.  0.
         25    1    4    4    0    0 -0.33671326414E+02 -0.61194277274E+01  0.26226301697E+03  0.29257580862E+03  0.12509000000E+03 0.  0.
<mgrwt>
<rscale>  2 0.44654172E+03</rscale>
<asrwt>0</asrwt>
<pdfrwt beam="1">  1       21 0.80890945E-01 0.44654172E+03</pdfrwt>
<pdfrwt beam="2">  1       21 0.13327428E-01 0.44654172E+03</pdfrwt>
<totfact> 0.60156968E+04</totfact>
</mgrwt>
</event>
<event>
 7    0  0.4732500E-002  0.4552229E+03  0.7546771E-02  0.1026176E+00
         21   -1    0    0  502  501  0.00000000000E+00  0.00000000000E+00  0.24734273029E+03  0.24734273029E+03  0.00000000000E+00 0. -1.
         21   -1    0    0  501  502 -0.00000000000E+00 -0.00000000000E+00 -0.20945416440E+03  0.20945416440E+03  0.00000000000E+00 0. -1.
      99926    2    1    2    0    0  0.00000000000E+00  0.00000000000E+00  0.37888565894E+02  0.45679689469E+03  0.45522286803E+03 0.  0.
      99925    2    3    3    0    0 -0.20603921607E+02  0.55072637067E+02 -0.73635746163E+02  0.27919425615E+03  0.26281113487E+03 0.  0.
         25    1    3    3    0    0  0.20603921607E+02 -0.55072637067E+02  0.11152431206E+03  0.17760263855E+03  0.12509000000E+03 0.  0.
         25    1    4    4    0    0  0.82703495160E+00  0.15069164608E+02 -0.74009999158E+02  0.14612580807E+03  0.12509000000E+03 0.  0.
         25    1    4    4    0    0 -0.21430956558E+02  0.40003472458E+02  0.37425299510E+00  0.13306844807E+03  0.12509000000E+03 0.  0.
<mgrwt>
<rscale>  2 0.45522287E+03</rscale>
<asrwt>0</asrwt>
<pdfrwt beam="1">  1       21 0.36373931E-01 0.45522287E+03</pdfrwt>
<pdfrwt beam="2">  1       21 0.30802083E-01 0.45522287E+03</pdfrwt>
<totfact> 0.68292864E+04</totfact>
</mgrwt>
</event>
<event>
 7    0  0.4732500E-002  0.4494690E+03  0.7546771E-02  0.1027881E+00
         21   -1    0    0  502  501  0.00000000000E+00  0.00000000000E+00  0.44188226689E+03  0.44188226689E+03  0.00000000000E+00 0.  1.
         21   -1    0    0  501  502 -0.00000000000E+00 -0.00000000000E+00 -0.11429648310E+03  0.11429648310E+03  0.00000000000E+00 0.  1.
      99926    2    1    2    0    0  0.35527136788E-14  0.00000000000E+00  0.32758578378E+03  0.55617874999E+03  0.44946897135E+03 0.  0.
      99925    2    3    3    0    0 -0.16352592207E+02 -0.10484602136E+03  0.18367831437E+03  0.33796563553E+03  0.26310255067E+03 0.  0.
         25    1    4    4    0    0 -0.47318744327E+02 -0.59736227193E+02  0.83304407935E+02  0.16850701138E+03  0.12509000000E+03 0.  0.
         25    1    3    3    0    0  0.16352592207E+02  0.10484602136E+03  0.14390746942E+03  0.21821311446E+03  0.12509000000E+03 0.  0.
         25    1    4    4    0    0  0.30966152121E+02 -0.45109794167E+02  0.10037390643E+03  0.16945862415E+03  0.12509000000E+03 0.  0.
<mgrwt>
<rscale>  2 0.44946897E+03</rscale>
<asrwt>0</asrwt>
<pdfrwt beam="1">  1       21 0.64982686E-01 0.44946897E+03</pdfrwt>
<pdfrwt beam="2">  1       21 0.16808307E-01 0.44946897E+03</pdfrwt>
<totfact> 0.64224309E+04</totfact>
</mgrwt>
</event>
<event>
 7    0  0.4732500E-002  0.4443634E+03  0.7546771E-02  0.1029416E+00
         21   -1    0    0  502  501  0.00000000000E+00  0.00000000000E+00  0.43203340745E+02  0.43203340745E+02  0.00000000000E+00 0. -1.
         21   -1    0    0  501  502 -0.00000000000E+00 -0.00000000000E+00 -0.11426133786E+04  0.11426133786E+04  0.00000000000E+00 0. -1.
      99926    2    1    2    0    0  0.00000000000E+00  0.00000000000E+00 -0.10994100379E+04  0.11858167194E+04  0.44436343296E+03 0.  0.
      99925    2    3    3    0    0 -0.50613648046E+02 -0.82993857091E+02 -0.78865224770E+03  0.83700784056E+03  0.26298295699E+03 0.  0.
         25    1    3    3    0    0  0.50613648046E+02  0.82993857091E+02 -0.31075779019E+03  0.34880887882E+03  0.12509000000E+03 0.  0.
         25    1    4    4    0    0 -0.90433737229E+01 -0.30574158387E+02 -0.26947033385E+03  0.29879479697E+03  0.12509000000E+03 0.  0.
         25    1    4    4    0    0 -0.41570274323E+02 -0.52419698704E+02 -0.51918191385E+03  0.53821304359E+03  0.12509000000E+03 0.  0.
<mgrwt>
<rscale>  2 0.44436343E+03</rscale>
<asrwt>0</asrwt>
<pdfrwt beam="1">  1       21 0.63534319E-02 0.44436343E+03</pdfrwt>
<pdfrwt beam="2">  1       21 0.16803139E+00 0.44436343E+03</pdfrwt>
<totfact> 0.35457156E+04</totfact>
</mgrwt>
</event>
<event>
 7    0  0.4732500E-002  0.4569681E+03  0.7546771E-02  0.1025664E+00
         21   -1    0    0  502  501  0.00000000000E+00  0.00000000000E+00  0.18134652001E+03  0.18134652001E+03  0.00000000000E+00 0.  1.
         21   -1    0    0  501  502 -0.00000000000E+00 -0.00000000000E+00 -0.28787408918E+03  0.28787408918E+03  0.00000000000E+00 0.  1.
      99926    2    1    2    0    0  0.71054273576E-14  0.00000000000E+00 -0.10652756918E+03  0.46922060919E+03  0.45696811387E+03 0.  0.
      99925    2    3    3    0    0 -0.47909721113E+02  0.74837015828E+02 -0.14191003957E+03  0.31175522370E+03  0.26297707098E+03 0.  0.
         25    1    3    3    0    0  0.47909721113E+02 -0.74837015828E+02  0.35382470392E+02  0.15746538549E+03  0.12509000000E+03 0.  0.
         25    1    4    4    0    0 -0.64490981091E+02  0.45254476956E+02 -0.80649533308E+02  0.16840103815E+03  0.12509000000E+03 0.  0.
         25    1    4    4    0    0  0.16581259978E+02  0.29582538872E+02 -0.61260506263E+02  0.14335418555E+03  0.12509000000E+03 0.  0.
<mgrwt>
<rscale>  2 0.45696811E+03</rscale>
<asrwt>0</asrwt>
<pdfrwt beam="1">  1       21 0.26668606E-01 0.45696811E+03</pdfrwt>
<pdfrwt beam="2">  1       21 0.42334425E-01 0.45696811E+03</pdfrwt>
<totfact> 0.66450421E+04</totfact>
</mgrwt>
</event>
<event>
 7    0  0.4732500E-002  0.4600410E+03  0.7546771E-02  0.1024769E+00
         21   -1    0    0  502  501  0.00000000000E+00  0.00000000000E+00  0.24174468482E+03  0.24174468482E+03  0.00000000000E+00 0. -1.
         21   -1    0    0  501  502 -0.00000000000E+00 -0.00000000000E+00 -0.21886493489E+03  0.21886493489E+03  0.00000000000E+00 0. -1.
      99926    2    1    2    0    0 -0.14210854715E-13  0.00000000000E+00  0.22879749932E+02  0.46060961970E+03  0.46004101861E+03 0.  0.
      99925    2    3    3    0    0 -0.10199987920E+03 -0.35367768384E+02 -0.33071883730E+02  0.28615920323E+03  0.26294198163E+03 0.  0.
         25    1    4    4    0    0 -0.39986513956E+02  0.22130341629E+02 -0.18677777001E+02  0.13448063345E+03  0.12509000000E+03 0.  0.
         25    1    4    4    0    0 -0.62013365241E+02 -0.57498110013E+02 -0.14394106729E+02  0.15167856979E+03  0.12509000000E+03 0.  0.
         25    1    3    3    0    0  0.10199987920E+03  0.35367768384E+02  0.55951633662E+02  0.17445041647E+03  0.12509000000E+03 0.  0.
<mgrwt>
<rscale>  2 0.46004102E+03</rscale>
<asrwt>0</asrwt>
<pdfrwt beam="1">  1       21 0.35550689E-01 0.46004102E+03</pdfrwt>
<pdfrwt beam="2">  1       21 0.32186020E-01 0.46004102E+03</pdfrwt>
<totfact> 0.65463853E+04</totfact>
</mgrwt>
</event>
<event>
 7    0  0.4732500E-002  0.4311349E+03  0.7546771E-02  0.1033502E+00
         21   -1    0    0  502  501  0.00000000000E+00  0.00000000000E+00  0.37492559696E+03  0.37492559696E+03  0.00000000000E+00 0. -1.
         21   -1    0    0  501  502 -0.00000000000E+00 -0.00000000000E+00 -0.12394276417E+03  0.12394276417E+03  0.00000000000E+00 0. -1.
      99926    2    1    2    0    0  0.00000000000E+00  0.00000000000E+00  0.25098283278E+03  0.49886836113E+03  0.43113485058E+03 0.  0.
      99925    2    3    3    0    0  0.43506452255E+02  0.29144189348E+02  0.78462120747E+02  0.27943021645E+03  0.26302613237E+03 0.  0.
         25    1    4    4    0    0  0.25062055432E+02  0.22869926091E+02  0.80941927300E+02  0.15280786576E+03  0.12509000000E+03 0.  0.
         25    1    3    3    0    0 -0.43506452255E+02 -0.29144189348E+02  0.17252071204E+03  0.21943814468E+03  0.12509000000E+03 0.  0.
         25    1    4    4    0    0  0.18444396823E+02  0.62742632574E+01 -0.24798065524E+01  0.12662235069E+03  0.12509000000E+03 0.  0.
<mgrwt>
<rscale>  2 0.43113485E+03</rscale>
<asrwt>0</asrwt>
<pdfrwt beam="1">  1       21 0.55136117E-01 0.43113485E+03</pdfrwt>
<pdfrwt beam="2">  1       21 0.18226877E-01 0.43113485E+03</pdfrwt>
<totfact> 0.79342016E+04</totfact>
</mgrwt>
</event>
<event>
 7    0  0.4732500E-002  0.4560120E+03  0.7546771E-02  0.1025944E+00
         21   -1    0    0  502  501  0.00000000000E+00  0.00000000000E+00  0.16537237903E+04  0.16537237903E+04  0.00000000000E+00 0.  1.
         21   -1    0    0  501  502 -0.00000000000E+00 -0.00000000000E+00 -0.31436166303E+02  0.31436166303E+02  0.00000000000E+00 0.  1.
      99926    2    1    2    0    0  0.00000000000E+00  0.00000000000E+00  0.16222876240E+04  0.16851599566E+04  0.45601200024E+03 0.  0.
      99925    2    3    3    0    0  0.75414195132E+02  0.79476397649E+02  0.11382380195E+04  0.11733442414E+04  0.26295840200E+03 0.  0.
         25    1    3    3    0    0 -0.75414195132E+02 -0.79476397649E+02  0.48404960445E+03  0.51181571515E+03  0.12509000000E+03 0.  0.
         25    1    4    4    0    0  0.28448084412E+02  0.74282678113E-01  0.46251893491E+03  0.47997976236E+03  0.12509000000E+03 0.  0.
         25    1    4    4    0    0  0.46966110720E+02  0.79402114970E+02  0.67571908460E+03  0.69336447905E+03  0.12509000000E+03 0.  0.
<mgrwt>
<rscale>  2 0.45601200E+03</rscale>
<asrwt>0</asrwt>
<pdfrwt beam="1">  1       21 0.24319462E+00 0.45601200E+03</pdfrwt>
<pdfrwt beam="2">  1       21 0.46229667E-02 0.45601200E+03</pdfrwt>
<totfact> 0.19419090E+04</totfact>
</mgrwt>
</event>
<event>
 7    0  0.4732500E-002  0.4575580E+03  0.7546771E-02  0.1025492E+00
         21   -1    0    0  502  501  0.00000000000E+00  0.00000000000E+00  0.10264268107E+03  0.10264268107E+03  0.00000000000E+00 0. -1.
         21   -1    0    0  501  502 -0.00000000000E+00 -0.00000000000E+00 -0.50992277207E+03  0.50992277207E+03  0.00000000000E+00 0. -1.
      99926    2    1    2    0    0  0.00000000000E+00  0.00000000000E+00 -0.40728009100E+03  0.61256545315E+03  0.45755804207E+03 0.  0.
      99925    2    3    3    0    0 -0.98148383919E+02 -0.47601850499E+02 -0.20478305735E+03  0.35074185189E+03  0.26302985506E+03 0.  0.
         25    1    4    4    0    0 -0.10605227200E+02 -0.19775984272E+02 -0.11530740365E+03  0.17160089112E+03  0.12509000000E+03 0.  0.
         25    1    3    3    0    0  0.98148383919E+02  0.47601850499E+02 -0.20249703365E+03  0.26182360125E+03  0.12509000000E+03 0.  0.
         25    1    4    4    0    0 -0.87543156719E+02 -0.27825866226E+02 -0.89475653707E+02  0.17914096077E+03  0.12509000000E+03 0.  0.
<mgrwt>
<rscale>  2 0.45755804E+03</rscale>
<asrwt>0</asrwt>
<pdfrwt beam="1">  1       21 0.15094512E-01 0.45755804E+03</pdfrwt>
<pdfrwt beam="2">  1       21 0.74988642E-01 0.45755804E+03</pdfrwt>
<totfact> 0.56755974E+04</totfact>
</mgrwt>
</event>
<event>
 7    0  0.4732500E-002  0.4445315E+03  0.7546771E-02  0.1029365E+00
         21   -1    0    0  502  501  0.00000000000E+00  0.00000000000E+00  0.22666190955E+03  0.22666190955E+03  0.00000000000E+00 0.  1.
         21   -1    0    0  501  502 -0.00000000000E+00 -0.00000000000E+00 -0.21795488486E+03  0.21795488486E+03  0.00000000000E+00 0.  1.
      99926    2    1    2    0    0  0.00000000000E+00  0.00000000000E+00  0.87070246875E+01  0.44461679442E+03  0.44453153049E+03 0.  0.
      99925    2    3    3    0    0 -0.62143421789E+02 -0.68812440458E+02  0.50441225033E+02  0.28341441102E+03  0.26302557738E+03 0.  0.
         25    1    4    4    0    0 -0.84000907543E+01 -0.50095966055E+01  0.21350878756E+01  0.12548993698E+03  0.12509000000E+03 0.  0.
         25    1    4    4    0    0 -0.53743331034E+02 -0.63802843853E+02  0.48306137158E+02  0.15792447404E+03  0.12509000000E+03 0.  0.
         25    1    3    3    0    0  0.62143421789E+02  0.68812440458E+02 -0.41734200346E+02  0.16120238339E+03  0.12509000000E+03 0.  0.
<mgrwt>
<rscale>  2 0.44453153E+03</rscale>
<asrwt>0</asrwt>
<pdfrwt beam="1">  1       21 0.33332634E-01 0.44453153E+03</pdfrwt>
<pdfrwt beam="2">  1       21 0.32052189E-01 0.44453153E+03</pdfrwt>
<totfact> 0.75418641E+04</totfact>
</mgrwt>
</event>
<event>
 7    0  0.4732500E-002  0.4371603E+03  0.7546771E-02  0.1031622E+00
         21   -1    0    0  502  501  0.00000000000E+00  0.00000000000E+00  0.11807233094E+03  0.11807233094E+03  0.00000000000E+00 0.  1.
         21   -1    0    0  501  502 -0.00000000000E+00 -0.00000000000E+00 -0.40464427586E+03  0.40464427586E+03  0.00000000000E+00 0.  1.
      99926    2    1    2    0    0  0.00000000000E+00  0.14210854715E-13 -0.28657194492E+03  0.52271660679E+03  0.43716034976E+03 0.  0.
      99925    2    3    3    0    0  0.16293348341E+02 -0.88422285299E+02 -0.22168676979E+03  0.35555929230E+03  0.26304640789E+03 0.  0.
         25    1    4    4    0    0 -0.85209647941E+01 -0.72188568865E+01 -0.11720982524E+03  0.17178582586E+03  0.12509000000E+03 0.  0.
         25    1    3    3    0    0 -0.16293348341E+02  0.88422285299E+02 -0.64885175124E+02  0.16715731449E+03  0.12509000000E+03 0.  0.
         25    1    4    4    0    0  0.24814313135E+02 -0.81203428412E+02 -0.10447694456E+03  0.18377346644E+03  0.12509000000E+03 0.  0.
<mgrwt>
<rscale>  2 0.43716035E+03</rscale>
<asrwt>0</asrwt>
<pdfrwt beam="1">  1       21 0.17363578E-01 0.43716035E+03</pdfrwt>
<pdfrwt beam="2">  1       21 0.59506510E-01 0.43716035E+03</pdfrwt>
<totfact> 0.73558035E+04</totfact>
</mgrwt>
</event>
<event>
 7    0  0.4732500E-002  0.4559734E+03  0.7546771E-02  0.1025956E+00
         21   -1    0    0  502  501  0.00000000000E+00  0.00000000000E+00  0.41089235362E+03  0.41089235362E+03  0.00000000000E+00 0.  1.
         21   -1    0    0  501  502 -0.00000000000E+00 -0.00000000000E+00 -0.12650013077E+03  0.12650013077E+03  0.00000000000E+00 0.  1.
      99926    2    1    2    0    0  0.00000000000E+00  0.71054273576E-14  0.28439222286E+03  0.53739248439E+03  0.45597340477E+03 0.  0.
      99925    2    3    3    0    0 -0.64646570354E+02 -0.49291406047E+02  0.84698782965E+02  0.28812596075E+03  0.26312328604E+03 0.  0.
         25    1    4    4    0    0 -0.31111057802E+02 -0.63099691274E+02  0.28709209628E+02  0.14635981612E+03  0.12509000000E+03 0.  0.
         25    1    3    3    0    0  0.64646570354E+02  0.49291406047E+02  0.19969343989E+03  0.24926652363E+03  0.12509000000E+03 0.  0.
         25    1    4    4    0    0 -0.33535512552E+02  0.13808285227E+02  0.55989573336E+02  0.14176614464E+03  0.12509000000E+03 0.  0.
<mgrwt>
<rscale>  2 0.45597340E+03</rscale>
<asrwt>0</asrwt>
<pdfrwt beam="1">  1       21 0.60425346E-01 0.45597340E+03</pdfrwt>
<pdfrwt beam="2">  1       21 0.18602961E-01 0.45597340E+03</pdfrwt>
<totfact> 0.62226613E+04</totfact>
</mgrwt>
</event>
<event>
 7    0  0.4732500E-002  0.4624267E+03  0.7546771E-02  0.1024080E+00
         21   -1    0    0  502  501  0.00000000000E+00  0.00000000000E+00  0.13754789723E+03  0.13754789723E+03  0.00000000000E+00 0.  1.
         21   -1    0    0  501  502 -0.00000000000E+00 -0.00000000000E+00 -0.38866178040E+03  0.38866178040E+03  0.00000000000E+00 0.  1.
      99926    2    1    2    0    0  0.00000000000E+00  0.00000000000E+00 -0.25111388317E+03  0.52620967763E+03  0.46242668880E+03 0.  0.
      99925    2    3    3    0    0  0.72334926521E+02  0.93283064362E+02 -0.13199231198E+03  0.31699321434E+03  0.26292328885E+03 0.  0.
         25    1    3    3    0    0 -0.72334926521E+02 -0.93283064362E+02 -0.11912157119E+03  0.20921646330E+03  0.12509000000E+03 0.  0.
         25    1    4    4    0    0  0.68118031749E+02  0.23831669809E+02 -0.76947453823E+02  0.16363506191E+03  0.12509000000E+03 0.  0.
         25    1    4    4    0    0  0.42168947722E+01  0.69451394554E+02 -0.55044858160E+02  0.15335815243E+03  0.12509000000E+03 0.  0.
<mgrwt>
<rscale>  2 0.46242669E+03</rscale>
<asrwt>0</asrwt>
<pdfrwt beam="1">  1       21 0.20227632E-01 0.46242669E+03</pdfrwt>
<pdfrwt beam="2">  1       21 0.57156143E-01 0.46242669E+03</pdfrwt>
<totfact> 0.59860687E+04</totfact>
</mgrwt>
</event>
<event>
 7    0  0.4732500E-002  0.4554804E+03  0.7546771E-02  0.1026100E+00
         21   -1    0    0  502  501  0.00000000000E+00  0.00000000000E+00  0.25396910073E+03  0.25396910073E+03  0.00000000000E+00 0. -1.
         21   -1    0    0  501  502 -0.00000000000E+00 -0.00000000000E+00 -0.20422015086E+03  0.20422015086E+03  0.00000000000E+00 0. -1.
      99926    2    1    2    0    0  0.00000000000E+00  0.00000000000E+00  0.49748949871E+02  0.45818925160E+03  0.45548044115E+03 0.  0.
      99925    2    3    3    0    0 -0.10933987342E+03  0.70574939854E+01  0.61689622774E+02  0.29147061464E+03  0.26295340557E+03 0.  0.
         25    1    4    4    0    0 -0.53376654808E+02 -0.68113259973E+00  0.71891574652E+02  0.15383574951E+03  0.12509000000E+03 0.  0.
         25    1    3    3    0    0  0.10933987342E+03 -0.70574939854E+01 -0.11940672903E+02  0.16671863696E+03  0.12509000000E+03 0.  0.
         25    1    4    4    0    0 -0.55963218608E+02  0.77386265851E+01 -0.10201951879E+02  0.13763486513E+03  0.12509000000E+03 0.  0.
<mgrwt>
<rscale>  2 0.45548044E+03</rscale>
<asrwt>0</asrwt>
<pdfrwt beam="1">  1       21 0.37348397E-01 0.45548044E+03</pdfrwt>
<pdfrwt beam="2">  1       21 0.30032375E-01 0.45548044E+03</pdfrwt>
<totfact> 0.68051501E+04</totfact>
</mgrwt>
</event>
<event>
 7    0  0.4732500E-002  0.4545290E+03  0.7546771E-02  0.1026380E+00
         21   -1    0    0  502  501  0.00000000000E+00  0.00000000000E+00  0.71155066360E+03  0.71155066360E+03  0.00000000000E+00 0. -1.
         21   -1    0    0  501  502 -0.00000000000E+00 -0.00000000000E+00 -0.72586749809E+02  0.72586749809E+02  0.00000000000E+00 0. -1.
      99926    2    1    2    0    0  0.00000000000E+00 -0.71054273576E-14  0.63896391380E+03  0.78413741341E+03  0.45452898695E+03 0.  0.
      99925    2    3    3    0    0 -0.45404256693E+02 -0.44220164546E+02  0.56301009996E+03  0.62465870194E+03  0.26306111793E+03 0.  0.
         25    1    4    4    0    0 -0.10849128467E+02  0.17077583909E+02  0.24820585603E+03  0.27868082555E+03  0.12509000000E+03 0.  0.
         25    1    3    3    0    0  0.45404256693E+02  0.44220164546E+02  0.75953813831E+02  0.15947871148E+03  0.12509000000E+03 0.  0.
         25    1    4    4    0    0 -0.34555128225E+02 -0.61297748455E+02  0.31480424394E+03  0.34597787639E+03  0.12509000000E+03 0.  0.
<mgrwt>
<rscale>  2 0.45452899E+03</rscale>
<asrwt>0</asrwt>
<pdfrwt beam="1">  1       21 0.10463980E+00 0.45452899E+03</pdfrwt>
<pdfrwt beam="2">  1       21 0.10674522E-01 0.45452899E+03</pdfrwt>
<totfact> 0.48721541E+04</totfact>
</mgrwt>
</event>
<event>
 7    0  0.4732500E-002  0.4495122E+03  0.7546771E-02  0.1027868E+00
         21   -1    0    0  502  501  0.00000000000E+00  0.00000000000E+00  0.12625675241E+03  0.12625675241E+03  0.00000000000E+00 0. -1.
         21   -1    0    0  501  502 -0.00000000000E+00 -0.00000000000E+00 -0.40009975363E+03  0.40009975363E+03  0.00000000000E+00 0. -1.
      99926    2    1    2    0    0  0.71054273576E-14  0.00000000000E+00 -0.27384300122E+03  0.52635650604E+03  0.44951216016E+03 0.  0.
      99925    2    3    3    0    0  0.49125176552E+02 -0.21795039330E+02 -0.28282001617E+03  0.38991457111E+03  0.26297890505E+03 0.  0.
         25    1    3    3    0    0 -0.49125176552E+02  0.21795039330E+02  0.89770149487E+01  0.13644193493E+03  0.12509000000E+03 0.  0.
         25    1    4    4    0    0  0.60258051925E+02  0.21953488178E+01 -0.16902608310E+03  0.21875369082E+03  0.12509000000E+03 0.  0.
         25    1    4    4    0    0 -0.11132875373E+02 -0.23990388148E+02 -0.11379393307E+03  0.17116088029E+03  0.12509000000E+03 0.  0.
<mgrwt>
<rscale>  2 0.44951216E+03</rscale>
<asrwt>0</asrwt>
<pdfrwt beam="1">  1       21 0.18567169E-01 0.44951216E+03</pdfrwt>
<pdfrwt beam="2">  1       21 0.58838200E-01 0.44951216E+03</pdfrwt>
<totfact> 0.66289808E+04</totfact>
</mgrwt>
</event>
<event>
 7    0  0.4732500E-002  0.4518691E+03  0.7546771E-02  0.1027166E+00
         21   -1    0    0  502  501  0.00000000000E+00  0.00000000000E+00  0.15234243605E+03  0.15234243605E+03  0.00000000000E+00 0.  1.
         21   -1    0    0  501  502 -0.00000000000E+00 -0.00000000000E+00 -0.33507684697E+03  0.33507684697E+03  0.00000000000E+00 0.  1.
      99926    2    1    2    0    0  0.00000000000E+00  0.00000000000E+00 -0.18273441091E+03  0.48741928302E+03  0.45186910995E+03 0.  0.
      99925    2    3    3    0    0  0.44074525917E+02 -0.61682570957E+02 -0.20102829528E+03  0.34001006451E+03  0.26352830033E+03 0.  0.
         25    1    3    3    0    0 -0.44074525917E+02  0.61682570957E+02  0.18293884368E+02  0.14740921850E+03  0.12509000000E+03 0.  0.
         25    1    4    4    0    0  0.69695951136E+01 -0.63895083973E+00 -0.61903834274E+02  0.13974468259E+03  0.12509000000E+03 0.  0.
         25    1    4    4    0    0  0.37104930804E+02 -0.61043620117E+02 -0.13912446101E+03  0.20026538193E+03  0.12509000000E+03 0.  0.
<mgrwt>
<rscale>  2 0.45186911E+03</rscale>
<asrwt>0</asrwt>
<pdfrwt beam="1">  1       21 0.22403300E-01 0.45186911E+03</pdfrwt>
<pdfrwt beam="2">  1       21 0.49276005E-01 0.45186911E+03</pdfrwt>
<totfact> 0.67834282E+04</totfact>
</mgrwt>
</event>
<event>
 7    0  0.4732500E-002  0.4508197E+03  0.7546771E-02  0.1027478E+00
         21   -1    0    0  502  501  0.00000000000E+00  0.00000000000E+00  0.22645837589E+03  0.22645837589E+03  0.00000000000E+00 0.  1.
         21   -1    0    0  501  502 -0.00000000000E+00 -0.00000000000E+00 -0.22436617425E+03  0.22436617425E+03  0.00000000000E+00 0.  1.
      99926    2    1    2    0    0 -0.88817841970E-15  0.00000000000E+00  0.20922016443E+01  0.45082455014E+03  0.45081969534E+03 0.  0.
      99925    2    3    3    0    0 -0.48356510562E+01 -0.70204452198E+02  0.84829863416E+02  0.28515899125E+03  0.26299714054E+03 0.  0.
         25    1    3    3    0    0  0.48356510562E+01  0.70204452198E+02 -0.82737661772E+02  0.16566555890E+03  0.12509000000E+03 0.  0.
         25    1    4    4    0    0 -0.70181940847E+01 -0.18885888083E+02  0.80005621645E+02  0.14984772074E+03  0.12509000000E+03 0.  0.
         25    1    4    4    0    0  0.21825430285E+01 -0.51318564114E+02  0.48242417711E+01  0.13531127050E+03  0.12509000000E+03 0.  0.
<mgrwt>
<rscale>  2 0.45081970E+03</rscale>
<asrwt>0</asrwt>
<pdfrwt beam="1">  1       21 0.33302703E-01 0.45081970E+03</pdfrwt>
<pdfrwt beam="2">  1       21 0.32995025E-01 0.45081970E+03</pdfrwt>
<totfact> 0.71198073E+04</totfact>
</mgrwt>
</event>
<event>
 7    0  0.4732500E-002  0.4370290E+03  0.7546771E-02  0.1031662E+00
         21   -1    0    0  502  501  0.00000000000E+00  0.00000000000E+00  0.93424728769E+03  0.93424728769E+03  0.00000000000E+00 0. -1.
         21   -1    0    0  501  502 -0.00000000000E+00 -0.00000000000E+00 -0.51109148019E+02  0.51109148019E+02  0.00000000000E+00 0. -1.
      99926    2    1    2    0    0  0.00000000000E+00  0.00000000000E+00  0.88313813967E+03  0.98535643571E+03  0.43702898262E+03 0.  0.
      99925    2    3    3    0    0 -0.14311686294E+02 -0.85981995186E+02  0.65195274121E+03  0.70842336722E+03  0.26310371072E+03 0.  0.
         25    1    3    3    0    0  0.14311686294E+02  0.85981995186E+02  0.23118539846E+03  0.27693306849E+03  0.12509000000E+03 0.  0.
         25    1    4    4    0    0 -0.11241028856E+02 -0.63738460151E+02  0.25104971208E+03  0.28785832986E+03  0.12509000000E+03 0.  0.
         25    1    4    4    0    0 -0.30706574378E+01 -0.22243535035E+02  0.40090302913E+03  0.42056503737E+03  0.12509000000E+03 0.  0.
<mgrwt>
<rscale>  2 0.43702898E+03</rscale>
<asrwt>0</asrwt>
<pdfrwt beam="1">  1       21 0.13738930E+00 0.43702898E+03</pdfrwt>
<pdfrwt beam="2">  1       21 0.75160517E-02 0.43702898E+03</pdfrwt>
<totfact> 0.45846617E+04</totfact>
</mgrwt>
</event>
<event>
 7    0  0.4732500E-002  0.4620739E+03  0.7546771E-02  0.1024181E+00
         21   -1    0    0  502  501  0.00000000000E+00  0.00000000000E+00  0.25223610222E+04  0.25223610222E+04  0.00000000000E+00 0.  1.
         21   -1    0    0  501  502 -0.00000000000E+00 -0.00000000000E+00 -0.21161944697E+02  0.21161944697E+02  0.00000000000E+00 0.  1.
      99926    2    1    2    0    0  0.00000000000E+00  0.00000000000E+00  0.25011990775E+04  0.25435229669E+04  0.46207386620E+03 0.  0.
      99925    2    3    3    0    0 -0.59864839401E+02 -0.51812666249E+02  0.20581623793E+04  0.20764069476E+04  0.26299254992E+03 0.  0.
         25    1    4    4    0    0 -0.62585501638E+02 -0.26727002323E+02  0.12732967056E+04  0.12812350628E+04  0.12509000000E+03 0.  0.
         25    1    4    4    0    0  0.27206622366E+01 -0.25085663926E+02  0.78486567368E+03  0.79517188479E+03  0.12509000000E+03 0.  0.
         25    1    3    3    0    0  0.59864839401E+02  0.51812666249E+02  0.44303669820E+03  0.46711601925E+03  0.12509000000E+03 0.  0.
<mgrwt>
<rscale>  2 0.46207387E+03</rscale>
<asrwt>0</asrwt>
<pdfrwt beam="1">  1       21 0.37093524E+00 0.46207387E+03</pdfrwt>
<pdfrwt beam="2">  1       21 0.31120524E-02 0.46207387E+03</pdfrwt>
<totfact> 0.63407174E+03</totfact>
</mgrwt>
</event>
<event>
 7    0  0.4732500E-002  0.4562884E+03  0.7546771E-02  0.1025863E+00
         21   -1    0    0  502  501  0.00000000000E+00  0.00000000000E+00  0.38261468268E+03  0.38261468268E+03  0.00000000000E+00 0. -1.
         21   -1    0    0  501  502 -0.00000000000E+00 -0.00000000000E+00 -0.13603703110E+03  0.13603703110E+03  0.00000000000E+00 0. -1.
      99926    2    1    2    0    0  0.00000000000E+00  0.00000000000E+00  0.24657765158E+03  0.51865171379E+03  0.45628835396E+03 0.  0.
      99925    2    3    3    0    0 -0.10103428498E+03 -0.26878001313E+02  0.10266155918E+03  0.30118975517E+03  0.26314543353E+03 0.  0.
         25    1    4    4    0    0 -0.47939391996E+02 -0.31225850436E+02  0.90568188172E+02  0.16469166296E+03  0.12509000000E+03 0.  0.
         25    1    3    3    0    0  0.10103428498E+03  0.26878001313E+02  0.14391609240E+03  0.21746195862E+03  0.12509000000E+03 0.  0.
         25    1    4    4    0    0 -0.53094892983E+02  0.43478491223E+01  0.12093371004E+02  0.13649809220E+03  0.12509000000E+03 0.  0.
<mgrwt>
<rscale>  2 0.45628835E+03</rscale>
<asrwt>0</asrwt>
<pdfrwt beam="1">  1       21 0.56266865E-01 0.45628835E+03</pdfrwt>
<pdfrwt beam="2">  1       21 0.20005446E-01 0.45628835E+03</pdfrwt>
<totfact> 0.63329379E+04</totfact>
</mgrwt>
</event>
<event>
 7    0  0.4732500E-002  0.4596062E+03  0.7546771E-02  0.1024895E+00
         21   -1    0    0  502  501  0.00000000000E+00  0.00000000000E+00  0.21559488045E+03  0.21559488045E+03  0.00000000000E+00 0. -1.
         21   -1    0    0  501  502 -0.00000000000E+00 -0.00000000000E+00 -0.24494770531E+03  0.24494770531E+03  0.00000000000E+00 0. -1.
      99926    2    1    2    0    0  0.00000000000E+00  0.00000000000E+00 -0.29352824855E+02  0.46054258576E+03  0.45960622817E+03 0.  0.
      99925    2    3    3    0    0  0.27849812779E+02  0.56578388116E+02  0.80762272242E+02  0.28235849898E+03  0.26311034045E+03 0.  0.
         25    1    4    4    0    0 -0.23491721053E+02  0.11807299549E+02  0.44873482067E+02  0.13547106988E+03  0.12509000000E+03 0.  0.
         25    1    3    3    0    0 -0.27849812779E+02 -0.56578388116E+02 -0.11011509710E+03  0.17818408678E+03  0.12509000000E+03 0.  0.
         25    1    4    4    0    0  0.51341533832E+02  0.44771088567E+02  0.35888790175E+02  0.14688742910E+03  0.12509000000E+03 0.  0.
<mgrwt>
<rscale>  2 0.45960623E+03</rscale>
<asrwt>0</asrwt>
<pdfrwt beam="1">  1       21 0.31705130E-01 0.45960623E+03</pdfrwt>
<pdfrwt beam="2">  1       21 0.36021721E-01 0.45960623E+03</pdfrwt>
<totfact> 0.65693881E+04</totfact>
</mgrwt>
</event>
<event>
 7    0  0.4732500E-002  0.4367688E+03  0.7546771E-02  0.1031743E+00
         21   -1    0    0  502  501  0.00000000000E+00  0.00000000000E+00  0.48414576324E+02  0.48414576324E+02  0.00000000000E+00 0.  1.
         21   -1    0    0  501  502 -0.00000000000E+00 -0.00000000000E+00 -0.98507011698E+03  0.98507011698E+03  0.00000000000E+00 0.  1.
      99926    2    1    2    0    0  0.00000000000E+00  0.35527136788E-14 -0.93665554065E+03  0.10334846933E+04  0.43676882839E+03 0.  0.
      99925    2    3    3    0    0 -0.80127031860E+02  0.31154809226E+02 -0.69552031194E+03  0.74855545647E+03  0.26305095271E+03 0.  0.
         25    1    4    4    0    0 -0.19638021194E+02  0.84093467239E+01 -0.23608139058E+03  0.26802667790E+03  0.12509000000E+03 0.  0.
         25    1    3    3    0    0  0.80127031860E+02 -0.31154809226E+02 -0.24113522871E+03  0.28492923683E+03  0.12509000000E+03 0.  0.
         25    1    4    4    0    0 -0.60489010667E+02  0.22745462502E+02 -0.45943892136E+03  0.48052877857E+03  0.12509000000E+03 0.  0.
<mgrwt>
<rscale>  2 0.43676883E+03</rscale>
<asrwt>0</asrwt>
<pdfrwt beam="1">  1       21 0.71197910E-02 0.43676883E+03</pdfrwt>
<pdfrwt beam="2">  1       21 0.14486325E+00 0.43676883E+03</pdfrwt>
<totfact> 0.43798618E+04</totfact>
</mgrwt>
</event>
<event>
 7    0  0.4732500E-002  0.4598359E+03  0.7546771E-02  0.1024829E+00
         21   -1    0    0  502  501  0.00000000000E+00  0.00000000000E+00  0.13652858315E+03  0.13652858315E+03  0.00000000000E+00 0. -1.
         21   -1    0    0  501  502 -0.00000000000E+00 -0.00000000000E+00 -0.38718831793E+03  0.38718831793E+03  0.00000000000E+00 0. -1.
      99926    2    1    2    0    0  0.14210854715E-13  0.00000000000E+00 -0.25065973477E+03  0.52371690108E+03  0.45983593796E+03 0.  0.
      99925    2    3    3    0    0  0.73841615323E+02  0.45915366043E+02 -0.24730275326E+03  0.37133717009E+03  0.26300539373E+03 0.  0.
         25    1    4    4    0    0  0.72243559681E+02  0.45501136998E+02 -0.14599494779E+03  0.21036044843E+03  0.12509000000E+03 0.  0.
         25    1    4    4    0    0  0.15980556425E+01  0.41422904473E+00 -0.10130780546E+03  0.16097672166E+03  0.12509000000E+03 0.  0.
         25    1    3    3    0    0 -0.73841615323E+02 -0.45915366043E+02 -0.33569815151E+01  0.15237973099E+03  0.12509000000E+03 0.  0.
<mgrwt>
<rscale>  2 0.45983594E+03</rscale>
<asrwt>0</asrwt>
<pdfrwt beam="1">  1       21 0.20077733E-01 0.45983594E+03</pdfrwt>
<pdfrwt beam="2">  1       21 0.56939459E-01 0.45983594E+03</pdfrwt>
<totfact> 0.61250795E+04</totfact>
</mgrwt>
</event>
<event>
 7    0  0.4732500E-002  0.4459951E+03  0.7546771E-02  0.1028923E+00
         21   -1    0    0  502  501  0.00000000000E+00  0.00000000000E+00  0.17212354117E+04  0.17212354117E+04  0.00000000000E+00 0.  1.
         21   -1    0    0  501  502 -0.00000000000E+00 -0.00000000000E+00 -0.28890824360E+02  0.28890824360E+02  0.00000000000E+00 0.  1.
      99926    2    1    2    0    0  0.00000000000E+00  0.00000000000E+00  0.16923445874E+04  0.17501262361E+04  0.44599511192E+03 0.  0.
      99925    2    3    3    0    0  0.63282382347E+02  0.16388359935E+02  0.75410615706E+03  0.80133115892E+03  0.26302526852E+03 0.  0.
         25    1    4    4    0    0  0.83975938929E+01  0.14721332038E+02  0.46068823750E+03  0.47766975776E+03  0.12509000000E+03 0.  0.
         25    1    4    4    0    0  0.54884788454E+02  0.16670278963E+01  0.29341791956E+03  0.32366140116E+03  0.12509000000E+03 0.  0.
         25    1    3    3    0    0 -0.63282382347E+02 -0.16388359935E+02  0.93823843032E+03  0.94879507719E+03  0.12509000000E+03 0.  0.
<mgrwt>
<rscale>  2 0.44599511E+03</rscale>
<asrwt>0</asrwt>
<pdfrwt beam="1">  1       21 0.25312279E+00 0.44599511E+03</pdfrwt>
<pdfrwt beam="2">  1       21 0.42486518E-02 0.44599511E+03</pdfrwt>
<totfact> 0.19570620E+04</totfact>
</mgrwt>
</event>
<event>
 7    0  0.4732500E-002  0.4547435E+03  0.7546771E-02  0.1026317E+00
         21   -1    0    0  502  501  0.00000000000E+00  0.00000000000E+00  0.65679360171E+03  0.65679360171E+03  0.00000000000E+00 0.  1.
         21   -1    0    0  501  502 -0.00000000000E+00 -0.00000000000E+00 -0.78712573539E+02  0.78712573539E+02  0.00000000000E+00 0.  1.
      99926    2    1    2    0    0 -0.14210854715E-13  0.00000000000E+00  0.57808102817E+03  0.73550617525E+03  0.45474350869E+03 0.  0.
      99925    2    3    3    0    0  0.64546926599E+02 -0.58100527370E+02  0.48043039733E+03  0.55460528852E+03  0.26311914102E+03 0.  0.
         25    1    4    4    0    0  0.16006212699E+02 -0.58313608974E+02  0.29100993033E+03  0.32247629910E+03  0.12509000000E+03 0.  0.
         25    1    3    3    0    0 -0.64546926599E+02  0.58100527370E+02  0.97650630847E+02  0.18090088673E+03  0.12509000000E+03 0.  0.
         25    1    4    4    0    0  0.48540713900E+02  0.21308160390E+00  0.18942046700E+03  0.23212898942E+03  0.12509000000E+03 0.  0.
<mgrwt>
<rscale>  2 0.45474351E+03</rscale>
<asrwt>0</asrwt>
<pdfrwt beam="1">  1       21 0.96587291E-01 0.45474351E+03</pdfrwt>
<pdfrwt beam="2">  1       21 0.11575379E-01 0.45474351E+03</pdfrwt>
<totfact> 0.51120269E+04</totfact>
</mgrwt>
</event>
<event>
 7    0  0.4732500E-002  0.4589052E+03  0.7546771E-02  0.1025099E+00
         21   -1    0    0  502  501  0.00000000000E+00  0.00000000000E+00  0.12105664897E+04  0.12105664897E+04  0.00000000000E+00 0. -1.
         21   -1    0    0  501  502 -0.00000000000E+00 -0.00000000000E+00 -0.43490790323E+02  0.43490790323E+02  0.00000000000E+00 0. -1.
      99926    2    1    2    0    0  0.44408920985E-14  0.00000000000E+00  0.11670756994E+04  0.12540572800E+04  0.45890519010E+03 0.  0.
      99925    2    3    3    0    0 -0.76791105107E+01 -0.58954309328E+02  0.45692564891E+03  0.53052761124E+03  0.26295231190E+03 0.  0.
         25    1    3    3    0    0  0.76791105107E+01  0.58954309328E+02  0.71015005045E+03  0.72352966877E+03  0.12509000000E+03 0.  0.
         25    1    4    4    0    0  0.25520279697E+02 -0.26546830655E+02  0.17134966179E+03  0.21532355559E+03  0.12509000000E+03 0.  0.
         25    1    4    4    0    0 -0.33199390208E+02 -0.32407478673E+02  0.28557598712E+03  0.31520405566E+03  0.12509000000E+03 0.  0.
<mgrwt>
<rscale>  2 0.45890519E+03</rscale>
<asrwt>0</asrwt>
<pdfrwt beam="1">  1       21 0.17802446E+00 0.45890519E+03</pdfrwt>
<pdfrwt beam="2">  1       21 0.63957053E-02 0.45890519E+03</pdfrwt>
<totfact> 0.29569545E+04</totfact>
</mgrwt>
</event>
<event>
 7    0  0.4732500E-002  0.4511628E+03  0.7546771E-02  0.1027376E+00
         21   -1    0    0  502  501  0.00000000000E+00  0.00000000000E+00  0.60039348935E+03  0.60039348935E+03  0.00000000000E+00 0. -1.
         21   -1    0    0  501  502 -0.00000000000E+00 -0.00000000000E+00 -0.84756027826E+02  0.84756027826E+02  0.00000000000E+00 0. -1.
      99926    2    1    2    0    0  0.00000000000E+00  0.14210854715E-13  0.51563746153E+03  0.68514951718E+03  0.45116279674E+03 0.  0.
      99925    2    3    3    0    0 -0.73576358913E+02  0.80890871459E+02  0.32027153705E+03  0.42868866983E+03  0.26314122543E+03 0.  0.
         25    1    3    3    0    0  0.73576358913E+02 -0.80890871459E+02  0.19536592448E+03  0.25646084735E+03  0.12509000000E+03 0.  0.
         25    1    4    4    0    0 -0.57867055466E+01  0.55268600284E+02  0.12233291618E+03  0.18357819756E+03  0.12509000000E+03 0.  0.
         25    1    4    4    0    0 -0.67789653367E+02  0.25622271175E+02  0.19793862087E+03  0.24511047227E+03  0.12509000000E+03 0.  0.
<mgrwt>
<rscale>  2 0.45116280E+03</rscale>
<asrwt>0</asrwt>
<pdfrwt beam="1">  1       21 0.88293159E-01 0.45116280E+03</pdfrwt>
<pdfrwt beam="2">  1       21 0.12464122E-01 0.45116280E+03</pdfrwt>
<totfact> 0.55370799E+04</totfact>
</mgrwt>
</event>
<event>
 7    0  0.4732500E-002  0.4716342E+03  0.7546771E-02  0.1021460E+00
         21   -1    0    0  502  501  0.00000000000E+00  0.00000000000E+00  0.34554291242E+03  0.34554291242E+03  0.00000000000E+00 0. -1.
         21   -1    0    0  501  502 -0.00000000000E+00 -0.00000000000E+00 -0.16093427531E+03  0.16093427531E+03  0.00000000000E+00 0. -1.
      99926    2    1    2    0    0  0.00000000000E+00  0.00000000000E+00  0.18460863710E+03  0.50647718773E+03  0.47163417264E+03 0.  0.
      99925    2    3    3    0    0 -0.50412612589E+02 -0.58227928779E+02  0.45269919476E+01  0.27407918813E+03  0.26299616824E+03 0.  0.
         25    1    3    3    0    0  0.50412612589E+02  0.58227928779E+02  0.18008164515E+03  0.23239799960E+03  0.12509000000E+03 0.  0.
         25    1    4    4    0    0  0.13749301834E+02 -0.28428711201E+02 -0.11264056683E+02  0.12950529717E+03  0.12509000000E+03 0.  0.
         25    1    4    4    0    0 -0.64161914422E+02 -0.29799217578E+02  0.15791048631E+02  0.14457389096E+03  0.12509000000E+03 0.  0.
<mgrwt>
<rscale>  2 0.47163417E+03</rscale>
<asrwt>0</asrwt>
<pdfrwt beam="1">  1       21 0.50815134E-01 0.47163417E+03</pdfrwt>
<pdfrwt beam="2">  1       21 0.23666805E-01 0.47163417E+03</pdfrwt>
<totfact> 0.56922065E+04</totfact>
</mgrwt>
</event>
<event>
 7    0  0.4732500E-002  0.4427629E+03  0.7546771E-02  0.1029902E+00
         21   -1    0    0  502  501  0.00000000000E+00  0.00000000000E+00  0.61580707710E+03  0.61580707710E+03  0.00000000000E+00 0.  1.
         21   -1    0    0  501  502 -0.00000000000E+00 -0.00000000000E+00 -0.79586205774E+02  0.79586205774E+02  0.00000000000E+00 0.  1.
      99926    2    1    2    0    0 -0.71054273576E-14 -0.14210854715E-13  0.53622087133E+03  0.69539328287E+03  0.44276291062E+03 0.  0.
      99925    2    3    3    0    0 -0.47239226472E+02 -0.64082283927E+02  0.24303139840E+03  0.36684243633E+03  0.26300385710E+03 0.  0.
         25    1    4    4    0    0  0.63424827290E+01 -0.49544381424E+02  0.92494040576E+02  0.16339378342E+03  0.12509000000E+03 0.  0.
         25    1    3    3    0    0  0.47239226472E+02  0.64082283927E+02  0.29318947293E+03  0.32855084655E+03  0.12509000000E+03 0.  0.
         25    1    4    4    0    0 -0.53581709201E+02 -0.14537902503E+02  0.15053735782E+03  0.20344865291E+03  0.12509000000E+03 0.  0.
<mgrwt>
<rscale>  2 0.44276291E+03</rscale>
<asrwt>0</asrwt>
<pdfrwt beam="1">  1       21 0.90559862E-01 0.44276291E+03</pdfrwt>
<pdfrwt beam="2">  1       21 0.11703854E-01 0.44276291E+03</pdfrwt>
<totfact> 0.58596789E+04</totfact>
</mgrwt>
</event>
<event>
 7    0  0.4732500E-002  0.4598498E+03  0.7546771E-02  0.1024825E+00
         21   -1    0    0  502  501  0.00000000000E+00  0.00000000000E+00  0.15566339759E+03  0.15566339759E+03  0.00000000000E+00 0.  1.
         21   -1    0    0  501  502 -0.00000000000E+00 -0.00000000000E+00 -0.33961388787E+03  0.33961388787E+03  0.00000000000E+00 0.  1.
      99926    2    1    2    0    0  0.17763568394E-14 -0.17763568394E-14 -0.18395049029E+03  0.49527728546E+03  0.45984976527E+03 0.  0.
      99925    2    3    3    0    0  0.15113803773E+02 -0.15993604045E+02  0.91991574471E+01  0.26410956074E+03  0.26303044147E+03 0.  0.
         25    1    4    4    0    0  0.20043116959E+02 -0.41759595809E+02  0.23695090278E+02  0.13547898650E+03  0.12509000000E+03 0.  0.
         25    1    4    4    0    0 -0.49293131856E+01  0.25765991764E+02 -0.14495932831E+02  0.12863057424E+03  0.12509000000E+03 0.  0.
         25    1    3    3    0    0 -0.15113803773E+02  0.15993604045E+02 -0.19314964773E+03  0.23116772473E+03  0.12509000000E+03 0.  0.
<mgrwt>
<rscale>  2 0.45984977E+03</rscale>
<asrwt>0</asrwt>
<pdfrwt beam="1">  1       21 0.22891676E-01 0.45984977E+03</pdfrwt>
<pdfrwt beam="2">  1       21 0.49943219E-01 0.45984977E+03</pdfrwt>
<totfact> 0.63137660E+04</totfact>
</mgrwt>
</event>
<event>
 7    0  0.4732500E-002  0.4690306E+03  0.7546771E-02  0.1022194E+00
         21   -1    0    0  502  501  0.00000000000E+00  0.00000000000E+00  0.43947181844E+02  0.43947181844E+02  0.00000000000E+00 0.  1.
         21   -1    0    0  501  502 -0.00000000000E+00 -0.00000000000E+00 -0.12514437486E+04  0.12514437486E+04  0.00000000000E+00 0.  1.
      99926    2    1    2    0    0  0.14210854715E-13  0.00000000000E+00 -0.12074965668E+04  0.12953909304E+04  0.46903060022E+03 0.  0.
      99925    2    3    3    0    0 -0.89356600522E+02 -0.82149586901E+02 -0.65822610285E+03  0.71912822359E+03  0.26296509809E+03 0.  0.
         25    1    4    4    0    0 -0.19234558076E+01 -0.36820748412E+02 -0.29929443104E+03  0.32647225265E+03  0.12509000000E+03 0.  0.
         25    1    3    3    0    0  0.89356600522E+02  0.82149586901E+02 -0.54927046391E+03  0.57626270685E+03  0.12509000000E+03 0.  0.
         25    1    4    4    0    0 -0.87433144715E+02 -0.45328838489E+02 -0.35893167181E+03  0.39265597095E+03  0.12509000000E+03 0.  0.
<mgrwt>
<rscale>  2 0.46903060E+03</rscale>
<asrwt>0</asrwt>
<pdfrwt beam="1">  1       21 0.64628204E-02 0.46903060E+03</pdfrwt>
<pdfrwt beam="2">  1       21 0.18403586E+00 0.46903060E+03</pdfrwt>
<totfact> 0.26262509E+04</totfact>
</mgrwt>
</event>
<event>
 7    0  0.4732500E-002  0.4536665E+03  0.7546771E-02  0.1026634E+00
         21   -1    0    0  502  501  0.00000000000E+00  0.00000000000E+00  0.95354265546E+03  0.95354265546E+03  0.00000000000E+00 0. -1.
         21   -1    0    0  501  502 -0.00000000000E+00 -0.00000000000E+00 -0.53960160880E+02  0.53960160880E+02  0.00000000000E+00 0. -1.
      99926    2    1    2    0    0  0.00000000000E+00 -0.66613381478E-15  0.89958249458E+03  0.10075028163E+04  0.45366646380E+03 0.  0.
      99925    2    3    3    0    0 -0.99168718020E+02  0.15766789575E+01  0.68192529982E+03  0.73757859905E+03  0.26298888701E+03 0.  0.
         25    1    4    4    0    0 -0.27500739762E+02 -0.34021875887E+02  0.31433401666E+03  0.34112631217E+03  0.12509000000E+03 0.  0.
         25    1    4    4    0    0 -0.71667978257E+02  0.35598554845E+02  0.36759128316E+03  0.39645228688E+03  0.12509000000E+03 0.  0.
         25    1    3    3    0    0  0.99168718020E+02 -0.15766789575E+01  0.21765719476E+03  0.26992421729E+03  0.12509000000E+03 0.  0.
<mgrwt>
<rscale>  2 0.45366646E+03</rscale>
<asrwt>0</asrwt>
<pdfrwt beam="1">  1       21 0.14022685E+00 0.45366646E+03</pdfrwt>
<pdfrwt beam="2">  1       21 0.79353183E-02 0.45366646E+03</pdfrwt>
<totfact> 0.39283719E+04</totfact>
</mgrwt>
</event>
<event>
 7    0  0.4732500E-002  0.4590522E+03  0.7546771E-02  0.1025056E+00
         21   -1    0    0  502  501  0.00000000000E+00  0.00000000000E+00  0.22313979324E+03  0.22313979324E+03  0.00000000000E+00 0.  1.
         21   -1    0    0  501  502 -0.00000000000E+00 -0.00000000000E+00 -0.23609516112E+03  0.23609516112E+03  0.00000000000E+00 0.  1.
      99926    2    1    2    0    0  0.00000000000E+00  0.00000000000E+00 -0.12955367883E+02  0.45923495436E+03  0.45905217759E+03 0.  0.
      99925    2    3    3    0    0 -0.37922414254E+02 -0.10982972887E+03  0.52763545453E+01  0.28753584939E+03  0.26296073075E+03 0.  0.
         25    1    3    3    0    0  0.37922414254E+02  0.10982972887E+03 -0.18231722428E+02  0.17169910498E+03  0.12509000000E+03 0.  0.
         25    1    4    4    0    0  0.12142876346E+02 -0.25404444283E+02  0.84968879115E+01  0.12850113011E+03  0.12509000000E+03 0.  0.
         25    1    4    4    0    0 -0.50065290600E+02 -0.84425284589E+02 -0.32205333663E+01  0.15903471928E+03  0.12509000000E+03 0.  0.
<mgrwt>
<rscale>  2 0.45905218E+03</rscale>
<asrwt>0</asrwt>
<pdfrwt beam="1">  1       21 0.32814676E-01 0.45905218E+03</pdfrwt>
<pdfrwt beam="2">  1       21 0.34719876E-01 0.45905218E+03</pdfrwt>
<totfact> 0.66074359E+04</totfact>
</mgrwt>
</event>
<event>
 7    0  0.4732500E-002  0.4325643E+03  0.7546771E-02  0.1033053E+00
         21   -1    0    0  502  501  0.00000000000E+00  0.00000000000E+00  0.55600550982E+02  0.55600550982E+02  0.00000000000E+00 0. -1.
         21   -1    0    0  501  502 -0.00000000000E+00 -0.00000000000E+00 -0.84132219168E+03  0.84132219168E+03  0.00000000000E+00 0. -1.
      99926    2    1    2    0    0 -0.71054273576E-14  0.00000000000E+00 -0.78572164070E+03  0.89692274266E+03  0.43256434162E+03 0.  0.
      99925    2    3    3    0    0  0.39413867529E+02  0.69858467730E+02 -0.41879143931E+03  0.50104531307E+03  0.26310925040E+03 0.  0.
         25    1    3    3    0    0 -0.39413867529E+02 -0.69858467730E+02 -0.36693020139E+03  0.39587742959E+03  0.12509000000E+03 0.  0.
         25    1    4    4    0    0  0.56183315348E+02  0.51719158607E+02 -0.20254367642E+03  0.25000577043E+03  0.12509000000E+03 0.  0.
         25    1    4    4    0    0 -0.16769447818E+02  0.18139309124E+02 -0.21624776289E+03  0.25103954264E+03  0.12509000000E+03 0.  0.
<mgrwt>
<rscale>  2 0.43256434E+03</rscale>
<asrwt>0</asrwt>
<pdfrwt beam="1">  1       21 0.81765524E-02 0.43256434E+03</pdfrwt>
<pdfrwt beam="2">  1       21 0.12372384E+00 0.43256434E+03</pdfrwt>
<totfact> 0.51896825E+04</totfact>
</mgrwt>
</event>
<event>
 7    0  0.4732500E-002  0.4509930E+03  0.7546771E-02  0.1027426E+00
         21   -1    0    0  502  501  0.00000000000E+00  0.00000000000E+00  0.49962902316E+03  0.49962902316E+03  0.00000000000E+00 0. -1.
         21   -1    0    0  501  502 -0.00000000000E+00 -0.00000000000E+00 -0.10177286023E+03  0.10177286023E+03  0.00000000000E+00 0. -1.
      99926    2    1    2    0    0  0.00000000000E+00  0.00000000000E+00  0.39785616293E+03  0.60140188339E+03  0.45099301431E+03 0.  0.
      99925    2    3    3    0    0  0.77109114745E+02 -0.68302418072E+02  0.20245063623E+03  0.34754786263E+03  0.26304414233E+03 0.  0.
         25    1    4    4    0    0  0.75811981224E+02 -0.56192777145E+02  0.11737822091E+03  0.19578110109E+03  0.12509000000E+03 0.  0.
         25    1    4    4    0    0  0.12971335212E+01 -0.12109640927E+02  0.85072415323E+02  0.15176676154E+03  0.12509000000E+03 0.  0.
         25    1    3    3    0    0 -0.77109114745E+02  0.68302418072E+02  0.19540552670E+03  0.25385402076E+03  0.12509000000E+03 0.  0.
<mgrwt>
<rscale>  2 0.45099301E+03</rscale>
<asrwt>0</asrwt>
<pdfrwt beam="1">  1       21 0.73474855E-01 0.45099301E+03</pdfrwt>
<pdfrwt beam="2">  1       21 0.14966597E-01 0.45099301E+03</pdfrwt>
<totfact> 0.60484268E+04</totfact>
</mgrwt>
</event>
<event>
 7    0  0.4732500E-002  0.4648349E+03  0.7546771E-02  0.1023388E+00
         21   -1    0    0  502  501  0.00000000000E+00  0.00000000000E+00  0.69229366626E+02  0.69229366626E+02  0.00000000000E+00 0. -1.
         21   -1    0    0  501  502 -0.00000000000E+00 -0.00000000000E+00 -0.78027391508E+03  0.78027391508E+03  0.00000000000E+00 0. -1.
      99926    2    1    2    0    0  0.00000000000E+00 -0.35527136788E-14 -0.71104454845E+03  0.84950328170E+03  0.46483489084E+03 0.  0.
      99925    2    3    3    0    0  0.77674582010E+02 -0.29990911092E+02 -0.60699806189E+03  0.66673026700E+03  0.26296350765E+03 0.  0.
         25    1    3    3    0    0 -0.77674582010E+02  0.29990911092E+02 -0.10404648656E+03  0.18277301471E+03  0.12509000000E+03 0.  0.
         25    1    4    4    0    0  0.41358456654E+02  0.10678669755E+02 -0.22329676775E+03  0.25948701415E+03  0.12509000000E+03 0.  0.
         25    1    4    4    0    0  0.36316125356E+02 -0.40669580848E+02 -0.38370129414E+03  0.40724325285E+03  0.12509000000E+03 0.  0.
<mgrwt>
<rscale>  2 0.46483489E+03</rscale>
<asrwt>0</asrwt>
<pdfrwt beam="1">  1       21 0.10180789E-01 0.46483489E+03</pdfrwt>
<pdfrwt beam="2">  1       21 0.11474617E+00 0.46483489E+03</pdfrwt>
<totfact> 0.42116917E+04</totfact>
</mgrwt>
</event>
<event>
 7    0  0.4732500E-002  0.4595182E+03  0.7546771E-02  0.1024921E+00
         21   -1    0    0  502  501  0.00000000000E+00  0.00000000000E+00  0.40071313205E+02  0.40071313205E+02  0.00000000000E+00 0. -1.
         21   -1    0    0  501  502 -0.00000000000E+00 -0.00000000000E+00 -0.13173821471E+04  0.13173821471E+04  0.00000000000E+00 0. -1.
      99926    2    1    2    0    0  0.00000000000E+00  0.00000000000E+00 -0.12773108339E+04  0.13574534603E+04  0.45951815036E+03 0.  0.
      99925    2    3    3    0    0  0.18540545638E+02 -0.92307651201E+02 -0.10094934654E+04  0.10472307898E+04  0.26220376847E+03 0.  0.
         25    1    4    4    0    0  0.97551006800E+00 -0.68468204799E+02 -0.40946929665E+03  0.43359135103E+03  0.12509000000E+03 0.  0.
         25    1    3    3    0    0 -0.18540545638E+02  0.92307651201E+02 -0.26781736849E+03  0.31022267046E+03  0.12509000000E+03 0.  0.
         25    1    4    4    0    0  0.17565035570E+02 -0.23839446403E+02 -0.60002416876E+03  0.61363943882E+03  0.12509000000E+03 0.  0.
<mgrwt>
<rscale>  2 0.45951815E+03</rscale>
<asrwt>0</asrwt>
<pdfrwt beam="1">  1       21 0.58928401E-02 0.45951815E+03</pdfrwt>
<pdfrwt beam="2">  1       21 0.19373267E+00 0.45951815E+03</pdfrwt>
<totfact> 0.26543678E+04</totfact>
</mgrwt>
</event>
<event>
 7    0  0.4732500E-002  0.4587781E+03  0.7546771E-02  0.1025136E+00
         21   -1    0    0  502  501  0.00000000000E+00  0.00000000000E+00  0.12431088162E+03  0.12431088162E+03  0.00000000000E+00 0.  1.
         21   -1    0    0  501  502 -0.00000000000E+00 -0.00000000000E+00 -0.42328816595E+03  0.42328816595E+03  0.00000000000E+00 0.  1.
      99926    2    1    2    0    0  0.14210854715E-13 -0.71054273576E-14 -0.29897728433E+03  0.54759904757E+03  0.45877805129E+03 0.  0.
      99925    2    3    3    0    0  0.89047234811E+02 -0.56450835888E+02 -0.12822306363E+03  0.31112363893E+03  0.26313619621E+03 0.  0.
         25    1    4    4    0    0  0.87974956594E+01 -0.17188961034E+02 -0.81183512141E+02  0.15036996726E+03  0.12509000000E+03 0.  0.
         25    1    4    4    0    0  0.80249739152E+02 -0.39261874854E+02 -0.47039551487E+02  0.16075367167E+03  0.12509000000E+03 0.  0.
         25    1    3    3    0    0 -0.89047234811E+02  0.56450835888E+02 -0.17075422070E+03  0.23647540863E+03  0.12509000000E+03 0.  0.
<mgrwt>
<rscale>  2 0.45877805E+03</rscale>
<asrwt>0</asrwt>
<pdfrwt beam="1">  1       21 0.18281012E-01 0.45877805E+03</pdfrwt>
<pdfrwt beam="2">  1       21 0.62248259E-01 0.45877805E+03</pdfrwt>
<totfact> 0.60205401E+04</totfact>
</mgrwt>
</event>
<event>
 7    0  0.4732500E-002  0.4526104E+03  0.7546771E-02  0.1026946E+00
         21   -1    0    0  502  501  0.00000000000E+00  0.00000000000E+00  0.35715631278E+03  0.35715631278E+03  0.00000000000E+00 0. -1.
         21   -1    0    0  501  502 -0.00000000000E+00 -0.00000000000E+00 -0.14339392984E+03  0.14339392984E+03  0.00000000000E+00 0. -1.
      99926    2    1    2    0    0 -0.71054273576E-14  0.00000000000E+00  0.21376238294E+03  0.50055024262E+03  0.45261041639E+03 0.  0.
      99925    2    3    3    0    0  0.45241396425E+02  0.10106860957E+03  0.14206190920E+03  0.31875333993E+03  0.26298375973E+03 0.  0.
         25    1    4    4    0    0  0.13158930098E+02  0.52126484422E+02  0.11456444556E+03  0.17794057465E+03  0.12509000000E+03 0.  0.
         25    1    3    3    0    0 -0.45241396425E+02 -0.10106860957E+03  0.71700473742E+02  0.18179690268E+03  0.12509000000E+03 0.  0.
         25    1    4    4    0    0  0.32082466328E+02  0.48942125148E+02  0.27497463641E+02  0.14081276528E+03  0.12509000000E+03 0.  0.
<mgrwt>
<rscale>  2 0.45261042E+03</rscale>
<asrwt>0</asrwt>
<pdfrwt beam="1">  1       21 0.52522987E-01 0.45261042E+03</pdfrwt>
<pdfrwt beam="2">  1       21 0.21087343E-01 0.45261042E+03</pdfrwt>
<totfact> 0.66484174E+04</totfact>
</mgrwt>
</event>
<event>
 6    0  0.4732500E-002  0.4557051E+03  0.7546771E-02  0.1026034E+00
         21   -1    0    0  502  501  0.00000000000E+00  0.00000000000E+00  0.25093030519E+03  0.25093030519E+03  0.00000000000E+00 0.  1.
         21   -1    0    0  501  502 -0.00000000000E+00 -0.00000000000E+00 -0.20689723726E+03  0.20689723726E+03  0.00000000000E+00 0.  1.
      99926    2    1    2    0    0  0.00000000000E+00  0.00000000000E+00  0.44033067938E+02  0.45782754245E+03  0.45570511030E+03 0.  0.
         25    1    3    3    0    0 -0.31537525967E+02 -0.48440123652E+02  0.21970409327E+02  0.13953948584E+03  0.12509000000E+03 0.  0.
         25    1    3    3    0    0 -0.30070820701E+02  0.55984761072E+02 -0.64043428174E+02  0.15423234590E+03  0.12509000000E+03 0.  0.
         25    1    3    3    0    0  0.61608346668E+02 -0.75446374195E+01  0.86106086784E+02  0.16405571070E+03  0.12509000000E+03 0.  0.
<mgrwt>
<rscale>  2 0.45570511E+03</rscale>
<asrwt>0</asrwt>
<pdfrwt beam="1">  1       21 0.36901516E-01 0.45570511E+03</pdfrwt>
<pdfrwt beam="2">  1       21 0.30426064E-01 0.45570511E+03</pdfrwt>
<totfact> 0.67956034E+04</totfact>
</mgrwt>
</event>
<event>
 7    0  0.4732500E-002  0.4647287E+03  0.7546771E-02  0.1023419E+00
         21   -1    0    0  502  501  0.00000000000E+00  0.00000000000E+00  0.29908787716E+02  0.29908787716E+02  0.00000000000E+00 0. -1.
         21   -1    0    0  501  502 -0.00000000000E+00 -0.00000000000E+00 -0.18052614615E+04  0.18052614615E+04  0.00000000000E+00 0. -1.
      99926    2    1    2    0    0  0.00000000000E+00  0.14210854715E-13 -0.17753526738E+04  0.18351702492E+04  0.46472865985E+03 0.  0.
      99925    2    3    3    0    0 -0.66046394565E+02  0.85436211988E+02 -0.13323409657E+04  0.13623400956E+04  0.26301447617E+03 0.  0.
         25    1    3    3    0    0  0.66046394565E+02 -0.85436211988E+02 -0.44301170802E+03  0.47283015354E+03  0.12509000000E+03 0.  0.
         25    1    4    4    0    0  0.11885026528E+01  0.30398724001E+02 -0.50879882107E+03  0.52483258605E+03  0.12509000000E+03 0.  0.
         25    1    4    4    0    0 -0.67234897217E+02  0.55037487987E+02 -0.82354214467E+03  0.83750750960E+03  0.12509000000E+03 0.  0.
<mgrwt>
<rscale>  2 0.46472866E+03</rscale>
<asrwt>0</asrwt>
<pdfrwt beam="1">  1       21 0.43983507E-02 0.46472866E+03</pdfrwt>
<pdfrwt beam="2">  1       21 0.26547965E+00 0.46472866E+03</pdfrwt>
<totfact> 0.15397179E+04</totfact>
</mgrwt>
</event>
<event>
 7    0  0.4732500E-002  0.4526882E+03  0.7546771E-02  0.1026923E+00
         21   -1    0    0  502  501  0.00000000000E+00  0.00000000000E+00  0.13986541158E+04  0.13986541158E+04  0.00000000000E+00 0. -1.
         21   -1    0    0  501  502 -0.00000000000E+00 -0.00000000000E+00 -0.36629257112E+02  0.36629257112E+02  0.00000000000E+00 0. -1.
      99926    2    1    2    0    0  0.71054273576E-14  0.00000000000E+00  0.13620248587E+04  0.14352833729E+04  0.45268824247E+03 0.  0.
      99925    2    3    3    0    0  0.36502191689E+02  0.10413635635E+03  0.89587854886E+03  0.94019077452E+03  0.26302761734E+03 0.  0.
         25    1    4    4    0    0 -0.10900534557E+02  0.66057461749E+02  0.53332175653E+03  0.55187137451E+03  0.12509000000E+03 0.  0.
         25    1    3    3    0    0 -0.36502191689E+02 -0.10413635635E+03  0.46614630982E+03  0.49509259838E+03  0.12509000000E+03 0.  0.
         25    1    4    4    0    0  0.47402726246E+02  0.38078894596E+02  0.36255679232E+03  0.38831940002E+03  0.12509000000E+03 0.  0.
<mgrwt>
<rscale>  2 0.45268824E+03</rscale>
<asrwt>0</asrwt>
<pdfrwt beam="1">  1       21 0.20568439E+00 0.45268824E+03</pdfrwt>
<pdfrwt beam="2">  1       21 0.53866564E-02 0.45268824E+03</pdfrwt>
<totfact> 0.25868320E+04</totfact>
</mgrwt>
</event>
<event>
 7    0  0.4732500E-002  0.4568888E+03  0.7546771E-02  0.1025687E+00
         21   -1    0    0  502  501  0.00000000000E+00  0.00000000000E+00  0.29815946453E+03  0.29815946453E+03  0.00000000000E+00 0. -1.
         21   -1    0    0  501  502 -0.00000000000E+00 -0.00000000000E+00 -0.17502998925E+03  0.17502998925E+03  0.00000000000E+00 0. -1.
      99926    2    1    2    0    0  0.35527136788E-14  0.00000000000E+00  0.12312947528E+03  0.47318945378E+03  0.45688881742E+03 0.  0.
      99925    2    3    3    0    0 -0.29701620277E+02  0.97380872642E+02  0.22222695479E+02  0.28293986268E+03  0.26305113019E+03 0.  0.
         25    1    4    4    0    0  0.21086276919E+02  0.37227905316E+02  0.27540341556E+02  0.13504268407E+03  0.12509000000E+03 0.  0.
         25    1    3    3    0    0  0.29701620277E+02 -0.97380872642E+02  0.10090677980E+03  0.19024959110E+03  0.12509000000E+03 0.  0.
         25    1    4    4    0    0 -0.50787897196E+02  0.60152967326E+02 -0.53176460774E+01  0.14789717861E+03  0.12509000000E+03 0.  0.
<mgrwt>
<rscale>  2 0.45688882E+03</rscale>
<asrwt>0</asrwt>
<pdfrwt beam="1">  1       21 0.43846980E-01 0.45688882E+03</pdfrwt>
<pdfrwt beam="2">  1       21 0.25739704E-01 0.45688882E+03</pdfrwt>
<totfact> 0.66201638E+04</totfact>
</mgrwt>
</event>
<event>
 7    0  0.4732500E-002  0.4674432E+03  0.7546771E-02  0.1022644E+00
         21   -1    0    0  502  501  0.00000000000E+00  0.00000000000E+00  0.21464664587E+03  0.21464664587E+03  0.00000000000E+00 0. -1.
         21   -1    0    0  501  502 -0.00000000000E+00 -0.00000000000E+00 -0.25449168621E+03  0.25449168621E+03  0.00000000000E+00 0. -1.
      99926    2    1    2    0    0  0.00000000000E+00  0.00000000000E+00 -0.39845040331E+02  0.46913833208E+03  0.46744320231E+03 0.  0.
      99925    2    3    3    0    0 -0.56432427626E+02 -0.10757624536E+03  0.25133834118E+01  0.28969750168E+03  0.26298490057E+03 0.  0.
         25    1    4    4    0    0 -0.24680077786E+02 -0.66038496972E+02  0.39957942065E+02  0.14904474011E+03  0.12509000000E+03 0.  0.
         25    1    4    4    0    0 -0.31752349841E+02 -0.41537748392E+02 -0.37444558653E+02  0.14065276156E+03  0.12509000000E+03 0.  0.
         25    1    3    3    0    0  0.56432427626E+02  0.10757624536E+03 -0.42358423743E+02  0.17944083041E+03  0.12509000000E+03 0.  0.
<mgrwt>
<rscale>  2 0.46744320E+03</rscale>
<asrwt>0</asrwt>
<pdfrwt beam="1">  1       21 0.31565683E-01 0.46744320E+03</pdfrwt>
<pdfrwt beam="2">  1       21 0.37425248E-01 0.46744320E+03</pdfrwt>
<totfact> 0.61215246E+04</totfact>
</mgrwt>
</event>
<event>
 7    0  0.4732500E-002  0.4499791E+03  0.7546771E-02  0.1027728E+00
         21   -1    0    0  502  501  0.00000000000E+00  0.00000000000E+00  0.63584954764E+02  0.63584954764E+02  0.00000000000E+00 0. -1.
         21   -1    0    0  501  502 -0.00000000000E+00 -0.00000000000E+00 -0.79610493622E+03  0.79610493622E+03  0.00000000000E+00 0. -1.
      99926    2    1    2    0    0  0.00000000000E+00  0.14210854715E-13 -0.73251998145E+03  0.85968989098E+03  0.44997909443E+03 0.  0.
      99925    2    3    3    0    0  0.36831936863E+02 -0.10140284739E+03 -0.44461205492E+03  0.52775976085E+03  0.26308051383E+03 0.  0.
         25    1    4    4    0    0  0.28864343561E+02 -0.13683902577E+02 -0.23678676644E+03  0.26969590353E+03  0.12509000000E+03 0.  0.
         25    1    3    3    0    0 -0.36831936863E+02  0.10140284739E+03 -0.28790792653E+03  0.33193013014E+03  0.12509000000E+03 0.  0.
         25    1    4    4    0    0  0.79675933019E+01 -0.87718944809E+02 -0.20782528848E+03  0.25806385731E+03  0.12509000000E+03 0.  0.
<mgrwt>
<rscale>  2 0.44997909E+03</rscale>
<asrwt>0</asrwt>
<pdfrwt beam="1">  1       21 0.93507299E-02 0.44997909E+03</pdfrwt>
<pdfrwt beam="2">  1       21 0.11707424E+00 0.44997909E+03</pdfrwt>
<totfact> 0.46825956E+04</totfact>
</mgrwt>
</event>
<event>
 7    0  0.4732500E-002  0.4542151E+03  0.7546771E-02  0.1026472E+00
         21   -1    0    0  502  501  0.00000000000E+00  0.00000000000E+00  0.24837115990E+03  0.24837115990E+03  0.00000000000E+00 0. -1.
         21   -1    0    0  501  502 -0.00000000000E+00 -0.00000000000E+00 -0.20766438961E+03  0.20766438961E+03  0.00000000000E+00 0. -1.
      99926    2    1    2    0    0  0.00000000000E+00  0.00000000000E+00  0.40706770290E+02  0.45603554952E+03  0.45421512665E+03 0.  0.
      99925    2    3    3    0    0  0.34259277689E+02 -0.10706050137E+03  0.29057670963E+02  0.28745661051E+03  0.26296635835E+03 0.  0.
         25    1    4    4    0    0 -0.88243004512E+01 -0.82892216518E+02  0.28308420107E+02  0.15296359889E+03  0.12509000000E+03 0.  0.
         25    1    4    4    0    0  0.43083578140E+02 -0.24168284847E+02  0.74925085621E+00  0.13449301162E+03  0.12509000000E+03 0.  0.
         25    1    3    3    0    0 -0.34259277689E+02  0.10706050137E+03  0.11649099328E+02  0.16857893900E+03  0.12509000000E+03 0.  0.
<mgrwt>
<rscale>  2 0.45421513E+03</rscale>
<asrwt>0</asrwt>
<pdfrwt beam="1">  1       21 0.36525170E-01 0.45421513E+03</pdfrwt>
<pdfrwt beam="2">  1       21 0.30538881E-01 0.45421513E+03</pdfrwt>
<totfact> 0.68900475E+04</totfact>
</mgrwt>
</event>
<event>
 7    0  0.4732500E-002  0.4554032E+03  0.7546771E-02  0.1026123E+00
         21   -1    0    0  502  501  0.00000000000E+00  0.00000000000E+00  0.30263851014E+03  0.30263851014E+03  0.00000000000E+00 0. -1.
         21   -1    0    0  501  502 -0.00000000000E+00 -0.00000000000E+00 -0.17131997040E+03  0.17131997040E+03  0.00000000000E+00 0. -1.
      99926    2    1    2    0    0 -0.14210854715E-13  0.00000000000E+00  0.13131853974E+03  0.47395848055E+03  0.45540320860E+03 0.  0.
      99925    2    3    3    0    0  0.10826362308E+03 -0.32907292056E+02  0.90913070311E+02  0.30051104756E+03  0.26313076863E+03 0.  0.
         25    1    4    4    0    0  0.73307557327E+02 -0.53359215722E+02  0.57508338401E+02  0.16485120852E+03  0.12509000000E+03 0.  0.
         25    1    3    3    0    0 -0.10826362308E+03  0.32907292056E+02  0.40405469427E+02  0.17344743299E+03  0.12509000000E+03 0.  0.
         25    1    4    4    0    0  0.34956065748E+02  0.20451923666E+02  0.33404731911E+02  0.13565983904E+03  0.12509000000E+03 0.  0.
<mgrwt>
<rscale>  2 0.45540321E+03</rscale>
<asrwt>0</asrwt>
<pdfrwt beam="1">  1       21 0.44505663E-01 0.45540321E+03</pdfrwt>
<pdfrwt beam="2">  1       21 0.25194113E-01 0.45540321E+03</pdfrwt>
<totfact> 0.66928203E+04</totfact>
</mgrwt>
</event>
<event>
 7    0  0.4732500E-002  0.4589203E+03  0.7546771E-02  0.1025095E+00
         21   -1    0    0  502  501  0.00000000000E+00  0.00000000000E+00  0.83388005563E+02  0.83388005563E+02  0.00000000000E+00 0. -1.
         21   -1    0    0  501  502 -0.00000000000E+00 -0.00000000000E+00 -0.63140931553E+03  0.63140931553E+03  0.00000000000E+00 0. -1.
      99926    2    1    2    0    0  0.00000000000E+00  0.88817841970E-15 -0.54802130996E+03  0.71479732109E+03  0.45892031341E+03 0.  0.
      99925    2    3    3    0    0  0.99645533331E+02 -0.57657745310E+01 -0.43814737333E+03  0.52067811410E+03  0.26300209369E+03 0.  0.
         25    1    3    3    0    0 -0.99645533331E+02  0.57657745310E+01 -0.10987393664E+03  0.19411920699E+03  0.12509000000E+03 0.  0.
         25    1    4    4    0    0  0.81867024338E+02  0.72462546442E+01 -0.18961344447E+03  0.24156879828E+03  0.12509000000E+03 0.  0.
         25    1    4    4    0    0  0.17778508993E+02 -0.13012029175E+02 -0.24853392885E+03  0.27910931582E+03  0.12509000000E+03 0.  0.
<mgrwt>
<rscale>  2 0.45892031E+03</rscale>
<asrwt>0</asrwt>
<pdfrwt beam="1">  1       21 0.12262942E-01 0.45892031E+03</pdfrwt>
<pdfrwt beam="2">  1       21 0.92854312E-01 0.45892031E+03</pdfrwt>
<totfact> 0.50530450E+04</totfact>
</mgrwt>
</event>
<event>
 6    0  0.4732500E-002  0.4598740E+03  0.7546771E-02  0.1024818E+00
         21   -1    0    0  502  501  0.00000000000E+00  0.00000000000E+00  0.15434658795E+03  0.15434658795E+03  0.00000000000E+00 0.  1.
         21   -1    0    0  501  502 -0.00000000000E+00 -0.00000000000E+00 -0.34254739026E+03  0.34254739026E+03  0.00000000000E+00 0.  1.
      99926    2    1    2    0    0  0.35527136788E-14  0.00000000000E+00 -0.18820080231E+03  0.49689397820E+03  0.45987398664E+03 0.  0.
         25    1    3    3    0    0  0.33065046527E+02  0.38883876610E+02 -0.31520660078E+02  0.13873108258E+03  0.12509000000E+03 0.  0.
         25    1    3    3    0    0 -0.52195704974E+02  0.45008286683E+02 -0.40487940565E+01  0.14287770407E+03  0.12509000000E+03 0.  0.
         25    1    3    3    0    0  0.19130658447E+02 -0.83892163294E+02 -0.15263134818E+03  0.21528519155E+03  0.12509000000E+03 0.  0.
<mgrwt>
<rscale>  2 0.45987399E+03</rscale>
<asrwt>0</asrwt>
<pdfrwt beam="1">  1       21 0.22698027E-01 0.45987399E+03</pdfrwt>
<pdfrwt beam="2">  1       21 0.50374617E-01 0.45987399E+03</pdfrwt>
<totfact> 0.63015664E+04</totfact>
</mgrwt>
</event>
<event>
 7    0  0.4732500E-002  0.4635620E+03  0.7546771E-02  0.1023753E+00
         21   -1    0    0  502  501  0.00000000000E+00  0.00000000000E+00  0.74063314848E+02  0.74063314848E+02  0.00000000000E+00 0.  1.
         21   -1    0    0  501  502 -0.00000000000E+00 -0.00000000000E+00 -0.72535830629E+03  0.72535830629E+03  0.00000000000E+00 0.  1.
      99926    2    1    2    0    0  0.00000000000E+00  0.00000000000E+00 -0.65129499145E+03  0.79942162114E+03  0.46356203735E+03 0.  0.
      99925    2    3    3    0    0 -0.26706297125E+02  0.79182842137E+02 -0.25597896053E+03  0.37644949299E+03  0.26307003581E+03 0.  0.
         25    1    4    4    0    0 -0.20947010777E+02  0.94670575310E+01 -0.83273485319E+02  0.15202099821E+03  0.12509000000E+03 0.  0.
         25    1    4    4    0    0 -0.57592863477E+01  0.69715784606E+02 -0.17270547521E+03  0.22442849478E+03  0.12509000000E+03 0.  0.
         25    1    3    3    0    0  0.26706297125E+02 -0.79182842137E+02 -0.39531603091E+03  0.42297212815E+03  0.12509000000E+03 0.  0.
<mgrwt>
<rscale>  2 0.46356204E+03</rscale>
<asrwt>0</asrwt>
<pdfrwt beam="1">  1       21 0.10891664E-01 0.46356204E+03</pdfrwt>
<pdfrwt beam="2">  1       21 0.10667034E+00 0.46356204E+03</pdfrwt>
<totfact> 0.44711906E+04</totfact>
</mgrwt>
</event>
<event>
 7    0  0.4732500E-002  0.4433993E+03  0.7546771E-02  0.1029709E+00
         21   -1    0    0  502  501  0.00000000000E+00  0.00000000000E+00  0.27322248464E+03  0.27322248464E+03  0.00000000000E+00 0. -1.
         21   -1    0    0  501  502 -0.00000000000E+00 -0.00000000000E+00 -0.17989275201E+03  0.17989275201E+03  0.00000000000E+00 0. -1.
      99926    2    1    2    0    0  0.00000000000E+00  0.14210854715E-13  0.93329732626E+02  0.45311523665E+03  0.44339934448E+03 0.  0.
      99925    2    3    3    0    0  0.48853235630E+02  0.83297842969E+02  0.26528048886E+02  0.28154850815E+03  0.26313619248E+03 0.  0.
         25    1    3    3    0    0 -0.48853235630E+02 -0.83297842969E+02  0.66801683740E+02  0.17156672849E+03  0.12509000000E+03 0.  0.
         25    1    4    4    0    0  0.44744434885E+02  0.79695845744E+01  0.50999674544E-01  0.13309053096E+03  0.12509000000E+03 0.  0.
         25    1    4    4    0    0  0.41088007452E+01  0.75328258395E+02  0.26477049211E+02  0.14845797719E+03  0.12509000000E+03 0.  0.
<mgrwt>
<rscale>  2 0.44339934E+03</rscale>
<asrwt>0</asrwt>
<pdfrwt beam="1">  1       21 0.40179777E-01 0.44339934E+03</pdfrwt>
<pdfrwt beam="2">  1       21 0.26454816E-01 0.44339934E+03</pdfrwt>
<totfact> 0.75416974E+04</totfact>
</mgrwt>
</event>
<event>
 7    0  0.4732500E-002  0.4533329E+03  0.7546771E-02  0.1026733E+00
         21   -1    0    0  502  501  0.00000000000E+00  0.00000000000E+00  0.18485582400E+03  0.18485582400E+03  0.00000000000E+00 0. -1.
         21   -1    0    0  501  502 -0.00000000000E+00 -0.00000000000E+00 -0.27793378942E+03  0.27793378942E+03  0.00000000000E+00 0. -1.
      99926    2    1    2    0    0  0.00000000000E+00  0.00000000000E+00 -0.93077965422E+02  0.46278961342E+03  0.45333290046E+03 0.  0.
      99925    2    3    3    0    0  0.84629571419E+02 -0.72689355441E+02 -0.57620103703E+02  0.29146922698E+03  0.26303674111E+03 0.  0.
         25    1    4    4    0    0  0.35002502492E+02 -0.61832487103E+02  0.20109532478E+01  0.14387488897E+03  0.12509000000E+03 0.  0.
         25    1    3    3    0    0 -0.84629571419E+02  0.72689355441E+02 -0.35457861719E+02  0.17132038644E+03  0.12509000000E+03 0.  0.
         25    1    4    4    0    0  0.49627068927E+02 -0.10856868338E+02 -0.59631056951E+02  0.14759433801E+03  0.12509000000E+03 0.  0.
<mgrwt>
<rscale>  2 0.45333290E+03</rscale>
<asrwt>0</asrwt>
<pdfrwt beam="1">  1       21 0.27184680E-01 0.45333290E+03</pdfrwt>
<pdfrwt beam="2">  1       21 0.40872616E-01 0.45333290E+03</pdfrwt>
<totfact> 0.68882990E+04</totfact>
</mgrwt>
</event>
<event>
 7    0  0.4732500E-002  0.3979962E+03  0.7546771E-02  0.1044476E+00
         21   -1    0    0  502  501  0.00000000000E+00  0.00000000000E+00  0.38086735794E+03  0.38086735794E+03  0.00000000000E+00 0. -1.
         21   -1    0    0  501  502 -0.00000000000E+00 -0.00000000000E+00 -0.10397386413E+03  0.10397386413E+03  0.00000000000E+00 0. -1.
      99926    2    1    2    0    0 -0.71054273576E-14  0.00000000000E+00  0.27689349381E+03  0.48484122207E+03  0.39799623578E+03 0.  0.
      99925    2    3    3    0    0  0.38693723946E+02 -0.14903025345E+02  0.18716090229E+03  0.32540863281E+03  0.26294917859E+03 0.  0.
         25    1    3    3    0    0 -0.38693723946E+02  0.14903025345E+02  0.89732591522E+02  0.15943258926E+03  0.12509000000E+03 0.  0.
         25    1    4    4    0    0 -0.13094100437E+02  0.14640631367E+02  0.75297117594E+02  0.14731927087E+03  0.12509000000E+03 0.  0.
         25    1    4    4    0    0  0.51787824383E+02 -0.29543656712E+02  0.11186378470E+03  0.17808936193E+03  0.12509000000E+03 0.  0.
<mgrwt>
<rscale>  2 0.39799624E+03</rscale>
<asrwt>0</asrwt>
<pdfrwt beam="1">  1       21 0.56009905E-01 0.39799624E+03</pdfrwt>
<pdfrwt beam="2">  1       21 0.15290274E-01 0.39799624E+03</pdfrwt>
<totfact> 0.10722328E+05</totfact>
</mgrwt>
</event>
<event>
 7    0  0.4732500E-002  0.4506891E+03  0.7546771E-02  0.1027517E+00
         21   -1    0    0  502  501  0.00000000000E+00  0.00000000000E+00  0.45486097473E+03  0.45486097473E+03  0.00000000000E+00 0.  1.
         21   -1    0    0  501  502 -0.00000000000E+00 -0.00000000000E+00 -0.11163887200E+03  0.11163887200E+03  0.00000000000E+00 0.  1.
      99926    2    1    2    0    0 -0.14210854715E-13  0.44408920985E-15  0.34322210273E+03  0.56649984672E+03  0.45068909964E+03 0.  0.
      99925    2    3    3    0    0  0.85255888531E+02 -0.29776557833E+01  0.13201677719E+03  0.30662943556E+03  0.26327884140E+03 0.  0.
         25    1    3    3    0    0 -0.85255888531E+02  0.29776557833E+01  0.21120532554E+03  0.25987041116E+03  0.12509000000E+03 0.  0.
         25    1    4    4    0    0  0.16089794234E+02  0.15757978169E+02  0.31685751562E+02  0.13099118408E+03  0.12509000000E+03 0.  0.
         25    1    4    4    0    0  0.69166094297E+02 -0.18735633952E+02  0.10033102563E+03  0.17563825148E+03  0.12509000000E+03 0.  0.
<mgrwt>
<rscale>  2 0.45068910E+03</rscale>
<asrwt>0</asrwt>
<pdfrwt beam="1">  1       21 0.66891319E-01 0.45068910E+03</pdfrwt>
<pdfrwt beam="2">  1       21 0.16417481E-01 0.45068910E+03</pdfrwt>
<totfact> 0.62906552E+04</totfact>
</mgrwt>
</event>
<event>
 7    0  0.4732500E-002  0.4478253E+03  0.7546771E-02  0.1028373E+00
         21   -1    0    0  502  501  0.00000000000E+00  0.00000000000E+00  0.16622165566E+03  0.16622165566E+03  0.00000000000E+00 0.  1.
         21   -1    0    0  501  502 -0.00000000000E+00 -0.00000000000E+00 -0.30162656631E+03  0.30162656631E+03  0.00000000000E+00 0.  1.
      99926    2    1    2    0    0  0.00000000000E+00  0.00000000000E+00 -0.13540491065E+03  0.46784822198E+03  0.44782526612E+03 0.  0.
      99925    2    3    3    0    0 -0.15618892121E+02  0.72586263675E+02 -0.16526801441E+03  0.31934896766E+03  0.26297819509E+03 0.  0.
         25    1    4    4    0    0  0.15708230370E+02  0.10160897643E+02 -0.52164123753E+02  0.13681592104E+03  0.12509000000E+03 0.  0.
         25    1    4    4    0    0 -0.31327122491E+02  0.62425366032E+02 -0.11310389066E+03  0.18253304663E+03  0.12509000000E+03 0.  0.
         25    1    3    3    0    0  0.15618892121E+02 -0.72586263675E+02  0.29863103762E+02  0.14849925431E+03  0.12509000000E+03 0.  0.
<mgrwt>
<rscale>  2 0.44782527E+03</rscale>
<asrwt>0</asrwt>
<pdfrwt beam="1">  1       21 0.24444361E-01 0.44782527E+03</pdfrwt>
<pdfrwt beam="2">  1       21 0.44356848E-01 0.44782527E+03</pdfrwt>
<totfact> 0.71585161E+04</totfact>
</mgrwt>
</event>
<event>
 7    0  0.4732500E-002  0.4820505E+03  0.7546771E-02  0.1018573E+00
         21   -1    0    0  502  501  0.00000000000E+00  0.00000000000E+00  0.10646711095E+03  0.10646711095E+03  0.00000000000E+00 0. -1.
         21   -1    0    0  501  502 -0.00000000000E+00 -0.00000000000E+00 -0.54564422019E+03  0.54564422019E+03  0.00000000000E+00 0. -1.
      99926    2    1    2    0    0  0.00000000000E+00 -0.35527136788E-14 -0.43917710924E+03  0.65211133114E+03  0.48205046927E+03 0.  0.
      99925    2    3    3    0    0 -0.82539267952E+02 -0.12003689099E+02 -0.41688729523E+03  0.50012066296E+03  0.26337965238E+03 0.  0.
         25    1    4    4    0    0 -0.70272204998E+02 -0.34402253398E+02 -0.24517588240E+03  0.28614754804E+03  0.12509000000E+03 0.  0.
         25    1    4    4    0    0 -0.12267062954E+02  0.22398564299E+02 -0.17171141282E+03  0.21397311492E+03  0.12509000000E+03 0.  0.
         25    1    3    3    0    0  0.82539267952E+02  0.12003689099E+02 -0.22289814009E+02  0.15199066818E+03  0.12509000000E+03 0.  0.
<mgrwt>
<rscale>  2 0.48205047E+03</rscale>
<asrwt>0</asrwt>
<pdfrwt beam="1">  1       21 0.15656928E-01 0.48205047E+03</pdfrwt>
<pdfrwt beam="2">  1       21 0.80241797E-01 0.48205047E+03</pdfrwt>
<totfact> 0.45144929E+04</totfact>
</mgrwt>
</event>
<event>
 7    0  0.4732500E-002  0.4463073E+03  0.7546771E-02  0.1028829E+00
         21   -1    0    0  502  501  0.00000000000E+00  0.00000000000E+00  0.10134963806E+04  0.10134963806E+04  0.00000000000E+00 0.  1.
         21   -1    0    0  501  502 -0.00000000000E+00 -0.00000000000E+00 -0.49134411913E+02  0.49134411913E+02  0.00000000000E+00 0.  1.
      99926    2    1    2    0    0 -0.14210854715E-13 -0.19984014443E-14  0.96436196868E+03  0.10626307925E+04  0.44630728713E+03 0.  0.
      99925    2    3    3    0    0  0.85103108665E+02 -0.99389660473E+00  0.75743021327E+03  0.80628768955E+03  0.26297487221E+03 0.  0.
         25    1    4    4    0    0  0.13687842373E+02  0.22332875274E+02  0.41006320538E+03  0.42951770028E+03  0.12509000000E+03 0.  0.
         25    1    3    3    0    0 -0.85103108665E+02  0.99389660473E+00  0.20693175541E+03  0.25634310296E+03  0.12509000000E+03 0.  0.
         25    1    4    4    0    0  0.71415266292E+02 -0.23326771879E+02  0.34736700789E+03  0.37676998927E+03  0.12509000000E+03 0.  0.
<mgrwt>
<rscale>  2 0.44630729E+03</rscale>
<asrwt>0</asrwt>
<pdfrwt beam="1">  1       21 0.14904357E+00 0.44630729E+03</pdfrwt>
<pdfrwt beam="2">  1       21 0.72256495E-02 0.44630729E+03</pdfrwt>
<totfact> 0.39424719E+04</totfact>
</mgrwt>
</event>
<event>
 7    0  0.4732500E-002  0.4517645E+03  0.7546771E-02  0.1027197E+00
         21   -1    0    0  502  501  0.00000000000E+00  0.00000000000E+00  0.14680203633E+03  0.14680203633E+03  0.00000000000E+00 0.  1.
         21   -1    0    0  501  502 -0.00000000000E+00 -0.00000000000E+00 -0.34756188141E+03  0.34756188141E+03  0.00000000000E+00 0.  1.
      99926    2    1    2    0    0 -0.35527136788E-14  0.00000000000E+00 -0.20075984508E+03  0.49436391774E+03  0.45176450476E+03 0.  0.
      99925    2    3    3    0    0  0.28326645573E+02  0.70962248352E+02 -0.39647493125E+02  0.27655037914E+03  0.26281200306E+03 0.  0.
         25    1    3    3    0    0 -0.28326645573E+02 -0.70962248352E+02 -0.16111235196E+03  0.21781353859E+03  0.12509000000E+03 0.  0.
         25    1    4    4    0    0 -0.31217677609E+01  0.66586618229E+02 -0.40766343980E+02  0.14748873199E+03  0.12509000000E+03 0.  0.
         25    1    4    4    0    0  0.31448413334E+02  0.43756301227E+01  0.11188508542E+01  0.12906164716E+03  0.12509000000E+03 0.  0.
<mgrwt>
<rscale>  2 0.45176450E+03</rscale>
<asrwt>0</asrwt>
<pdfrwt beam="1">  1       21 0.21588535E-01 0.45176450E+03</pdfrwt>
<pdfrwt beam="2">  1       21 0.51112041E-01 0.45176450E+03</pdfrwt>
<totfact> 0.67382599E+04</totfact>
</mgrwt>
</event>
<event>
 7    0  0.4732500E-002  0.4525912E+03  0.7546771E-02  0.1026952E+00
         21   -1    0    0  502  501  0.00000000000E+00  0.00000000000E+00  0.50196939171E+02  0.50196939171E+02  0.00000000000E+00 0.  1.
         21   -1    0    0  501  502 -0.00000000000E+00 -0.00000000000E+00 -0.10201755906E+04  0.10201755906E+04  0.00000000000E+00 0.  1.
      99926    2    1    2    0    0  0.00000000000E+00  0.00000000000E+00 -0.96997865148E+03  0.10703725298E+04  0.45259117122E+03 0.  0.
      99925    2    3    3    0    0 -0.44025059336E+02  0.51320446537E+02 -0.81958133689E+03  0.86339703751E+03  0.26299977665E+03 0.  0.
         25    1    4    4    0    0 -0.21865750018E+02  0.21629148295E+02 -0.53574853692E+03  0.55101718121E+03  0.12509000000E+03 0.  0.
         25    1    4    4    0    0 -0.22159309318E+02  0.29691298242E+02 -0.28383279997E+03  0.31237985630E+03  0.12509000000E+03 0.  0.
         25    1    3    3    0    0  0.44025059336E+02 -0.51320446537E+02 -0.15039731459E+03  0.20697549231E+03  0.12509000000E+03 0.  0.
<mgrwt>
<rscale>  2 0.45259117E+03</rscale>
<asrwt>0</asrwt>
<pdfrwt beam="1">  1       21 0.73819035E-02 0.45259117E+03</pdfrwt>
<pdfrwt beam="2">  1       21 0.15002581E+00 0.45259117E+03</pdfrwt>
<totfact> 0.37233622E+04</totfact>
</mgrwt>
</event>
<event>
 7    0  0.4732500E-002  0.4014132E+03  0.7546771E-02  0.1043291E+00
         21   -1    0    0  502  501  0.00000000000E+00  0.00000000000E+00  0.70500048146E+03  0.70500048146E+03  0.00000000000E+00 0. -1.
         21   -1    0    0  501  502 -0.00000000000E+00 -0.00000000000E+00 -0.57139162191E+02  0.57139162191E+02  0.00000000000E+00 0. -1.
      99926    2    1    2    0    0  0.35527136788E-14  0.17763568394E-14  0.64786131927E+03  0.76213964365E+03  0.40141318790E+03 0.  0.
      99925    2    3    3    0    0  0.19664389315E+02  0.12145485270E+02  0.35173210631E+03  0.43984440650E+03  0.26308444710E+03 0.  0.
         25    1    4    4    0    0 -0.19414752542E+01  0.37261214741E+02  0.13773463599E+03  0.18976434202E+03  0.12509000000E+03 0.  0.
         25    1    3    3    0    0 -0.19664389315E+02 -0.12145485270E+02  0.29612921297E+03  0.32229523715E+03  0.12509000000E+03 0.  0.
         25    1    4    4    0    0  0.21605864570E+02 -0.25115729471E+02  0.21399747031E+03  0.25008006448E+03  0.12509000000E+03 0.  0.
<mgrwt>
<rscale>  2 0.40141319E+03</rscale>
<asrwt>0</asrwt>
<pdfrwt beam="1">  1       21 0.10367654E+00 0.40141319E+03</pdfrwt>
<pdfrwt beam="2">  1       21 0.84028184E-02 0.40141319E+03</pdfrwt>
<totfact> 0.77448620E+04</totfact>
</mgrwt>
</event>
<event>
 7    0  0.4732500E-002  0.4616514E+03  0.7546771E-02  0.1024303E+00
         21   -1    0    0  502  501  0.00000000000E+00  0.00000000000E+00  0.11566936619E+03  0.11566936619E+03  0.00000000000E+00 0. -1.
         21   -1    0    0  501  502 -0.00000000000E+00 -0.00000000000E+00 -0.46062757055E+03  0.46062757055E+03  0.00000000000E+00 0. -1.
      99926    2    1    2    0    0  0.71054273576E-14  0.00000000000E+00 -0.34495820437E+03  0.57629693674E+03  0.46165137987E+03 0.  0.
      99925    2    3    3    0    0 -0.42860646609E+02  0.20921617344E+02 -0.79192795969E+02  0.27871751961E+03  0.26293955142E+03 0.  0.
         25    1    4    4    0    0 -0.56864822394E+02  0.10321346794E+02 -0.62482269203E+02  0.15129996791E+03  0.12509000000E+03 0.  0.
         25    1    4    4    0    0  0.14004175786E+02  0.10600270550E+02 -0.16710526767E+02  0.12741755170E+03  0.12509000000E+03 0.  0.
         25    1    3    3    0    0  0.42860646609E+02 -0.20921617344E+02 -0.26576540840E+03  0.29757941713E+03  0.12509000000E+03 0.  0.
<mgrwt>
<rscale>  2 0.46165138E+03</rscale>
<asrwt>0</asrwt>
<pdfrwt beam="1">  1       21 0.17010201E-01 0.46165138E+03</pdfrwt>
<pdfrwt beam="2">  1       21 0.67739347E-01 0.46165138E+03</pdfrwt>
<totfact> 0.57098883E+04</totfact>
</mgrwt>
</event>
<event>
 7    0  0.4732500E-002  0.4551592E+03  0.7546771E-02  0.1026195E+00
         21   -1    0    0  502  501  0.00000000000E+00  0.00000000000E+00  0.26226438339E+03  0.26226438339E+03  0.00000000000E+00 0.  1.
         21   -1    0    0  501  502 -0.00000000000E+00 -0.00000000000E+00 -0.19748190497E+03  0.19748190497E+03  0.00000000000E+00 0.  1.
      99926    2    1    2    0    0 -0.35527136788E-14 -0.14210854715E-13  0.64782478424E+02  0.45974628836E+03  0.45515918111E+03 0.  0.
      99925    2    3    3    0    0  0.31662360500E+02  0.10852661958E+03  0.53284815890E+02  0.29074854703E+03  0.26251650190E+03 0.  0.
         25    1    4    4    0    0 -0.14370495725E+02  0.32241660707E+02  0.62295265899E+01  0.13012436718E+03  0.12509000000E+03 0.  0.
         25    1    4    4    0    0  0.46032856225E+02  0.76284958869E+02  0.47055289300E+02  0.16062417985E+03  0.12509000000E+03 0.  0.
         25    1    3    3    0    0 -0.31662360500E+02 -0.10852661958E+03  0.11497662534E+02  0.16899774132E+03  0.12509000000E+03 0.  0.
<mgrwt>
<rscale>  2 0.45515918E+03</rscale>
<asrwt>0</asrwt>
<pdfrwt beam="1">  1       21 0.38568292E-01 0.45515918E+03</pdfrwt>
<pdfrwt beam="2">  1       21 0.29041456E-01 0.45515918E+03</pdfrwt>
<totfact> 0.68112564E+04</totfact>
</mgrwt>
</event>
<event>
 7    0  0.4732500E-002  0.4562624E+03  0.7546771E-02  0.1025871E+00
         21   -1    0    0  502  501  0.00000000000E+00  0.00000000000E+00  0.51975571854E+03  0.51975571854E+03  0.00000000000E+00 0.  1.
         21   -1    0    0  501  502 -0.00000000000E+00 -0.00000000000E+00 -0.10013137190E+03  0.10013137190E+03  0.00000000000E+00 0.  1.
      99926    2    1    2    0    0  0.00000000000E+00 -0.35527136788E-14  0.41962434664E+03  0.61988709044E+03  0.45626243829E+03 0.  0.
      99925    2    3    3    0    0  0.58910267707E+02 -0.87403665303E+01  0.13129345463E+03  0.29999800804E+03  0.26308557534E+03 0.  0.
         25    1    4    4    0    0  0.26400366782E+02  0.33215862103E+02  0.47589303428E+02  0.14040129188E+03  0.12509000000E+03 0.  0.
         25    1    3    3    0    0 -0.58910267707E+02  0.87403665303E+01  0.28833089201E+03  0.31988908240E+03  0.12509000000E+03 0.  0.
         25    1    4    4    0    0  0.32509900926E+02 -0.41956228633E+02  0.83704151201E+02  0.15959671616E+03  0.12509000000E+03 0.  0.
<mgrwt>
<rscale>  2 0.45626244E+03</rscale>
<asrwt>0</asrwt>
<pdfrwt beam="1">  1       21 0.76434664E-01 0.45626244E+03</pdfrwt>
<pdfrwt beam="2">  1       21 0.14725202E-01 0.45626244E+03</pdfrwt>
<totfact> 0.56901193E+04</totfact>
</mgrwt>
</event>
<event>
 7    0  0.4732500E-002  0.4525103E+03  0.7546771E-02  0.1026976E+00
         21   -1    0    0  502  501  0.00000000000E+00  0.00000000000E+00  0.20812386645E+04  0.20812386645E+04  0.00000000000E+00 0. -1.
         21   -1    0    0  501  502 -0.00000000000E+00 -0.00000000000E+00 -0.24596595438E+02  0.24596595438E+02  0.00000000000E+00 0. -1.
      99926    2    1    2    0    0  0.00000000000E+00  0.00000000000E+00  0.20566420691E+04  0.21058352599E+04  0.45251026702E+03 0.  0.
      99925    2    3    3    0    0  0.94221359893E+02  0.33611011260E+02  0.15189919309E+04  0.15448338839E+04  0.26299786692E+03 0.  0.
         25    1    4    4    0    0  0.56368765423E+02  0.14410867519E+02  0.99159712608E+03  0.10011480806E+04  0.12509000000E+03 0.  0.
         25    1    3    3    0    0 -0.94221359893E+02 -0.33611011260E+02  0.53765013819E+03  0.56100137605E+03  0.12509000000E+03 0.  0.
         25    1    4    4    0    0  0.37852594471E+02  0.19200143741E+02  0.52739480479E+03  0.54368580325E+03  0.12509000000E+03 0.  0.
<mgrwt>
<rscale>  2 0.45251027E+03</rscale>
<asrwt>0</asrwt>
<pdfrwt beam="1">  1       21 0.30606439E+00 0.45251027E+03</pdfrwt>
<pdfrwt beam="2">  1       21 0.36171478E-02 0.45251027E+03</pdfrwt>
<totfact> 0.12293630E+04</totfact>
</mgrwt>
</event>
<event>
 7    0  0.4732500E-002  0.4609333E+03  0.7546771E-02  0.1024511E+00
         21   -1    0    0  502  501  0.00000000000E+00  0.00000000000E+00  0.29943037886E+03  0.29943037886E+03  0.00000000000E+00 0. -1.
         21   -1    0    0  501  502 -0.00000000000E+00 -0.00000000000E+00 -0.17738642771E+03  0.17738642771E+03  0.00000000000E+00 0. -1.
      99926    2    1    2    0    0  0.00000000000E+00  0.00000000000E+00  0.12204395114E+03  0.47681680657E+03  0.46093333685E+03 0.  0.
      99925    2    3    3    0    0 -0.22163322156E+02  0.11379204970E+03  0.10266576271E+03  0.30516930233E+03  0.26296045488E+03 0.  0.
         25    1    4    4    0    0 -0.30605015103E+02  0.37791293619E+02  0.16783026430E+02  0.13525541357E+03  0.12509000000E+03 0.  0.
         25    1    4    4    0    0  0.84416929473E+01  0.76000756081E+02  0.85882736277E+02  0.16991388876E+03  0.12509000000E+03 0.  0.
         25    1    3    3    0    0  0.22163322156E+02 -0.11379204970E+03  0.19378188436E+02  0.17164750424E+03  0.12509000000E+03 0.  0.
<mgrwt>
<rscale>  2 0.46093334E+03</rscale>
<asrwt>0</asrwt>
<pdfrwt beam="1">  1       21 0.44033879E-01 0.46093334E+03</pdfrwt>
<pdfrwt beam="2">  1       21 0.26086239E-01 0.46093334E+03</pdfrwt>
<totfact> 0.63872022E+04</totfact>
</mgrwt>
</event>
<event>
 7    0  0.4732500E-002  0.4515389E+03  0.7546771E-02  0.1027264E+00
         21   -1    0    0  502  501  0.00000000000E+00  0.00000000000E+00  0.61848539648E+03  0.61848539648E+03  0.00000000000E+00 0. -1.
         21   -1    0    0  501  502 -0.00000000000E+00 -0.00000000000E+00 -0.82413983410E+02  0.82413983410E+02  0.00000000000E+00 0. -1.
      99926    2    1    2    0    0  0.00000000000E+00  0.88817841970E-15  0.53607141307E+03  0.70089937989E+03  0.45153890289E+03 0.  0.
      99925    2    3    3    0    0  0.67499146277E+02  0.54002342942E+01  0.47318870605E+03  0.54537754791E+03  0.26257155399E+03 0.  0.
         25    1    4    4    0    0 -0.44698640199E+01  0.16492074570E+02  0.21085451631E+03  0.24576229035E+03  0.12509000000E+03 0.  0.
         25    1    3    3    0    0 -0.67499146277E+02 -0.54002342942E+01  0.62882707027E+02  0.15552183198E+03  0.12509000000E+03 0.  0.
         25    1    4    4    0    0  0.71969010297E+02 -0.11091840276E+02  0.26233418973E+03  0.29961525757E+03  0.12509000000E+03 0.  0.
<mgrwt>
<rscale>  2 0.45153890E+03</rscale>
<asrwt>0</asrwt>
<pdfrwt beam="1">  1       21 0.90953733E-01 0.45153890E+03</pdfrwt>
<pdfrwt beam="2">  1       21 0.12119704E-01 0.45153890E+03</pdfrwt>
<totfact> 0.54318588E+04</totfact>
</mgrwt>
</event>
<event>
 7    0  0.4732500E-002  0.4508339E+03  0.7546771E-02  0.1027474E+00
         21   -1    0    0  502  501  0.00000000000E+00  0.00000000000E+00  0.16010033995E+03  0.16010033995E+03  0.00000000000E+00 0. -1.
         21   -1    0    0  501  502 -0.00000000000E+00 -0.00000000000E+00 -0.31738094342E+03  0.31738094342E+03  0.00000000000E+00 0. -1.
      99926    2    1    2    0    0  0.00000000000E+00  0.00000000000E+00 -0.15728060347E+03  0.47748128338E+03  0.45083388043E+03 0.  0.
      99925    2    3    3    0    0 -0.11286255545E+02 -0.40633357231E+02  0.72551528103E+01  0.26653585802E+03  0.26307846184E+03 0.  0.
         25    1    3    3    0    0  0.11286255545E+02  0.40633357231E+02 -0.16453575628E+03  0.21094542536E+03  0.12509000000E+03 0.  0.
         25    1    4    4    0    0  0.20101970516E+02 -0.51052098640E+02 -0.40569493094E+01  0.13665420935E+03  0.12509000000E+03 0.  0.
         25    1    4    4    0    0 -0.31388226061E+02  0.10418741409E+02  0.11312102120E+02  0.12988164867E+03  0.12509000000E+03 0.  0.
<mgrwt>
<rscale>  2 0.45083388E+03</rscale>
<asrwt>0</asrwt>
<pdfrwt beam="1">  1       21 0.23544168E-01 0.45083388E+03</pdfrwt>
<pdfrwt beam="2">  1       21 0.46673668E-01 0.45083388E+03</pdfrwt>
<totfact> 0.69142175E+04</totfact>
</mgrwt>
</event>
<event>
 7    0  0.4732500E-002  0.4633915E+03  0.7546771E-02  0.1023802E+00
         21   -1    0    0  502  501  0.00000000000E+00  0.00000000000E+00  0.15400615609E+03  0.15400615609E+03  0.00000000000E+00 0. -1.
         21   -1    0    0  501  502 -0.00000000000E+00 -0.00000000000E+00 -0.34857652257E+03  0.34857652257E+03  0.00000000000E+00 0. -1.
      99926    2    1    2    0    0  0.00000000000E+00  0.00000000000E+00 -0.19457036648E+03  0.50258267865E+03  0.46339154219E+03 0.  0.
      99925    2    3    3    0    0  0.34565071390E+02 -0.77126988341E+02 -0.27779012564E+02  0.27761561366E+03  0.26297421721E+03 0.  0.
         25    1    4    4    0    0  0.28469167907E+02 -0.46303019932E+02 -0.52768357366E+02  0.14624113927E+03  0.12509000000E+03 0.  0.
         25    1    4    4    0    0  0.60959034831E+01 -0.30823968408E+02  0.24989344801E+02  0.13137447439E+03  0.12509000000E+03 0.  0.
         25    1    3    3    0    0 -0.34565071390E+02  0.77126988341E+02 -0.16679135391E+03  0.22496706499E+03  0.12509000000E+03 0.  0.
<mgrwt>
<rscale>  2 0.46339154E+03</rscale>
<asrwt>0</asrwt>
<pdfrwt beam="1">  1       21 0.22647964E-01 0.46339154E+03</pdfrwt>
<pdfrwt beam="2">  1       21 0.51261253E-01 0.46339154E+03</pdfrwt>
<totfact> 0.60928602E+04</totfact>
</mgrwt>
</event>
<event>
 7    0  0.4732500E-002  0.4460378E+03  0.7546771E-02  0.1028910E+00
         21   -1    0    0  502  501  0.00000000000E+00  0.00000000000E+00  0.16177970036E+03  0.16177970036E+03  0.00000000000E+00 0. -1.
         21   -1    0    0  501  502 -0.00000000000E+00 -0.00000000000E+00 -0.30743922717E+03  0.30743922717E+03  0.00000000000E+00 0. -1.
      99926    2    1    2    0    0  0.71054273576E-14  0.14210854715E-13 -0.14565952681E+03  0.46921892753E+03  0.44603778338E+03 0.  0.
      99925    2    3    3    0    0 -0.61696447268E+02 -0.76538877641E+02 -0.13025795704E+03  0.30937723132E+03  0.26283547039E+03 0.  0.
         25    1    4    4    0    0  0.92834538501E+01 -0.26183173420E+02 -0.55471458950E+02  0.13962926607E+03  0.12509000000E+03 0.  0.
         25    1    4    4    0    0 -0.70979901118E+02 -0.50355704221E+02 -0.74786498088E+02  0.16974796525E+03  0.12509000000E+03 0.  0.
         25    1    3    3    0    0  0.61696447268E+02  0.76538877641E+02 -0.15401569774E+02  0.15984169621E+03  0.12509000000E+03 0.  0.
<mgrwt>
<rscale>  2 0.44603778E+03</rscale>
<asrwt>0</asrwt>
<pdfrwt beam="1">  1       21 0.23791133E-01 0.44603778E+03</pdfrwt>
<pdfrwt beam="2">  1       21 0.45211650E-01 0.44603778E+03</pdfrwt>
<totfact> 0.72515376E+04</totfact>
</mgrwt>
</event>
<event>
 7    0  0.4732500E-002  0.4483270E+03  0.7546771E-02  0.1028222E+00
         21   -1    0    0  502  501  0.00000000000E+00  0.00000000000E+00  0.20721666977E+03  0.20721666977E+03  0.00000000000E+00 0.  1.
         21   -1    0    0  501  502 -0.00000000000E+00 -0.00000000000E+00 -0.24249633167E+03  0.24249633167E+03  0.00000000000E+00 0.  1.
      99926    2    1    2    0    0  0.00000000000E+00  0.35527136788E-14 -0.35279661895E+02  0.44971300144E+03  0.44832703367E+03 0.  0.
      99925    2    3    3    0    0 -0.78459445975E+02  0.21527093643E+02 -0.92088321767E+02  0.29004449371E+03  0.26272846991E+03 0.  0.
         25    1    4    4    0    0 -0.59355499937E+02 -0.23924813099E+02 -0.43742172840E+02  0.14716099293E+03  0.12509000000E+03 0.  0.
         25    1    4    4    0    0 -0.19103946038E+02  0.45451906742E+02 -0.48346148927E+02  0.14288350079E+03  0.12509000000E+03 0.  0.
         25    1    3    3    0    0  0.78459445975E+02 -0.21527093643E+02  0.56808659871E+02  0.15966850773E+03  0.12509000000E+03 0.  0.
<mgrwt>
<rscale>  2 0.44832703E+03</rscale>
<asrwt>0</asrwt>
<pdfrwt beam="1">  1       21 0.30473040E-01 0.44832703E+03</pdfrwt>
<pdfrwt beam="2">  1       21 0.35661225E-01 0.44832703E+03</pdfrwt>
<totfact> 0.72730747E+04</totfact>
</mgrwt>
</event>
<event>
 7    0  0.4732500E-002  0.4231719E+03  0.7546771E-02  0.1036039E+00
         21   -1    0    0  502  501  0.00000000000E+00  0.00000000000E+00  0.12330205837E+03  0.12330205837E+03  0.00000000000E+00 0.  1.
         21   -1    0    0  501  502 -0.00000000000E+00 -0.00000000000E+00 -0.36308075869E+03  0.36308075869E+03  0.00000000000E+00 0.  1.
      99926    2    1    2    0    0  0.00000000000E+00  0.00000000000E+00 -0.23977870031E+03  0.48638281706E+03  0.42317185587E+03 0.  0.
      99925    2    3    3    0    0 -0.55606846985E+02 -0.45680467521E+02 -0.11574747790E+03  0.29609335656E+03  0.26285922204E+03 0.  0.
         25    1    4    4    0    0 -0.68030152408E+00 -0.46968819912E+02 -0.76388523184E+02  0.15391311649E+03  0.12509000000E+03 0.  0.
         25    1    4    4    0    0 -0.54926545461E+02  0.12883523906E+01 -0.39358954718E+02  0.14218024006E+03  0.12509000000E+03 0.  0.
         25    1    3    3    0    0  0.55606846985E+02  0.45680467521E+02 -0.12403122241E+03  0.19028946050E+03  0.12509000000E+03 0.  0.
<mgrwt>
<rscale>  2 0.42317186E+03</rscale>
<asrwt>0</asrwt>
<pdfrwt beam="1">  1       21 0.18132655E-01 0.42317186E+03</pdfrwt>
<pdfrwt beam="2">  1       21 0.53394230E-01 0.42317186E+03</pdfrwt>
<totfact> 0.85989691E+04</totfact>
</mgrwt>
</event>
<event>
 7    0  0.4732500E-002  0.4536087E+03  0.7546771E-02  0.1026651E+00
         21   -1    0    0  502  501  0.00000000000E+00  0.00000000000E+00  0.93467629517E+02  0.93467629517E+02  0.00000000000E+00 0. -1.
         21   -1    0    0  501  502 -0.00000000000E+00 -0.00000000000E+00 -0.55035326837E+03  0.55035326837E+03  0.00000000000E+00 0. -1.
      99926    2    1    2    0    0 -0.71054273576E-14  0.00000000000E+00 -0.45688563886E+03  0.64382089789E+03  0.45360870976E+03 0.  0.
      99925    2    3    3    0    0 -0.47793128708E+02  0.99830917827E+02 -0.26642704676E+03  0.39049822084E+03  0.26316362577E+03 0.  0.
         25    1    4    4    0    0 -0.31007604095E+02  0.74699731554E+01 -0.11955111007E+03  0.17594671929E+03  0.12509000000E+03 0.  0.
         25    1    4    4    0    0 -0.16785524613E+02  0.92360944671E+02 -0.14687593669E+03  0.21455150155E+03  0.12509000000E+03 0.  0.
         25    1    3    3    0    0  0.47793128708E+02 -0.99830917827E+02 -0.19045859209E+03  0.25332267705E+03  0.12509000000E+03 0.  0.
<mgrwt>
<rscale>  2 0.45360871E+03</rscale>
<asrwt>0</asrwt>
<pdfrwt beam="1">  1       21 0.13745240E-01 0.45360871E+03</pdfrwt>
<pdfrwt beam="2">  1       21 0.80934303E-01 0.45360871E+03</pdfrwt>
<totfact> 0.56678531E+04</totfact>
</mgrwt>
</event>
<event>
 7    0  0.4732500E-002  0.4483431E+03  0.7546771E-02  0.1028217E+00
         21   -1    0    0  502  501  0.00000000000E+00  0.00000000000E+00  0.19005824796E+04  0.19005824796E+04  0.00000000000E+00 0. -1.
         21   -1    0    0  501  502 -0.00000000000E+00 -0.00000000000E+00 -0.26440775580E+02  0.26440775580E+02  0.00000000000E+00 0. -1.
      99926    2    1    2    0    0  0.00000000000E+00  0.00000000000E+00  0.18741417040E+04  0.19270232552E+04  0.44834305979E+03 0.  0.
      99925    2    3    3    0    0 -0.96406269465E+02  0.14726181479E+02  0.99872939060E+03  0.10373574439E+04  0.26294303852E+03 0.  0.
         25    1    3    3    0    0  0.96406269465E+02 -0.14726181479E+02  0.87541231345E+03  0.88966581134E+03  0.12509000000E+03 0.  0.
         25    1    4    4    0    0 -0.51356695033E+02 -0.88085117677E+01  0.63690454899E+03  0.65116051218E+03  0.12509000000E+03 0.  0.
         25    1    4    4    0    0 -0.45049574432E+02  0.23534693247E+02  0.36182484161E+03  0.38619693169E+03  0.12509000000E+03 0.  0.
<mgrwt>
<rscale>  2 0.44834306E+03</rscale>
<asrwt>0</asrwt>
<pdfrwt beam="1">  1       21 0.27949733E+00 0.44834306E+03</pdfrwt>
<pdfrwt beam="2">  1       21 0.38883507E-02 0.44834306E+03</pdfrwt>
<totfact> 0.15735478E+04</totfact>
</mgrwt>
</event>
<event>
 7    0  0.4732500E-002  0.4458652E+03  0.7546771E-02  0.1028962E+00
         21   -1    0    0  502  501  0.00000000000E+00  0.00000000000E+00  0.51558104222E+03  0.51558104222E+03  0.00000000000E+00 0. -1.
         21   -1    0    0  501  502 -0.00000000000E+00 -0.00000000000E+00 -0.96394041532E+02  0.96394041532E+02  0.00000000000E+00 0. -1.
      99926    2    1    2    0    0  0.00000000000E+00  0.00000000000E+00  0.41918700069E+03  0.61197508376E+03  0.44586518320E+03 0.  0.
      99925    2    3    3    0    0 -0.78309510130E+02  0.23575551162E+02  0.35517674047E+03  0.44939277382E+03  0.26289762685E+03 0.  0.
         25    1    3    3    0    0  0.78309510130E+02 -0.23575551162E+02  0.64010260226E+02  0.16258230993E+03  0.12509000000E+03 0.  0.
         25    1    4    4    0    0 -0.55404509921E+02  0.34459075360E+02  0.23492168540E+03  0.27403064421E+03  0.12509000000E+03 0.  0.
         25    1    4    4    0    0 -0.22905000209E+02 -0.10883524198E+02  0.12025505507E+03  0.17536212961E+03  0.12509000000E+03 0.  0.
<mgrwt>
<rscale>  2 0.44586518E+03</rscale>
<asrwt>0</asrwt>
<pdfrwt beam="1">  1       21 0.75820740E-01 0.44586518E+03</pdfrwt>
<pdfrwt beam="2">  1       21 0.14175595E-01 0.44586518E+03</pdfrwt>
<totfact> 0.62323368E+04</totfact>
</mgrwt>
</event>
<event>
 7    0  0.4732500E-002  0.4539682E+03  0.7546771E-02  0.1026545E+00
         21   -1    0    0  502  501  0.00000000000E+00  0.00000000000E+00  0.17502796750E+03  0.17502796750E+03  0.00000000000E+00 0. -1.
         21   -1    0    0  501  502 -0.00000000000E+00 -0.00000000000E+00 -0.29436319487E+03  0.29436319487E+03  0.00000000000E+00 0. -1.
      99926    2    1    2    0    0  0.00000000000E+00 -0.14210854715E-13 -0.11933522737E+03  0.46939116237E+03  0.45396824428E+03 0.  0.
      99925    2    3    3    0    0 -0.67699484854E+02  0.81963150481E+02 -0.37913146317E+02  0.28614749489E+03  0.26294829127E+03 0.  0.
         25    1    4    4    0    0 -0.40978883596E+02  0.83171159518E+02 -0.21259773899E+02  0.15715023628E+03  0.12509000000E+03 0.  0.
         25    1    3    3    0    0  0.67699484854E+02 -0.81963150481E+02 -0.81422081048E+02  0.18324366747E+03  0.12509000000E+03 0.  0.
         25    1    4    4    0    0 -0.26720601259E+02 -0.12080090367E+01 -0.16653372418E+02  0.12899725862E+03  0.12509000000E+03 0.  0.
<mgrwt>
<rscale>  2 0.45396824E+03</rscale>
<asrwt>0</asrwt>
<pdfrwt beam="1">  1       21 0.25739407E-01 0.45396824E+03</pdfrwt>
<pdfrwt beam="2">  1       21 0.43288704E-01 0.45396824E+03</pdfrwt>
<totfact> 0.68036193E+04</totfact>
</mgrwt>
</event>
<event>
 7    0  0.4732500E-002  0.4170148E+03  0.7546771E-02  0.1038042E+00
         21   -1    0    0  502  501  0.00000000000E+00  0.00000000000E+00  0.40827396915E+02  0.40827396915E+02  0.00000000000E+00 0.  1.
         21   -1    0    0  501  502 -0.00000000000E+00 -0.00000000000E+00 -0.10648569866E+04  0.10648569866E+04  0.00000000000E+00 0.  1.
      99926    2    1    2    0    0  0.00000000000E+00  0.00000000000E+00 -0.10240295897E+04  0.11056843835E+04  0.41701481436E+03 0.  0.
      99925    2    3    3    0    0  0.93417409705E+01 -0.24450361124E+02 -0.84740013289E+03  0.88766933497E+03  0.26302998829E+03 0.  0.
         25    1    3    3    0    0 -0.93417409705E+01  0.24450361124E+02 -0.17662945678E+03  0.21801504853E+03  0.12509000000E+03 0.  0.
         25    1    4    4    0    0 -0.21800007728E+02  0.10638292569E+02 -0.34391689924E+03  0.36676253255E+03  0.12509000000E+03 0.  0.
         25    1    4    4    0    0  0.31141748699E+02 -0.35088653693E+02 -0.50348323366E+03  0.52090680241E+03  0.12509000000E+03 0.  0.
<mgrwt>
<rscale>  2 0.41701481E+03</rscale>
<asrwt>0</asrwt>
<pdfrwt beam="1">  1       21 0.60040291E-02 0.41701481E+03</pdfrwt>
<pdfrwt beam="2">  1       21 0.15659661E+00 0.41701481E+03</pdfrwt>
<totfact> 0.48018992E+04</totfact>
</mgrwt>
</event>
<event>
 7    0  0.4732500E-002  0.4599179E+03  0.7546771E-02  0.1024805E+00
         21   -1    0    0  502  501  0.00000000000E+00  0.00000000000E+00  0.15677107955E+03  0.15677107955E+03  0.00000000000E+00 0. -1.
         21   -1    0    0  501  502 -0.00000000000E+00 -0.00000000000E+00 -0.33731425060E+03  0.33731425060E+03  0.00000000000E+00 0. -1.
      99926    2    1    2    0    0 -0.17763568394E-14  0.14210854715E-13 -0.18054317105E+03  0.49408533015E+03  0.45991790230E+03 0.  0.
      99925    2    3    3    0    0 -0.15486612983E+02  0.11459773607E+03 -0.13648297061E+03  0.31812713723E+03  0.26306804800E+03 0.  0.
         25    1    4    4    0    0  0.22868067392E+01  0.96560243671E+02 -0.58265525550E+02  0.16843838550E+03  0.12509000000E+03 0.  0.
         25    1    4    4    0    0 -0.17773419723E+02  0.18037492397E+02 -0.78217445064E+02  0.14968875172E+03  0.12509000000E+03 0.  0.
         25    1    3    3    0    0  0.15486612983E+02 -0.11459773607E+03 -0.44060200433E+02  0.17595819292E+03  0.12509000000E+03 0.  0.
<mgrwt>
<rscale>  2 0.45991790E+03</rscale>
<asrwt>0</asrwt>
<pdfrwt beam="1">  1       21 0.23054571E-01 0.45991790E+03</pdfrwt>
<pdfrwt beam="2">  1       21 0.49605036E-01 0.45991790E+03</pdfrwt>
<totfact> 0.63185100E+04</totfact>
</mgrwt>
</event>
<event>
 7    0  0.4732500E-002  0.4533142E+03  0.7546771E-02  0.1026738E+00
         21   -1    0    0  502  501  0.00000000000E+00  0.00000000000E+00  0.21107259482E+03  0.21107259482E+03  0.00000000000E+00 0. -1.
         21   -1    0    0  501  502 -0.00000000000E+00 -0.00000000000E+00 -0.24339228361E+03  0.24339228361E+03  0.00000000000E+00 0. -1.
      99926    2    1    2    0    0  0.00000000000E+00  0.00000000000E+00 -0.32319688783E+02  0.45446487843E+03  0.45331419947E+03 0.  0.
      99925    2    3    3    0    0  0.82726360387E+02  0.39304800585E+02  0.43506782080E+02  0.28187959564E+03  0.26301092810E+03 0.  0.
         25    1    4    4    0    0  0.59611814026E+02  0.57397952173E+02  0.25444022832E+02  0.15212823434E+03  0.12509000000E+03 0.  0.
         25    1    3    3    0    0 -0.82726360387E+02 -0.39304800585E+02 -0.75826470863E+02  0.17258528279E+03  0.12509000000E+03 0.  0.
         25    1    4    4    0    0  0.23114546361E+02 -0.18093151588E+02  0.18062759247E+02  0.12975136130E+03  0.12509000000E+03 0.  0.
<mgrwt>
<rscale>  2 0.45331420E+03</rscale>
<asrwt>0</asrwt>
<pdfrwt beam="1">  1       21 0.31040088E-01 0.45331420E+03</pdfrwt>
<pdfrwt beam="2">  1       21 0.35792983E-01 0.45331420E+03</pdfrwt>
<totfact> 0.69515377E+04</totfact>
</mgrwt>
</event>
<event>
 7    0  0.4732500E-002  0.4412665E+03  0.7546771E-02  0.1030359E+00
         21   -1    0    0  502  501  0.00000000000E+00  0.00000000000E+00  0.45581868643E+03  0.45581868643E+03  0.00000000000E+00 0. -1.
         21   -1    0    0  501  502 -0.00000000000E+00 -0.00000000000E+00 -0.10679470302E+03  0.10679470302E+03  0.00000000000E+00 0. -1.
      99926    2    1    2    0    0  0.00000000000E+00  0.00000000000E+00  0.34902398341E+03  0.56261338945E+03  0.44126645578E+03 0.  0.
      99925    2    3    3    0    0  0.15012885521E+02  0.97149067024E+02  0.24429631811E+03  0.37214365450E+03  0.26295794452E+03 0.  0.
         25    1    4    4    0    0 -0.89734381357E+01  0.48136527448E+02  0.72210301926E+02  0.15251060183E+03  0.12509000000E+03 0.  0.
         25    1    4    4    0    0  0.23986323657E+02  0.49012539576E+02  0.17208601618E+03  0.21963305267E+03  0.12509000000E+03 0.  0.
         25    1    3    3    0    0 -0.15012885521E+02 -0.97149067024E+02  0.10472766530E+03  0.19046973496E+03  0.12509000000E+03 0.  0.
<mgrwt>
<rscale>  2 0.44126646E+03</rscale>
<asrwt>0</asrwt>
<pdfrwt beam="1">  1       21 0.67032159E-01 0.44126646E+03</pdfrwt>
<pdfrwt beam="2">  1       21 0.15705104E-01 0.44126646E+03</pdfrwt>
<totfact> 0.68146549E+04</totfact>
</mgrwt>
</event>
<event>
 7    0  0.4732500E-002  0.4530515E+03  0.7546771E-02  0.1026816E+00
         21   -1    0    0  502  501  0.00000000000E+00  0.00000000000E+00  0.66719221485E+03  0.66719221485E+03  0.00000000000E+00 0. -1.
         21   -1    0    0  501  502 -0.00000000000E+00 -0.00000000000E+00 -0.76910226206E+02  0.76910226206E+02  0.00000000000E+00 0. -1.
      99926    2    1    2    0    0 -0.14210854715E-13  0.00000000000E+00  0.59028198865E+03  0.74410244106E+03  0.45305145035E+03 0.  0.
      99925    2    3    3    0    0  0.68093356339E+02  0.78919273776E+02  0.43639014019E+03  0.52005966373E+03  0.26298430073E+03 0.  0.
         25    1    4    4    0    0  0.14212351225E+01  0.51068182212E+02  0.25071046414E+03  0.28480383437E+03  0.12509000000E+03 0.  0.
         25    1    4    4    0    0  0.66672121217E+02  0.27851091564E+02  0.18567967605E+03  0.23525582936E+03  0.12509000000E+03 0.  0.
         25    1    3    3    0    0 -0.68093356339E+02 -0.78919273776E+02  0.15389184845E+03  0.22404277732E+03  0.12509000000E+03 0.  0.
<mgrwt>
<rscale>  2 0.45305145E+03</rscale>
<asrwt>0</asrwt>
<pdfrwt beam="1">  1       21 0.98116499E-01 0.45305145E+03</pdfrwt>
<pdfrwt beam="2">  1       21 0.11310328E-01 0.45305145E+03</pdfrwt>
<totfact> 0.51355110E+04</totfact>
</mgrwt>
</event>
<event>
 7    0  0.4732500E-002  0.4553681E+03  0.7546771E-02  0.1026133E+00
         21   -1    0    0  502  501  0.00000000000E+00  0.00000000000E+00  0.13284202873E+03  0.13284202873E+03  0.00000000000E+00 0.  1.
         21   -1    0    0  501  502 -0.00000000000E+00 -0.00000000000E+00 -0.39023816337E+03  0.39023816337E+03  0.00000000000E+00 0.  1.
      99926    2    1    2    0    0  0.00000000000E+00  0.00000000000E+00 -0.25739613465E+03  0.52308019210E+03  0.45536811179E+03 0.  0.
      99925    2    3    3    0    0  0.20305349609E+02 -0.11151320927E+03 -0.15750394220E+03  0.32693366199E+03  0.26311713070E+03 0.  0.
         25    1    4    4    0    0  0.44906204551E+02 -0.79994105251E+02 -0.82399240634E+02  0.17564955747E+03  0.12509000000E+03 0.  0.
         25    1    3    3    0    0 -0.20305349609E+02  0.11151320927E+03 -0.99892192446E+02  0.19614653011E+03  0.12509000000E+03 0.  0.
         25    1    4    4    0    0 -0.24600854941E+02 -0.31519104017E+02 -0.75104701566E+02  0.15128410452E+03  0.12509000000E+03 0.  0.
<mgrwt>
<rscale>  2 0.45536811E+03</rscale>
<asrwt>0</asrwt>
<pdfrwt beam="1">  1       21 0.19535592E-01 0.45536811E+03</pdfrwt>
<pdfrwt beam="2">  1       21 0.57387967E-01 0.45536811E+03</pdfrwt>
<totfact> 0.63491846E+04</totfact>
</mgrwt>
</event>
<event>
 7    0  0.4732500E-002  0.4851110E+03  0.7546771E-02  0.1017740E+00
         21   -1    0    0  502  501  0.00000000000E+00  0.00000000000E+00  0.15980295679E+03  0.15980295679E+03  0.00000000000E+00 0.  1.
         21   -1    0    0  501  502 -0.00000000000E+00 -0.00000000000E+00 -0.36816066118E+03  0.36816066118E+03  0.00000000000E+00 0.  1.
      99926    2    1    2    0    0 -0.35527136788E-14  0.00000000000E+00 -0.20835770439E+03  0.52796361797E+03  0.48511096558E+03 0.  0.
      99925    2    3    3    0    0  0.23694344873E+02  0.12257902604E+03 -0.60144955299E+02  0.29730896986E+03  0.26303643912E+03 0.  0.
         25    1    4    4    0    0 -0.10751433407E+00  0.19459704376E+02 -0.15909846962E+02  0.12759045021E+03  0.12509000000E+03 0.  0.
         25    1    3    3    0    0 -0.23694344873E+02 -0.12257902604E+03 -0.14821274909E+03  0.23065464811E+03  0.12509000000E+03 0.  0.
         25    1    4    4    0    0  0.23801859207E+02  0.10311932166E+03 -0.44235108338E+02  0.16971851965E+03  0.12509000000E+03 0.  0.
<mgrwt>
<rscale>  2 0.48511097E+03</rscale>
<asrwt>0</asrwt>
<pdfrwt beam="1">  1       21 0.23500436E-01 0.48511097E+03</pdfrwt>
<pdfrwt beam="2">  1       21 0.54141272E-01 0.48511097E+03</pdfrwt>
<totfact> 0.50228685E+04</totfact>
</mgrwt>
</event>
<event>
 7    0  0.4732500E-002  0.4516367E+03  0.7546771E-02  0.1027235E+00
         21   -1    0    0  502  501  0.00000000000E+00  0.00000000000E+00  0.41528026271E+03  0.41528026271E+03  0.00000000000E+00 0. -1.
         21   -1    0    0  501  502 -0.00000000000E+00 -0.00000000000E+00 -0.12279402131E+03  0.12279402131E+03  0.00000000000E+00 0. -1.
      99926    2    1    2    0    0  0.14210854715E-13  0.00000000000E+00  0.29248624140E+03  0.53807428402E+03  0.45163672759E+03 0.  0.
      99925    2    3    3    0    0  0.82084882064E+02  0.63054895304E+02  0.14021215869E+03  0.31547879428E+03  0.26297066854E+03 0.  0.
         25    1    3    3    0    0 -0.82084882064E+02 -0.63054895304E+02  0.15227408271E+03  0.22259548974E+03  0.12509000000E+03 0.  0.
         25    1    4    4    0    0  0.18171145461E+02  0.18466498380E+02  0.10133909764E+03  0.16305926193E+03  0.12509000000E+03 0.  0.
         25    1    4    4    0    0  0.63913736603E+02  0.44588396925E+02  0.38873061048E+02  0.15241953235E+03  0.12509000000E+03 0.  0.
<mgrwt>
<rscale>  2 0.45163673E+03</rscale>
<asrwt>0</asrwt>
<pdfrwt beam="1">  1       21 0.61070626E-01 0.45163673E+03</pdfrwt>
<pdfrwt beam="2">  1       21 0.18057944E-01 0.45163673E+03</pdfrwt>
<totfact> 0.64357544E+04</totfact>
</mgrwt>
</event>
<event>
 7    0  0.4732500E-002  0.4527318E+03  0.7546771E-02  0.1026911E+00
         21   -1    0    0  502  501  0.00000000000E+00  0.00000000000E+00  0.44035302148E+03  0.44035302148E+03  0.00000000000E+00 0.  1.
         21   -1    0    0  501  502 -0.00000000000E+00 -0.00000000000E+00 -0.11636464027E+03  0.11636464027E+03  0.00000000000E+00 0.  1.
      99926    2    1    2    0    0 -0.88817841970E-15  0.00000000000E+00  0.32398838121E+03  0.55671766175E+03  0.45273180112E+03 0.  0.
      99925    2    3    3    0    0  0.20550239871E+01  0.22306840938E+02  0.70674443427E+02  0.27331463168E+03  0.26306689769E+03 0.  0.
         25    1    4    4    0    0 -0.15510551764E+02 -0.17262700765E+02  0.97514255789E+01  0.12759771336E+03  0.12509000000E+03 0.  0.
         25    1    3    3    0    0 -0.20550239871E+01 -0.22306840938E+02  0.25331393779E+03  0.28340303007E+03  0.12509000000E+03 0.  0.
         25    1    4    4    0    0  0.17565575751E+02  0.39569541703E+02  0.60923017848E+02  0.14571691832E+03  0.12509000000E+03 0.  0.
<mgrwt>
<rscale>  2 0.45273180E+03</rscale>
<asrwt>0</asrwt>
<pdfrwt beam="1">  1       21 0.64757796E-01 0.45273180E+03</pdfrwt>
<pdfrwt beam="2">  1       21 0.17112447E-01 0.45273180E+03</pdfrwt>
<totfact> 0.62539363E+04</totfact>
</mgrwt>
</event>
<event>
 7    0  0.4732500E-002  0.4523131E+03  0.7546771E-02  0.1027035E+00
         21   -1    0    0  502  501  0.00000000000E+00  0.00000000000E+00  0.61310443159E+02  0.61310443159E+02  0.00000000000E+00 0. -1.
         21   -1    0    0  501  502 -0.00000000000E+00 -0.00000000000E+00 -0.83422622076E+03  0.83422622076E+03  0.00000000000E+00 0. -1.
      99926    2    1    2    0    0  0.00000000000E+00 -0.71054273576E-14 -0.77291577760E+03  0.89553666392E+03  0.45231307427E+03 0.  0.
      99925    2    3    3    0    0  0.83621007094E+02  0.40865496266E+02 -0.36898326692E+03  0.46255693818E+03  0.26295970829E+03 0.  0.
         25    1    3    3    0    0 -0.83621007094E+02 -0.40865496266E+02 -0.40393251068E+03  0.43297972574E+03  0.12509000000E+03 0.  0.
         25    1    4    4    0    0  0.12322633570E+02  0.46315088601E+02 -0.19639065981E+03  0.23772617460E+03  0.12509000000E+03 0.  0.
         25    1    4    4    0    0  0.71298373524E+02 -0.54495923353E+01 -0.17259260711E+03  0.22483076358E+03  0.12509000000E+03 0.  0.
<mgrwt>
<rscale>  2 0.45231307E+03</rscale>
<asrwt>0</asrwt>
<pdfrwt beam="1">  1       21 0.90162419E-02 0.45231307E+03</pdfrwt>
<pdfrwt beam="2">  1       21 0.12268032E+00 0.45231307E+03</pdfrwt>
<totfact> 0.44353010E+04</totfact>
</mgrwt>
</event>
<event>
 7    0  0.4732500E-002  0.4427182E+03  0.7546771E-02  0.1029916E+00
         21   -1    0    0  502  501  0.00000000000E+00  0.00000000000E+00  0.30093719156E+03  0.30093719156E+03  0.00000000000E+00 0. -1.
         21   -1    0    0  501  502 -0.00000000000E+00 -0.00000000000E+00 -0.16282415631E+03  0.16282415631E+03  0.00000000000E+00 0. -1.
      99926    2    1    2    0    0 -0.71054273576E-14  0.00000000000E+00  0.13811303525E+03  0.46376134787E+03  0.44271816912E+03 0.  0.
      99925    2    3    3    0    0  0.36718363127E+02 -0.55988645311E+02  0.16745300307E+03  0.31887757236E+03  0.26298180797E+03 0.  0.
         25    1    4    4    0    0  0.37449577604E+02 -0.61849869709E+02  0.10718804014E+03  0.17990181015E+03  0.12509000000E+03 0.  0.
         25    1    3    3    0    0 -0.36718363127E+02  0.55988645311E+02 -0.29339967814E+02  0.14488377551E+03  0.12509000000E+03 0.  0.
         25    1    4    4    0    0 -0.73121447688E+00  0.58612243982E+01  0.60264962929E+02  0.13897576221E+03  0.12509000000E+03 0.  0.
<mgrwt>
<rscale>  2 0.44271817E+03</rscale>
<asrwt>0</asrwt>
<pdfrwt beam="1">  1       21 0.44255469E-01 0.44271817E+03</pdfrwt>
<pdfrwt beam="2">  1       21 0.23944729E-01 0.44271817E+03</pdfrwt>
<totfact> 0.74943422E+04</totfact>
</mgrwt>
</event>
<event>
 7    0  0.4732500E-002  0.4574464E+03  0.7546771E-02  0.1025524E+00
         21   -1    0    0  502  501  0.00000000000E+00  0.00000000000E+00  0.60836149949E+02  0.60836149949E+02  0.00000000000E+00 0. -1.
         21   -1    0    0  501  502 -0.00000000000E+00 -0.00000000000E+00 -0.85992130885E+03  0.85992130885E+03  0.00000000000E+00 0. -1.
      99926    2    1    2    0    0  0.35527136788E-14  0.00000000000E+00 -0.79908515891E+03  0.92075745880E+03  0.45744639769E+03 0.  0.
      99925    2    3    3    0    0  0.25783952451E+02 -0.89202125421E+02 -0.36256929765E+03  0.45727559658E+03  0.26272160978E+03 0.  0.
         25    1    4    4    0    0  0.16330213488E+02 -0.62973368245E+02 -0.13024556236E+03  0.19194722086E+03  0.12509000000E+03 0.  0.
         25    1    4    4    0    0  0.94537389633E+01 -0.26228757177E+02 -0.23232373529E+03  0.26532837572E+03  0.12509000000E+03 0.  0.
         25    1    3    3    0    0 -0.25783952451E+02  0.89202125421E+02 -0.43651586126E+03  0.46348186222E+03  0.12509000000E+03 0.  0.
<mgrwt>
<rscale>  2 0.45744640E+03</rscale>
<asrwt>0</asrwt>
<pdfrwt beam="1">  1       21 0.89464930E-02 0.45744640E+03</pdfrwt>
<pdfrwt beam="2">  1       21 0.12645901E+00 0.45744640E+03</pdfrwt>
<totfact> 0.41547233E+04</totfact>
</mgrwt>
</event>
<event>
 7    0  0.4732500E-002  0.4520163E+03  0.7546771E-02  0.1027122E+00
         21   -1    0    0  502  501  0.00000000000E+00  0.00000000000E+00  0.75015955458E+03  0.75015955458E+03  0.00000000000E+00 0. -1.
         21   -1    0    0  501  502 -0.00000000000E+00 -0.00000000000E+00 -0.68091747538E+02  0.68091747538E+02  0.00000000000E+00 0. -1.
      99926    2    1    2    0    0  0.17763568394E-14  0.00000000000E+00  0.68206780704E+03  0.81825130212E+03  0.45201626078E+03 0.  0.
      99925    2    3    3    0    0  0.14853300507E+02 -0.37125183527E+02  0.24401325344E+03  0.36093500040E+03  0.26293099260E+03 0.  0.
         25    1    4    4    0    0  0.44963873725E+02 -0.33203141010E+02  0.13316637387E+03  0.19106279005E+03  0.12509000000E+03 0.  0.
         25    1    3    3    0    0 -0.14853300507E+02  0.37125183527E+02  0.43805455360E+03  0.45731630172E+03  0.12509000000E+03 0.  0.
         25    1    4    4    0    0 -0.30110573218E+02 -0.39220425167E+01  0.11084687958E+03  0.16987221035E+03  0.12509000000E+03 0.  0.
<mgrwt>
<rscale>  2 0.45201626E+03</rscale>
<asrwt>0</asrwt>
<pdfrwt beam="1">  1       21 0.11031758E+00 0.45201626E+03</pdfrwt>
<pdfrwt beam="2">  1       21 0.10013493E-01 0.45201626E+03</pdfrwt>
<totfact> 0.48008846E+04</totfact>
</mgrwt>
</event>
<event>
 7    0  0.4732500E-002  0.4612334E+03  0.7546771E-02  0.1024424E+00
         21   -1    0    0  502  501  0.00000000000E+00  0.00000000000E+00  0.99650694980E+03  0.99650694980E+03  0.00000000000E+00 0. -1.
         21   -1    0    0  501  502 -0.00000000000E+00 -0.00000000000E+00 -0.53370495600E+02  0.53370495600E+02  0.00000000000E+00 0. -1.
      99926    2    1    2    0    0 -0.71054273576E-14 -0.14210854715E-13  0.94313645420E+03  0.10498774454E+04  0.46123343235E+03 0.  0.
      99925    2    3    3    0    0  0.51417744471E+02  0.97313357758E+02  0.48817275338E+03  0.56536413164E+03  0.26307848669E+03 0.  0.
         25    1    4    4    0    0  0.37185713525E+02  0.31372455344E+02  0.30732324505E+03  0.33535368388E+03  0.12509000000E+03 0.  0.
         25    1    4    4    0    0  0.14232030946E+02  0.65940902414E+02  0.18084950833E+03  0.23001044776E+03  0.12509000000E+03 0.  0.
         25    1    3    3    0    0 -0.51417744471E+02 -0.97313357758E+02  0.45496370082E+03  0.48451331376E+03  0.12509000000E+03 0.  0.
<mgrwt>
<rscale>  2 0.46123343E+03</rscale>
<asrwt>0</asrwt>
<pdfrwt beam="1">  1       21 0.14654513E+00 0.46123343E+03</pdfrwt>
<pdfrwt beam="2">  1       21 0.78486029E-02 0.46123343E+03</pdfrwt>
<totfact> 0.35521879E+04</totfact>
</mgrwt>
</event>
<event>
 7    0  0.4732500E-002  0.4533853E+03  0.7546771E-02  0.1026717E+00
         21   -1    0    0  502  501  0.00000000000E+00  0.00000000000E+00  0.48802356457E+03  0.48802356457E+03  0.00000000000E+00 0.  1.
         21   -1    0    0  501  502 -0.00000000000E+00 -0.00000000000E+00 -0.10530138841E+03  0.10530138841E+03  0.00000000000E+00 0.  1.
      99926    2    1    2    0    0  0.00000000000E+00  0.00000000000E+00  0.38272217616E+03  0.59332495298E+03  0.45338530602E+03 0.  0.
      99925    2    3    3    0    0  0.45437197318E+02 -0.52144829890E+02  0.35587929320E+03  0.44788881356E+03  0.26300322394E+03 0.  0.
         25    1    4    4    0    0  0.57830345219E+02 -0.13046574254E+02  0.15609933784E+03  0.20863622241E+03  0.12509000000E+03 0.  0.
         25    1    3    3    0    0 -0.45437197318E+02  0.52144829890E+02  0.26842882955E+02  0.14543613942E+03  0.12509000000E+03 0.  0.
         25    1    4    4    0    0 -0.12393147901E+02 -0.39098255636E+02  0.19977995536E+03  0.23925259115E+03  0.12509000000E+03 0.  0.
<mgrwt>
<rscale>  2 0.45338531E+03</rscale>
<asrwt>0</asrwt>
<pdfrwt beam="1">  1       21 0.71768170E-01 0.45338531E+03</pdfrwt>
<pdfrwt beam="2">  1       21 0.15485499E-01 0.45338531E+03</pdfrwt>
<totfact> 0.59851105E+04</totfact>
</mgrwt>
</event>
<event>
 7    0  0.4732500E-002  0.4477551E+03  0.7546771E-02  0.1028394E+00
         21   -1    0    0  502  501  0.00000000000E+00  0.00000000000E+00  0.10941454833E+03  0.10941454833E+03  0.00000000000E+00 0.  1.
         21   -1    0    0  501  502 -0.00000000000E+00 -0.00000000000E+00 -0.45808503678E+03  0.45808503678E+03  0.00000000000E+00 0.  1.
      99926    2    1    2    0    0 -0.35527136788E-14  0.00000000000E+00 -0.34867048845E+03  0.56749958512E+03  0.44775514469E+03 0.  0.
      99925    2    3    3    0    0 -0.20522451534E+02  0.74001500369E+02 -0.12764174207E+03  0.30217222524E+03  0.26290349239E+03 0.  0.
         25    1    3    3    0    0  0.20522451534E+02 -0.74001500369E+02 -0.22102874638E+03  0.26532735988E+03  0.12509000000E+03 0.  0.
         25    1    4    4    0    0 -0.42489878350E+02  0.62143544706E+02 -0.60629715913E+02  0.15808440930E+03  0.12509000000E+03 0.  0.
         25    1    4    4    0    0  0.21967426816E+02  0.11857955663E+02 -0.67012026154E+02  0.14408781594E+03  0.12509000000E+03 0.  0.
<mgrwt>
<rscale>  2 0.44775514E+03</rscale>
<asrwt>0</asrwt>
<pdfrwt beam="1">  1       21 0.16090375E-01 0.44775514E+03</pdfrwt>
<pdfrwt beam="2">  1       21 0.67365446E-01 0.44775514E+03</pdfrwt>
<totfact> 0.64332085E+04</totfact>
</mgrwt>
</event>
<event>
 7    0  0.4732500E-002  0.4555723E+03  0.7546771E-02  0.1026073E+00
         21   -1    0    0  502  501  0.00000000000E+00  0.00000000000E+00  0.89271567546E+03  0.89271567546E+03  0.00000000000E+00 0.  1.
         21   -1    0    0  501  502 -0.00000000000E+00 -0.00000000000E+00 -0.58122121776E+02  0.58122121776E+02  0.00000000000E+00 0.  1.
      99926    2    1    2    0    0  0.35527136788E-14  0.00000000000E+00  0.83459355368E+03  0.95083779724E+03  0.45557229591E+03 0.  0.
      99925    2    3    3    0    0  0.24475959514E+02  0.10888121493E+03  0.47936908901E+03  0.55804507841E+03  0.26299314531E+03 0.  0.
         25    1    4    4    0    0 -0.88135239695E+01  0.79212667578E+02  0.30212113851E+03  0.33656650954E+03  0.12509000000E+03 0.  0.
         25    1    3    3    0    0 -0.24475959514E+02 -0.10888121493E+03  0.35522446467E+03  0.39279271882E+03  0.12509000000E+03 0.  0.
         25    1    4    4    0    0  0.33289483483E+02  0.29668547352E+02  0.17724795050E+03  0.22147856887E+03  0.12509000000E+03 0.  0.
<mgrwt>
<rscale>  2 0.45557230E+03</rscale>
<asrwt>0</asrwt>
<pdfrwt beam="1">  1       21 0.13128171E+00 0.45557230E+03</pdfrwt>
<pdfrwt beam="2">  1       21 0.85473714E-02 0.45557230E+03</pdfrwt>
<totfact> 0.40923457E+04</totfact>
</mgrwt>
</event>
<event>
 7    0  0.4732500E-002  0.4532912E+03  0.7546771E-02  0.1026745E+00
         21   -1    0    0  502  501  0.00000000000E+00  0.00000000000E+00  0.84603672477E+03  0.84603672477E+03  0.00000000000E+00 0.  1.
         21   -1    0    0  501  502 -0.00000000000E+00 -0.00000000000E+00 -0.60716316931E+02  0.60716316931E+02  0.00000000000E+00 0.  1.
      99926    2    1    2    0    0  0.71054273576E-14  0.00000000000E+00  0.78532040784E+03  0.90675304170E+03  0.45329122611E+03 0.  0.
      99925    2    3    3    0    0 -0.45911496601E+02 -0.16945003056E+02  0.69544501524E+03  0.74513592335E+03  0.26303759502E+03 0.  0.
         25    1    4    4    0    0 -0.52679897128E+02 -0.29057960681E+02  0.30983588764E+03  0.33950746974E+03  0.12509000000E+03 0.  0.
         25    1    3    3    0    0  0.45911496601E+02  0.16945003056E+02  0.89875392592E+02  0.16161711835E+03  0.12509000000E+03 0.  0.
         25    1    4    4    0    0  0.67684005265E+01  0.12112957625E+02  0.38560912761E+03  0.40562845362E+03  0.12509000000E+03 0.  0.
<mgrwt>
<rscale>  2 0.45329123E+03</rscale>
<asrwt>0</asrwt>
<pdfrwt beam="1">  1       21 0.12441716E+00 0.45329123E+03</pdfrwt>
<pdfrwt beam="2">  1       21 0.89288707E-02 0.45329123E+03</pdfrwt>
<totfact> 0.43522334E+04</totfact>
</mgrwt>
</event>
<event>
 7    0  0.4732500E-002  0.4547885E+03  0.7546771E-02  0.1026304E+00
         21   -1    0    0  502  501  0.00000000000E+00  0.00000000000E+00  0.11080242612E+03  0.11080242612E+03  0.00000000000E+00 0. -1.
         21   -1    0    0  501  502 -0.00000000000E+00 -0.00000000000E+00 -0.46666974906E+03  0.46666974906E+03  0.00000000000E+00 0. -1.
      99926    2    1    2    0    0 -0.71054273576E-14  0.00000000000E+00 -0.35586732293E+03  0.57747217518E+03  0.45478848004E+03 0.  0.
      99925    2    3    3    0    0 -0.37370214936E+02  0.91676168776E+02 -0.29349855909E+03  0.40618754747E+03  0.26276580190E+03 0.  0.
         25    1    4    4    0    0 -0.39207422821E+02  0.13812302701E+02 -0.11688956892E+03  0.17617798141E+03  0.12509000000E+03 0.  0.
         25    1    4    4    0    0  0.18372078849E+01  0.77863866076E+02 -0.17660899017E+03  0.23000956606E+03  0.12509000000E+03 0.  0.
         25    1    3    3    0    0  0.37370214936E+02 -0.91676168776E+02 -0.62368763848E+02  0.17128462771E+03  0.12509000000E+03 0.  0.
<mgrwt>
<rscale>  2 0.45478848E+03</rscale>
<asrwt>0</asrwt>
<pdfrwt beam="1">  1       21 0.16294474E-01 0.45478848E+03</pdfrwt>
<pdfrwt beam="2">  1       21 0.68627905E-01 0.45478848E+03</pdfrwt>
<totfact> 0.60187382E+04</totfact>
</mgrwt>
</event>
<event>
 7    0  0.4732500E-002  0.4529163E+03  0.7546771E-02  0.1026856E+00
         21   -1    0    0  502  501  0.00000000000E+00  0.00000000000E+00  0.65279097871E+03  0.65279097871E+03  0.00000000000E+00 0. -1.
         21   -1    0    0  501  502 -0.00000000000E+00 -0.00000000000E+00 -0.78560044336E+02  0.78560044336E+02  0.00000000000E+00 0. -1.
      99926    2    1    2    0    0  0.35527136788E-14  0.00000000000E+00  0.57423093438E+03  0.73135102305E+03  0.45291627584E+03 0.  0.
      99925    2    3    3    0    0 -0.29279729844E+02  0.81610330990E+02  0.47444325217E+03  0.54935476396E+03  0.26301465443E+03 0.  0.
         25    1    4    4    0    0  0.16024907020E+02  0.30152116971E+02  0.27622015942E+03  0.30514100408E+03  0.12509000000E+03 0.  0.
         25    1    4    4    0    0 -0.45304636863E+02  0.51458214019E+02  0.19822309276E+03  0.24421375988E+03  0.12509000000E+03 0.  0.
         25    1    3    3    0    0  0.29279729844E+02 -0.81610330990E+02  0.99787682205E+02  0.18199625909E+03  0.12509000000E+03 0.  0.
<mgrwt>
<rscale>  2 0.45291628E+03</rscale>
<asrwt>0</asrwt>
<pdfrwt beam="1">  1       21 0.95998670E-01 0.45291628E+03</pdfrwt>
<pdfrwt beam="2">  1       21 0.11552948E-01 0.45291628E+03</pdfrwt>
<totfact> 0.52081784E+04</totfact>
</mgrwt>
</event>
<event>
 7    0  0.4732500E-002  0.4478917E+03  0.7546771E-02  0.1028353E+00
         21   -1    0    0  502  501  0.00000000000E+00  0.00000000000E+00  0.10622362608E+03  0.10622362608E+03  0.00000000000E+00 0.  1.
         21   -1    0    0  501  502 -0.00000000000E+00 -0.00000000000E+00 -0.47213358718E+03  0.47213358718E+03  0.00000000000E+00 0.  1.
      99926    2    1    2    0    0  0.00000000000E+00  0.00000000000E+00 -0.36590996110E+03  0.57835721326E+03  0.44789169059E+03 0.  0.
      99925    2    3    3    0    0 -0.74387526678E+02 -0.64675456926E+02 -0.18032391299E+03  0.33380433920E+03  0.26304411117E+03 0.  0.
         25    1    4    4    0    0 -0.70224211263E+02 -0.57494444707E+02 -0.85532887721E+02  0.17663644585E+03  0.12509000000E+03 0.  0.
         25    1    4    4    0    0 -0.41633154153E+01 -0.71810122181E+01 -0.94791025265E+02  0.15716789336E+03  0.12509000000E+03 0.  0.
         25    1    3    3    0    0  0.74387526678E+02  0.64675456926E+02 -0.18558604811E+03  0.24455287405E+03  0.12509000000E+03 0.  0.
<mgrwt>
<rscale>  2 0.44789169E+03</rscale>
<asrwt>0</asrwt>
<pdfrwt beam="1">  1       21 0.15621122E-01 0.44789169E+03</pdfrwt>
<pdfrwt beam="2">  1       21 0.69431409E-01 0.44789169E+03</pdfrwt>
<totfact> 0.63526054E+04</totfact>
</mgrwt>
</event>
<event>
 7    0  0.4732500E-002  0.4847719E+03  0.7546771E-02  0.1017832E+00
         21   -1    0    0  502  501  0.00000000000E+00  0.00000000000E+00  0.31434257659E+03  0.31434257659E+03  0.00000000000E+00 0.  1.
         21   -1    0    0  501  502 -0.00000000000E+00 -0.00000000000E+00 -0.18690101807E+03  0.18690101807E+03  0.00000000000E+00 0.  1.
      99926    2    1    2    0    0  0.00000000000E+00  0.14210854715E-13  0.12744155852E+03  0.50124359467E+03  0.48477189518E+03 0.  0.
      99925    2    3    3    0    0 -0.16997821804E+02 -0.12751031445E+03  0.13290060587E+03  0.32173004216E+03  0.26324863295E+03 0.  0.
         25    1    4    4    0    0 -0.36142831046E+02 -0.92281968684E+02  0.53917025902E+02  0.16845420672E+03  0.12509000000E+03 0.  0.
         25    1    4    4    0    0  0.19145009242E+02 -0.35228345762E+02  0.78983579966E+02  0.15327583543E+03  0.12509000000E+03 0.  0.
         25    1    3    3    0    0  0.16997821804E+02  0.12751031445E+03 -0.54590473449E+01  0.17951355251E+03  0.12509000000E+03 0.  0.
<mgrwt>
<rscale>  2 0.48477190E+03</rscale>
<asrwt>0</asrwt>
<pdfrwt beam="1">  1       21 0.46226850E-01 0.48477190E+03</pdfrwt>
<pdfrwt beam="2">  1       21 0.27485444E-01 0.48477190E+03</pdfrwt>
<totfact> 0.51812110E+04</totfact>
</mgrwt>
</event>
<event>
 7    0  0.4732500E-002  0.4623427E+03  0.7546771E-02  0.1024104E+00
         21   -1    0    0  502  501  0.00000000000E+00  0.00000000000E+00  0.26283043018E+03  0.26283043018E+03  0.00000000000E+00 0. -1.
         21   -1    0    0  501  502 -0.00000000000E+00 -0.00000000000E+00 -0.20332578483E+03  0.20332578483E+03  0.00000000000E+00 0. -1.
      99926    2    1    2    0    0  0.00000000000E+00  0.00000000000E+00  0.59504645348E+02  0.46615621501E+03  0.46234274513E+03 0.  0.
      99925    2    3    3    0    0 -0.90820011430E+02 -0.36351515269E+02  0.10707873845E+03  0.30038375176E+03  0.26304911130E+03 0.  0.
         25    1    3    3    0    0  0.90820011430E+02  0.36351515269E+02 -0.47574093098E+02  0.16577246325E+03  0.12509000000E+03 0.  0.
         25    1    4    4    0    0 -0.80881549482E+02 -0.39007477170E+02  0.72486894071E+02  0.17019185126E+03  0.12509000000E+03 0.  0.
         25    1    4    4    0    0 -0.99384619477E+01  0.26559619009E+01  0.34591844374E+02  0.13019190050E+03  0.12509000000E+03 0.  0.
<mgrwt>
<rscale>  2 0.46234275E+03</rscale>
<asrwt>0</asrwt>
<pdfrwt beam="1">  1       21 0.38651534E-01 0.46234275E+03</pdfrwt>
<pdfrwt beam="2">  1       21 0.29900851E-01 0.46234275E+03</pdfrwt>
<totfact> 0.63909064E+04</totfact>
</mgrwt>
</event>
<event>
 6    0  0.4732500E-002  0.4521451E+03  0.7546771E-02  0.1027084E+00
         21   -1    0    0  502  501  0.00000000000E+00  0.00000000000E+00  0.13931360801E+03  0.13931360801E+03  0.00000000000E+00 0. -1.
         21   -1    0    0  501  502 -0.00000000000E+00 -0.00000000000E+00 -0.36686145189E+03  0.36686145189E+03  0.00000000000E+00 0. -1.
      99926    2    1    2    0    0  0.00000000000E+00  0.00000000000E+00 -0.22754784388E+03  0.50617505990E+03  0.45214507628E+03 0.  0.
         25    1    3    3    0    0  0.55539946962E+02  0.32636529029E+02 -0.96104522636E+02  0.17039194848E+03  0.12509000000E+03 0.  0.
         25    1    3    3    0    0 -0.75187750251E+02 -0.81323245066E+02 -0.10569298371E+03  0.19769972909E+03  0.12509000000E+03 0.  0.
         25    1    3    3    0    0  0.19647803289E+02  0.48686716037E+02 -0.25750337534E+02  0.13808338233E+03  0.12509000000E+03 0.  0.
<mgrwt>
<rscale>  2 0.45214508E+03</rscale>
<asrwt>0</asrwt>
<pdfrwt beam="1">  1       21 0.20487296E-01 0.45214508E+03</pdfrwt>
<pdfrwt beam="2">  1       21 0.53950213E-01 0.45214508E+03</pdfrwt>
<totfact> 0.66329234E+04</totfact>
</mgrwt>
</event>
<event>
 7    0  0.4732500E-002  0.4411723E+03  0.7546771E-02  0.1030388E+00
         21   -1    0    0  502  501  0.00000000000E+00  0.00000000000E+00  0.27582871140E+03  0.27582871140E+03  0.00000000000E+00 0. -1.
         21   -1    0    0  501  502 -0.00000000000E+00 -0.00000000000E+00 -0.17640744692E+03  0.17640744692E+03  0.00000000000E+00 0. -1.
      99926    2    1    2    0    0  0.00000000000E+00 -0.71054273576E-14  0.99421264480E+02  0.45223615831E+03  0.44117225100E+03 0.  0.
      99925    2    3    3    0    0  0.67609688687E+02 -0.63893419589E+02  0.26436935712E+02  0.28010928819E+03  0.26288564566E+03 0.  0.
         25    1    3    3    0    0 -0.67609688687E+02  0.63893419589E+02  0.72984328768E+02  0.17212687012E+03  0.12509000000E+03 0.  0.
         25    1    4    4    0    0  0.32269210190E+02 -0.48971674126E+01  0.43373436212E+02  0.13635999136E+03  0.12509000000E+03 0.  0.
         25    1    4    4    0    0  0.35340478497E+02 -0.58996252177E+02 -0.16936500500E+02  0.14374929683E+03  0.12509000000E+03 0.  0.
<mgrwt>
<rscale>  2 0.44117225E+03</rscale>
<asrwt>0</asrwt>
<pdfrwt beam="1">  1       21 0.40563046E-01 0.44117225E+03</pdfrwt>
<pdfrwt beam="2">  1       21 0.25942271E-01 0.44117225E+03</pdfrwt>
<totfact> 0.76871699E+04</totfact>
</mgrwt>
</event>
<event>
 7    0  0.4732500E-002  0.4450422E+03  0.7546771E-02  0.1029211E+00
         21   -1    0    0  502  501  0.00000000000E+00  0.00000000000E+00  0.97899492357E+03  0.97899492357E+03  0.00000000000E+00 0. -1.
         21   -1    0    0  501  502 -0.00000000000E+00 -0.00000000000E+00 -0.50578043368E+02  0.50578043368E+02  0.00000000000E+00 0. -1.
      99926    2    1    2    0    0  0.00000000000E+00  0.00000000000E+00  0.92841688020E+03  0.10295729669E+04  0.44504223486E+03 0.  0.
      99925    2    3    3    0    0 -0.20490555105E+02 -0.46013213585E+02  0.79903566233E+03  0.84269309560E+03  0.26293836735E+03 0.  0.
         25    1    4    4    0    0 -0.12751154102E+01 -0.20942873598E+02  0.27236624948E+03  0.30045151328E+03  0.12509000000E+03 0.  0.
         25    1    4    4    0    0 -0.19215439695E+02 -0.25070339987E+02  0.52666941285E+03  0.54224158232E+03  0.12509000000E+03 0.  0.
         25    1    3    3    0    0  0.20490555105E+02  0.46013213585E+02  0.12938121787E+03  0.18687987133E+03  0.12509000000E+03 0.  0.
<mgrwt>
<rscale>  2 0.44504223E+03</rscale>
<asrwt>0</asrwt>
<pdfrwt beam="1">  1       21 0.14396983E+00 0.44504223E+03</pdfrwt>
<pdfrwt beam="2">  1       21 0.74379482E-02 0.44504223E+03</pdfrwt>
<totfact> 0.41142506E+04</totfact>
</mgrwt>
</event>
<event>
 7    0  0.4732500E-002  0.4461084E+03  0.7546771E-02  0.1028889E+00
         21   -1    0    0  502  501  0.00000000000E+00  0.00000000000E+00  0.78013984490E+02  0.78013984490E+02  0.00000000000E+00 0.  1.
         21   -1    0    0  501  502 -0.00000000000E+00 -0.00000000000E+00 -0.63774696383E+03  0.63774696383E+03  0.00000000000E+00 0.  1.
      99926    2    1    2    0    0 -0.88817841970E-15  0.00000000000E+00 -0.55973297934E+03  0.71576094832E+03  0.44610842514E+03 0.  0.
      99925    2    3    3    0    0 -0.55045933553E+01 -0.10375332085E+03 -0.38172730513E+03  0.47466225424E+03  0.26228508914E+03 0.  0.
         25    1    4    4    0    0 -0.24744980831E+02 -0.33296195172E+02 -0.13572406307E+03  0.18918107751E+03  0.12509000000E+03 0.  0.
         25    1    3    3    0    0  0.55045933553E+01  0.10375332085E+03 -0.17800567421E+03  0.24109869408E+03  0.12509000000E+03 0.  0.
         25    1    4    4    0    0  0.19240387475E+02 -0.70457125675E+02 -0.24600324206E+03  0.28548117674E+03  0.12509000000E+03 0.  0.
<mgrwt>
<rscale>  2 0.44610843E+03</rscale>
<asrwt>0</asrwt>
<pdfrwt beam="1">  1       21 0.11472645E-01 0.44610843E+03</pdfrwt>
<pdfrwt beam="2">  1       21 0.93786319E-01 0.44610843E+03</pdfrwt>
<totfact> 0.55861462E+04</totfact>
</mgrwt>
</event>
<event>
 7    0  0.4732500E-002  0.4274282E+03  0.7546771E-02  0.1034675E+00
         21   -1    0    0  502  501  0.00000000000E+00  0.00000000000E+00  0.54847794088E+03  0.54847794088E+03  0.00000000000E+00 0.  1.
         21   -1    0    0  501  502 -0.00000000000E+00 -0.00000000000E+00 -0.83273586812E+02  0.83273586812E+02  0.00000000000E+00 0.  1.
      99926    2    1    2    0    0  0.00000000000E+00  0.00000000000E+00  0.46520435407E+03  0.63175152769E+03  0.42742824158E+03 0.  0.
      99925    2    3    3    0    0 -0.61551089003E+02  0.32179862435E+02  0.22899720416E+03  0.35558960803E+03  0.26302123436E+03 0.  0.
         25    1    4    4    0    0 -0.34695150874E+02 -0.15364188538E+01  0.16103304196E+03  0.20684598807E+03  0.12509000000E+03 0.  0.
         25    1    4    4    0    0 -0.26855938129E+02  0.33716281289E+02  0.67964162207E+02  0.14874361997E+03  0.12509000000E+03 0.  0.
         25    1    3    3    0    0  0.61551089003E+02 -0.32179862435E+02  0.23620714991E+03  0.27616191966E+03  0.12509000000E+03 0.  0.
<mgrwt>
<rscale>  2 0.42742824E+03</rscale>
<asrwt>0</asrwt>
<pdfrwt beam="1">  1       21 0.80658519E-01 0.42742824E+03</pdfrwt>
<pdfrwt beam="2">  1       21 0.12246116E-01 0.42742824E+03</pdfrwt>
<totfact> 0.70993965E+04</totfact>
</mgrwt>
</event>
<event>
 7    0  0.4732500E-002  0.4587397E+03  0.7546771E-02  0.1025147E+00
         21   -1    0    0  502  501  0.00000000000E+00  0.00000000000E+00  0.23708541060E+03  0.23708541060E+03  0.00000000000E+00 0.  1.
         21   -1    0    0  501  502 -0.00000000000E+00 -0.00000000000E+00 -0.22190534619E+03  0.22190534619E+03  0.00000000000E+00 0.  1.
      99926    2    1    2    0    0  0.00000000000E+00  0.00000000000E+00  0.15180064417E+02  0.45899075679E+03  0.45873966524E+03 0.  0.
      99925    2    3    3    0    0 -0.65432663910E+02  0.93934974375E+02 -0.12412021197E+02  0.28719423702E+03  0.26309933217E+03 0.  0.
         25    1    3    3    0    0  0.65432663910E+02 -0.93934974375E+02  0.27592085613E+02  0.17179651977E+03  0.12509000000E+03 0.  0.
         25    1    4    4    0    0 -0.41229939647E+02  0.11375805516E+02 -0.26123749509E+02  0.13475635519E+03  0.12509000000E+03 0.  0.
         25    1    4    4    0    0 -0.24202724263E+02  0.82559168859E+02  0.13711728312E+02  0.15243788183E+03  0.12509000000E+03 0.  0.
<mgrwt>
<rscale>  2 0.45873967E+03</rscale>
<asrwt>0</asrwt>
<pdfrwt beam="1">  1       21 0.34865502E-01 0.45873967E+03</pdfrwt>
<pdfrwt beam="2">  1       21 0.32633139E-01 0.45873967E+03</pdfrwt>
<totfact> 0.66255293E+04</totfact>
</mgrwt>
</event>
<event>
 7    0  0.4732500E-002  0.4568726E+03  0.7546771E-02  0.1025692E+00
         21   -1    0    0  502  501  0.00000000000E+00  0.00000000000E+00  0.21790577982E+03  0.21790577982E+03  0.00000000000E+00 0. -1.
         21   -1    0    0  501  502 -0.00000000000E+00 -0.00000000000E+00 -0.23947573317E+03  0.23947573317E+03  0.00000000000E+00 0. -1.
      99926    2    1    2    0    0  0.00000000000E+00 -0.35527136788E-14 -0.21569953351E+02  0.45738151299E+03  0.45687261412E+03 0.  0.
      99925    2    3    3    0    0 -0.82570717007E+02  0.22625003435E+02  0.63353790236E+02  0.28363064418E+03  0.26287416284E+03 0.  0.
         25    1    4    4    0    0 -0.57462965778E+02 -0.25082160245E+02  0.39010120381E+02  0.14525978380E+03  0.12509000000E+03 0.  0.
         25    1    4    4    0    0 -0.25107751229E+02  0.47707163680E+02  0.24343669855E+02  0.13837086037E+03  0.12509000000E+03 0.  0.
         25    1    3    3    0    0  0.82570717007E+02 -0.22625003435E+02 -0.84923743587E+02  0.17375086881E+03  0.12509000000E+03 0.  0.
<mgrwt>
<rscale>  2 0.45687261E+03</rscale>
<asrwt>0</asrwt>
<pdfrwt beam="1">  1       21 0.32044968E-01 0.45687261E+03</pdfrwt>
<pdfrwt beam="2">  1       21 0.35217020E-01 0.45687261E+03</pdfrwt>
<totfact> 0.67359618E+04</totfact>
</mgrwt>
</event>
<event>
 7    0  0.4732500E-002  0.4502866E+03  0.7546771E-02  0.1027637E+00
         21   -1    0    0  502  501  0.00000000000E+00  0.00000000000E+00  0.32540724788E+03  0.32540724788E+03  0.00000000000E+00 0.  1.
         21   -1    0    0  501  502 -0.00000000000E+00 -0.00000000000E+00 -0.15577249088E+03  0.15577249088E+03  0.00000000000E+00 0.  1.
      99926    2    1    2    0    0  0.35527136788E-14  0.00000000000E+00  0.16963475701E+03  0.48117973876E+03  0.45028656454E+03 0.  0.
      99925    2    3    3    0    0 -0.25069801657E+02 -0.63139138519E+02  0.16483676746E+02  0.27209170167E+03  0.26295843160E+03 0.  0.
         25    1    3    3    0    0  0.25069801657E+02  0.63139138519E+02  0.15315108026E+03  0.20908803709E+03  0.12509000000E+03 0.  0.
         25    1    4    4    0    0 -0.44652184999E+02 -0.56387828318E+02  0.50455775141E+00  0.14429541741E+03  0.12509000000E+03 0.  0.
         25    1    4    4    0    0  0.19582383341E+02 -0.67513102005E+01  0.15979118995E+02  0.12779628426E+03  0.12509000000E+03 0.  0.
<mgrwt>
<rscale>  2 0.45028656E+03</rscale>
<asrwt>0</asrwt>
<pdfrwt beam="1">  1       21 0.47854007E-01 0.45028656E+03</pdfrwt>
<pdfrwt beam="2">  1       21 0.22907719E-01 0.45028656E+03</pdfrwt>
<totfact> 0.69166261E+04</totfact>
</mgrwt>
</event>
<event>
 7    0  0.4732500E-002  0.4558547E+03  0.7546771E-02  0.1025990E+00
         21   -1    0    0  502  501  0.00000000000E+00  0.00000000000E+00  0.70629311645E+03  0.70629311645E+03  0.00000000000E+00 0. -1.
         21   -1    0    0  501  502 -0.00000000000E+00 -0.00000000000E+00 -0.73554268686E+02  0.73554268686E+02  0.00000000000E+00 0. -1.
      99926    2    1    2    0    0 -0.35527136788E-14  0.00000000000E+00  0.63273884776E+03  0.77984738513E+03  0.45585468587E+03 0.  0.
      99925    2    3    3    0    0  0.21485972878E+02  0.94628881498E+02  0.50020753736E+03  0.57338109592E+03  0.26294871836E+03 0.  0.
         25    1    4    4    0    0 -0.12196845331E+02  0.58358364987E+02  0.31810639348E+03  0.34697787750E+03  0.12509000000E+03 0.  0.
         25    1    3    3    0    0 -0.21485972878E+02 -0.94628881498E+02  0.13253131040E+03  0.20646628921E+03  0.12509000000E+03 0.  0.
         25    1    4    4    0    0  0.33682818209E+02  0.36270516511E+02  0.18210114388E+03  0.22640321842E+03  0.12509000000E+03 0.  0.
<mgrwt>
<rscale>  2 0.45585469E+03</rscale>
<asrwt>0</asrwt>
<pdfrwt beam="1">  1       21 0.10386663E+00 0.45585469E+03</pdfrwt>
<pdfrwt beam="2">  1       21 0.10816805E-01 0.45585469E+03</pdfrwt>
<totfact> 0.48429343E+04</totfact>
</mgrwt>
</event>
<event>
 7    0  0.4732500E-002  0.4540286E+03  0.7546771E-02  0.1026527E+00
         21   -1    0    0  502  501  0.00000000000E+00  0.00000000000E+00  0.17800282015E+04  0.17800282015E+04  0.00000000000E+00 0. -1.
         21   -1    0    0  501  502 -0.00000000000E+00 -0.00000000000E+00 -0.28952065172E+02  0.28952065172E+02  0.00000000000E+00 0. -1.
      99926    2    1    2    0    0  0.17763568394E-14  0.00000000000E+00  0.17510761363E+04  0.18089802666E+04  0.45402860041E+03 0.  0.
      99925    2    3    3    0    0 -0.15888961356E+02 -0.38370817928E+02  0.68739047871E+03  0.73715963565E+03  0.26300927636E+03 0.  0.
         25    1    3    3    0    0  0.15888961356E+02  0.38370817928E+02  0.10636856576E+04  0.10718206310E+04  0.12509000000E+03 0.  0.
         25    1    4    4    0    0 -0.30319734740E+02 -0.24142415209E+02  0.25613090192E+03  0.28766767205E+03  0.12509000000E+03 0.  0.
         25    1    4    4    0    0  0.14430773384E+02 -0.14228402719E+02  0.43125957679E+03  0.44949196360E+03  0.12509000000E+03 0.  0.
<mgrwt>
<rscale>  2 0.45402860E+03</rscale>
<asrwt>0</asrwt>
<pdfrwt beam="1">  1       21 0.26176878E+00 0.45402860E+03</pdfrwt>
<pdfrwt beam="2">  1       21 0.42576578E-02 0.45402860E+03</pdfrwt>
<totfact> 0.17217033E+04</totfact>
</mgrwt>
</event>
<event>
 7    0  0.4732500E-002  0.4518176E+03  0.7546771E-02  0.1027181E+00
         21   -1    0    0  502  501  0.00000000000E+00  0.00000000000E+00  0.44302542536E+03  0.44302542536E+03  0.00000000000E+00 0. -1.
         21   -1    0    0  501  502 -0.00000000000E+00 -0.00000000000E+00 -0.11519606244E+03  0.11519606244E+03  0.00000000000E+00 0. -1.
      99926    2    1    2    0    0  0.35527136788E-14  0.00000000000E+00  0.32782936292E+03  0.55822148780E+03  0.45181759400E+03 0.  0.
      99925    2    3    3    0    0  0.31290329846E+02  0.24142990149E+02  0.33375970743E+03  0.42690261710E+03  0.26322677194E+03 0.  0.
         25    1    4    4    0    0  0.37557200243E+02  0.51155054470E+00  0.11650086498E+03  0.17501646955E+03  0.12509000000E+03 0.  0.
         25    1    3    3    0    0 -0.31290329846E+02 -0.24142990149E+02 -0.59303445127E+01  0.13131887070E+03  0.12509000000E+03 0.  0.
         25    1    4    4    0    0 -0.62668703967E+01  0.23631439605E+02  0.21725884246E+03  0.25188614755E+03  0.12509000000E+03 0.  0.
<mgrwt>
<rscale>  2 0.45181759E+03</rscale>
<asrwt>0</asrwt>
<pdfrwt beam="1">  1       21 0.65150797E-01 0.45181759E+03</pdfrwt>
<pdfrwt beam="2">  1       21 0.16940598E-01 0.45181759E+03</pdfrwt>
<totfact> 0.62894867E+04</totfact>
</mgrwt>
</event>
<event>
 7    0  0.4732500E-002  0.4551769E+03  0.7546771E-02  0.1026189E+00
         21   -1    0    0  502  501  0.00000000000E+00  0.00000000000E+00  0.16879316637E+03  0.16879316637E+03  0.00000000000E+00 0. -1.
         21   -1    0    0  501  502 -0.00000000000E+00 -0.00000000000E+00 -0.30686368466E+03  0.30686368466E+03  0.00000000000E+00 0. -1.
      99926    2    1    2    0    0  0.14210854715E-13  0.71054273576E-14 -0.13807051829E+03  0.47565685103E+03  0.45517685784E+03 0.  0.
      99925    2    3    3    0    0  0.10662445980E+03  0.36412814571E+02 -0.74123556523E+02  0.29556967627E+03  0.26300658434E+03 0.  0.
         25    1    4    4    0    0  0.75885943058E+02 -0.92059832283E+01 -0.17450067684E+02  0.14763278580E+03  0.12509000000E+03 0.  0.
         25    1    3    3    0    0 -0.10662445980E+03 -0.36412814571E+02 -0.63946961766E+02  0.18008717476E+03  0.12509000000E+03 0.  0.
         25    1    4    4    0    0  0.30738516746E+02  0.45618797800E+02 -0.56673488838E+02  0.14793689047E+03  0.12509000000E+03 0.  0.
<mgrwt>
<rscale>  2 0.45517686E+03</rscale>
<asrwt>0</asrwt>
<pdfrwt beam="1">  1       21 0.24822524E-01 0.45517686E+03</pdfrwt>
<pdfrwt beam="2">  1       21 0.45127013E-01 0.45517686E+03</pdfrwt>
<totfact> 0.66923655E+04</totfact>
</mgrwt>
</event>
<event>
 7    0  0.4732500E-002  0.4550703E+03  0.7546771E-02  0.1026221E+00
         21   -1    0    0  502  501  0.00000000000E+00  0.00000000000E+00  0.41146058868E+03  0.41146058868E+03  0.00000000000E+00 0. -1.
         21   -1    0    0  501  502 -0.00000000000E+00 -0.00000000000E+00 -0.12582550296E+03  0.12582550296E+03  0.00000000000E+00 0. -1.
      99926    2    1    2    0    0  0.14210854715E-13  0.14210854715E-13  0.28563508571E+03  0.53728609164E+03  0.45507026060E+03 0.  0.
      99925    2    3    3    0    0  0.85794202991E+02  0.73532509179E+02  0.18922917140E+03  0.34309730827E+03  0.26294563784E+03 0.  0.
         25    1    4    4    0    0  0.20943203784E+02  0.47804462948E+01  0.62351986358E+02  0.14140986088E+03  0.12509000000E+03 0.  0.
         25    1    3    3    0    0 -0.85794202991E+02 -0.73532509179E+02  0.96405914309E+02  0.19418878337E+03  0.12509000000E+03 0.  0.
         25    1    4    4    0    0  0.64850999207E+02  0.68752062884E+02  0.12687718505E+03  0.20168744739E+03  0.12509000000E+03 0.  0.
<mgrwt>
<rscale>  2 0.45507026E+03</rscale>
<asrwt>0</asrwt>
<pdfrwt beam="1">  1       21 0.60508910E-01 0.45507026E+03</pdfrwt>
<pdfrwt beam="2">  1       21 0.18503751E-01 0.45507026E+03</pdfrwt>
<totfact> 0.62679695E+04</totfact>
</mgrwt>
</event>
<event>
 7    0  0.4732500E-002  0.4353231E+03  0.7546771E-02  0.1032192E+00
         21   -1    0    0  502  501  0.00000000000E+00  0.00000000000E+00  0.24906194285E+03  0.24906194285E+03  0.00000000000E+00 0.  1.
         21   -1    0    0  501  502 -0.00000000000E+00 -0.00000000000E+00 -0.19021996260E+03  0.19021996260E+03  0.00000000000E+00 0.  1.
      99926    2    1    2    0    0  0.71054273576E-14  0.88817841970E-15  0.58841980250E+02  0.43928190546E+03  0.43532311428E+03 0.  0.
      99925    2    3    3    0    0  0.43644273806E+02 -0.47470256570E+01 -0.45488348125E+02  0.27058192796E+03  0.26309320219E+03 0.  0.
         25    1    3    3    0    0 -0.43644273806E+02  0.47470256570E+01  0.10433032838E+03  0.16869997750E+03  0.12509000000E+03 0.  0.
         25    1    4    4    0    0 -0.12990222631E+02 -0.23763377225E+02 -0.25873612974E+02  0.13057716466E+03  0.12509000000E+03 0.  0.
         25    1    4    4    0    0  0.56634496437E+02  0.19016351568E+02 -0.19614735151E+02  0.14000476331E+03  0.12509000000E+03 0.  0.
<mgrwt>
<rscale>  2 0.43532311E+03</rscale>
<asrwt>0</asrwt>
<pdfrwt beam="1">  1       21 0.36626757E-01 0.43532311E+03</pdfrwt>
<pdfrwt beam="2">  1       21 0.27973524E-01 0.43532311E+03</pdfrwt>
<totfact> 0.81822858E+04</totfact>
</mgrwt>
</event>
<event>
 7    0  0.4732500E-002  0.4568257E+03  0.7546771E-02  0.1025706E+00
         21   -1    0    0  502  501  0.00000000000E+00  0.00000000000E+00  0.11712250965E+03  0.11712250965E+03  0.00000000000E+00 0.  1.
         21   -1    0    0  501  502 -0.00000000000E+00 -0.00000000000E+00 -0.44545182282E+03  0.44545182282E+03  0.00000000000E+00 0.  1.
      99926    2    1    2    0    0 -0.71054273576E-14  0.17763568394E-14 -0.32832931317E+03  0.56257433247E+03  0.45682572351E+03 0.  0.
      99925    2    3    3    0    0  0.60764537896E+02 -0.75181280476E+01 -0.86423660290E+02  0.28344227714E+03  0.26290991631E+03 0.  0.
         25    1    4    4    0    0  0.25033634226E+02 -0.43803140973E+02 -0.44104677650E+02  0.14190887461E+03  0.12509000000E+03 0.  0.
         25    1    3    3    0    0 -0.60764537896E+02  0.75181280476E+01 -0.24190565288E+03  0.27913205533E+03  0.12509000000E+03 0.  0.
         25    1    4    4    0    0  0.35730903670E+02  0.36285012926E+02 -0.42318982640E+02  0.14153340253E+03  0.12509000000E+03 0.  0.
<mgrwt>
<rscale>  2 0.45682572E+03</rscale>
<asrwt>0</asrwt>
<pdfrwt beam="1">  1       21 0.17223898E-01 0.45682572E+03</pdfrwt>
<pdfrwt beam="2">  1       21 0.65507621E-01 0.45682572E+03</pdfrwt>
<totfact> 0.60169569E+04</totfact>
</mgrwt>
</event>
<event>
 7    0  0.4732500E-002  0.4451591E+03  0.7546771E-02  0.1029176E+00
         21   -1    0    0  502  501  0.00000000000E+00  0.00000000000E+00  0.16792242526E+04  0.16792242526E+04  0.00000000000E+00 0.  1.
         21   -1    0    0  501  502 -0.00000000000E+00 -0.00000000000E+00 -0.29502701495E+02  0.29502701495E+02  0.00000000000E+00 0.  1.
      99926    2    1    2    0    0  0.00000000000E+00  0.00000000000E+00  0.16497215511E+04  0.17087269541E+04  0.44515908109E+03 0.  0.
      99925    2    3    3    0    0 -0.62599437817E+02  0.62625195068E+02  0.83999560309E+03  0.88462488296E+03  0.26292197637E+03 0.  0.
         25    1    4    4    0    0  0.45348482363E+00  0.52102018613E+02  0.45762168985E+03  0.47726297270E+03  0.12509000000E+03 0.  0.
         25    1    3    3    0    0  0.62599437817E+02 -0.62625195068E+02  0.80972594804E+03  0.82410207117E+03  0.12509000000E+03 0.  0.
         25    1    4    4    0    0 -0.63052922641E+02  0.10523176454E+02  0.38237391324E+03  0.40736191025E+03  0.12509000000E+03 0.  0.
<mgrwt>
<rscale>  2 0.44515908E+03</rscale>
<asrwt>0</asrwt>
<pdfrwt beam="1">  1       21 0.24694468E+00 0.44515908E+03</pdfrwt>
<pdfrwt beam="2">  1       21 0.43386337E-02 0.44515908E+03</pdfrwt>
<totfact> 0.20611271E+04</totfact>
</mgrwt>
</event>
<event>
 7    0  0.4732500E-002  0.4589339E+03  0.7546771E-02  0.1025091E+00
         21   -1    0    0  502  501  0.00000000000E+00  0.00000000000E+00  0.32150079602E+03  0.32150079602E+03  0.00000000000E+00 0. -1.
         21   -1    0    0  501  502 -0.00000000000E+00 -0.00000000000E+00 -0.16377897232E+03  0.16377897232E+03  0.00000000000E+00 0. -1.
      99926    2    1    2    0    0  0.00000000000E+00 -0.35527136788E-14  0.15772182370E+03  0.48527976835E+03  0.45893385133E+03 0.  0.
      99925    2    3    3    0    0  0.82643770981E+02 -0.19554602940E+02  0.14628943568E+02  0.27710807040E+03  0.26336761630E+03 0.  0.
         25    1    4    4    0    0  0.19863662545E+02 -0.45102127110E+02  0.74615374831E+01  0.13465492788E+03  0.12509000000E+03 0.  0.
         25    1    3    3    0    0 -0.82643770981E+02  0.19554602940E+02  0.14309288014E+03  0.20817169794E+03  0.12509000000E+03 0.  0.
         25    1    4    4    0    0  0.62780108436E+02  0.25547524170E+02  0.71674060845E+01  0.14245314253E+03  0.12509000000E+03 0.  0.
<mgrwt>
<rscale>  2 0.45893385E+03</rscale>
<asrwt>0</asrwt>
<pdfrwt beam="1">  1       21 0.47279529E-01 0.45893385E+03</pdfrwt>
<pdfrwt beam="2">  1       21 0.24085143E-01 0.45893385E+03</pdfrwt>
<totfact> 0.64286672E+04</totfact>
</mgrwt>
</event>
<event>
 7    0  0.4732500E-002  0.4566845E+03  0.7546771E-02  0.1025747E+00
         21   -1    0    0  502  501  0.00000000000E+00  0.00000000000E+00  0.15857424611E+03  0.15857424611E+03  0.00000000000E+00 0.  1.
         21   -1    0    0  501  502 -0.00000000000E+00 -0.00000000000E+00 -0.32880618442E+03  0.32880618442E+03  0.00000000000E+00 0.  1.
      99926    2    1    2    0    0  0.35527136788E-14  0.00000000000E+00 -0.17023193830E+03  0.48738043053E+03  0.45668454237E+03 0.  0.
      99925    2    3    3    0    0 -0.18245930584E+02  0.57896978387E+02 -0.30948878864E+01  0.26997004482E+03  0.26303853840E+03 0.  0.
         25    1    3    3    0    0  0.18245930584E+02 -0.57896978387E+02 -0.16713705042E+03  0.21741038570E+03  0.12509000000E+03 0.  0.
         25    1    4    4    0    0 -0.24785986930E+02 -0.49036816505E+00 -0.25267949143E+02  0.13000216522E+03  0.12509000000E+03 0.  0.
         25    1    4    4    0    0  0.65400563468E+01  0.58387346553E+02  0.22173061257E+02  0.13996787960E+03  0.12509000000E+03 0.  0.
<mgrwt>
<rscale>  2 0.45668454E+03</rscale>
<asrwt>0</asrwt>
<pdfrwt beam="1">  1       21 0.23319742E-01 0.45668454E+03</pdfrwt>
<pdfrwt beam="2">  1       21 0.48353850E-01 0.45668454E+03</pdfrwt>
<totfact> 0.65289186E+04</totfact>
</mgrwt>
</event>
<event>
 7    0  0.4732500E-002  0.4629430E+03  0.7546771E-02  0.1023931E+00
         21   -1    0    0  502  501  0.00000000000E+00  0.00000000000E+00  0.30535509188E+03  0.30535509188E+03  0.00000000000E+00 0.  1.
         21   -1    0    0  501  502 -0.00000000000E+00 -0.00000000000E+00 -0.17546476076E+03  0.17546476076E+03  0.00000000000E+00 0.  1.
      99926    2    1    2    0    0  0.00000000000E+00  0.00000000000E+00  0.12989033112E+03  0.48081985263E+03  0.46294301222E+03 0.  0.
      99925    2    3    3    0    0  0.32968138783E+02 -0.41464146966E+02 -0.31290879213E+02  0.27002833401E+03  0.26292586101E+03 0.  0.
         25    1    4    4    0    0  0.15253697736E+02 -0.61222506747E+02 -0.10723884237E+02  0.14051113984E+03  0.12509000000E+03 0.  0.
         25    1    3    3    0    0 -0.32968138783E+02  0.41464146966E+02  0.16118121033E+03  0.21079151862E+03  0.12509000000E+03 0.  0.
         25    1    4    4    0    0  0.17714441047E+02  0.19758359781E+02 -0.20566994976E+02  0.12951719417E+03  0.12509000000E+03 0.  0.
<mgrwt>
<rscale>  2 0.46294301E+03</rscale>
<asrwt>0</asrwt>
<pdfrwt beam="1">  1       21 0.44905161E-01 0.46294301E+03</pdfrwt>
<pdfrwt beam="2">  1       21 0.25803641E-01 0.46294301E+03</pdfrwt>
<totfact> 0.62600260E+04</totfact>
</mgrwt>
</event>
<event>
 7    0  0.4732500E-002  0.4490944E+03  0.7546771E-02  0.1027992E+00
         21   -1    0    0  502  501  0.00000000000E+00  0.00000000000E+00  0.44514901312E+02  0.44514901312E+02  0.00000000000E+00 0.  1.
         21   -1    0    0  501  502 -0.00000000000E+00 -0.00000000000E+00 -0.11326867131E+04  0.11326867131E+04  0.00000000000E+00 0.  1.
      99926    2    1    2    0    0  0.00000000000E+00  0.00000000000E+00 -0.10881718118E+04  0.11772016144E+04  0.44909436537E+03 0.  0.
      99925    2    3    3    0    0  0.41085319004E+02  0.19011704149E+02 -0.43242661368E+03  0.50809869163E+03  0.26291073749E+03 0.  0.
         25    1    3    3    0    0 -0.41085319004E+02 -0.19011704149E+02 -0.65574519812E+03  0.66910292279E+03  0.12509000000E+03 0.  0.
         25    1    4    4    0    0  0.97338141816E+01  0.48365076037E+02 -0.22316925416E+03  0.26054932704E+03  0.12509000000E+03 0.  0.
         25    1    4    4    0    0  0.31351504822E+02 -0.29353371888E+02 -0.20925735952E+03  0.24754936459E+03  0.12509000000E+03 0.  0.
<mgrwt>
<rscale>  2 0.44909437E+03</rscale>
<asrwt>0</asrwt>
<pdfrwt beam="1">  1       21 0.65463091E-02 0.44909437E+03</pdfrwt>
<pdfrwt beam="2">  1       21 0.16657157E+00 0.44909437E+03</pdfrwt>
<totfact> 0.34444900E+04</totfact>
</mgrwt>
</event>
<event>
 7    0  0.4732500E-002  0.4564597E+03  0.7546771E-02  0.1025813E+00
         21   -1    0    0  502  501  0.00000000000E+00  0.00000000000E+00  0.43891620708E+03  0.43891620708E+03  0.00000000000E+00 0.  1.
         21   -1    0    0  501  502 -0.00000000000E+00 -0.00000000000E+00 -0.11867610054E+03  0.11867610054E+03  0.00000000000E+00 0.  1.
      99926    2    1    2    0    0  0.14210854715E-13  0.00000000000E+00  0.32024010654E+03  0.55759230762E+03  0.45645969777E+03 0.  0.
      99925    2    3    3    0    0 -0.84574857592E+02  0.17078720432E+02  0.11215422583E+03  0.29992618436E+03  0.26444764409E+03 0.  0.
         25    1    3    3    0    0  0.84574857592E+02 -0.17078720432E+02  0.20808588071E+03  0.25766612327E+03  0.12509000000E+03 0.  0.
         25    1    4    4    0    0 -0.67919956368E+02  0.44194854557E+02  0.57261238776E+02  0.15966422019E+03  0.12509000000E+03 0.  0.
         25    1    4    4    0    0 -0.16654901225E+02 -0.27116134125E+02  0.54892987050E+02  0.14026196417E+03  0.12509000000E+03 0.  0.
<mgrwt>
<rscale>  2 0.45645970E+03</rscale>
<asrwt>0</asrwt>
<pdfrwt beam="1">  1       21 0.64546501E-01 0.45645970E+03</pdfrwt>
<pdfrwt beam="2">  1       21 0.17452368E-01 0.45645970E+03</pdfrwt>
<totfact> 0.60664062E+04</totfact>
</mgrwt>
</event>
<event>
 7    0  0.4732500E-002  0.4540063E+03  0.7546771E-02  0.1026534E+00
         21   -1    0    0  502  501  0.00000000000E+00  0.00000000000E+00  0.61708164680E+03  0.61708164680E+03  0.00000000000E+00 0. -1.
         21   -1    0    0  501  502 -0.00000000000E+00 -0.00000000000E+00 -0.83506652218E+02  0.83506652218E+02  0.00000000000E+00 0. -1.
      99926    2    1    2    0    0  0.00000000000E+00  0.00000000000E+00  0.53357499458E+03  0.70058829902E+03  0.45400626634E+03 0.  0.
      99925    2    3    3    0    0  0.33681376323E+02 -0.98039022544E+02  0.26967352667E+03  0.39068899615E+03  0.26299809063E+03 0.  0.
         25    1    4    4    0    0 -0.17541976923E+02 -0.51706779030E+02  0.16162367072E+03  0.21154439484E+03  0.12509000000E+03 0.  0.
         25    1    3    3    0    0 -0.33681376323E+02  0.98039022544E+02  0.26390146791E+03  0.30989930286E+03  0.12509000000E+03 0.  0.
         25    1    4    4    0    0  0.51223353246E+02 -0.46332243514E+02  0.10804985596E+03  0.17914460131E+03  0.12509000000E+03 0.  0.
<mgrwt>
<rscale>  2 0.45400627E+03</rscale>
<asrwt>0</asrwt>
<pdfrwt beam="1">  1       21 0.90747299E-01 0.45400627E+03</pdfrwt>
<pdfrwt beam="2">  1       21 0.12280390E-01 0.45400627E+03</pdfrwt>
<totfact> 0.53286524E+04</totfact>
</mgrwt>
</event>
<event>
 7    0  0.4732500E-002  0.4528648E+03  0.7546771E-02  0.1026871E+00
         21   -1    0    0  502  501  0.00000000000E+00  0.00000000000E+00  0.14987142438E+03  0.14987142438E+03  0.00000000000E+00 0.  1.
         21   -1    0    0  501  502 -0.00000000000E+00 -0.00000000000E+00 -0.34210412232E+03  0.34210412232E+03  0.00000000000E+00 0.  1.
      99926    2    1    2    0    0  0.35527136788E-14 -0.71054273576E-14 -0.19223269795E+03  0.49197554670E+03  0.45286480145E+03 0.  0.
      99925    2    3    3    0    0  0.19908388349E+02  0.61397010286E+02 -0.21985212097E+03  0.34853121106E+03  0.26262732758E+03 0.  0.
         25    1    4    4    0    0  0.34858466479E+02  0.57553115417E+02 -0.13932752384E+03  0.19896517479E+03  0.12509000000E+03 0.  0.
         25    1    4    4    0    0 -0.14950078130E+02  0.38438948681E+01 -0.80524597130E+02  0.14956603627E+03  0.12509000000E+03 0.  0.
         25    1    3    3    0    0 -0.19908388349E+02 -0.61397010286E+02  0.27619423023E+02  0.14344433564E+03  0.12509000000E+03 0.  0.
<mgrwt>
<rscale>  2 0.45286480E+03</rscale>
<asrwt>0</asrwt>
<pdfrwt beam="1">  1       21 0.22039915E-01 0.45286480E+03</pdfrwt>
<pdfrwt beam="2">  1       21 0.50309430E-01 0.45286480E+03</pdfrwt>
<totfact> 0.66966091E+04</totfact>
</mgrwt>
</event>
<event>
 7    0  0.4732500E-002  0.4562112E+03  0.7546771E-02  0.1025886E+00
         21   -1    0    0  502  501  0.00000000000E+00  0.00000000000E+00  0.14649507304E+04  0.14649507304E+04  0.00000000000E+00 0.  1.
         21   -1    0    0  501  502 -0.00000000000E+00 -0.00000000000E+00 -0.35518034796E+02  0.35518034796E+02  0.00000000000E+00 0.  1.
      99926    2    1    2    0    0 -0.14210854715E-13  0.00000000000E+00  0.14294326956E+04  0.15004687652E+04  0.45621122747E+03 0.  0.
      99925    2    3    3    0    0  0.71827385662E+02  0.65654937127E+02  0.70058587550E+03  0.75459012938E+03  0.26289912571E+03 0.  0.
         25    1    4    4    0    0  0.38630229125E+02  0.10983502249E+02  0.43118122788E+03  0.45075236139E+03  0.12509000000E+03 0.  0.
         25    1    4    4    0    0  0.33197156537E+02  0.54671434878E+02  0.26940464763E+03  0.30383776799E+03  0.12509000000E+03 0.  0.
         25    1    3    3    0    0 -0.71827385662E+02 -0.65654937127E+02  0.72884682011E+03  0.74587863583E+03  0.12509000000E+03 0.  0.
<mgrwt>
<rscale>  2 0.45621123E+03</rscale>
<asrwt>0</asrwt>
<pdfrwt beam="1">  1       21 0.21543389E+00 0.45621123E+03</pdfrwt>
<pdfrwt beam="2">  1       21 0.52232414E-02 0.45621123E+03</pdfrwt>
<totfact> 0.23545345E+04</totfact>
</mgrwt>
</event>
<event>
 7    0  0.4732500E-002  0.4521216E+03  0.7546771E-02  0.1027091E+00
         21   -1    0    0  502  501  0.00000000000E+00  0.00000000000E+00  0.71513467176E+03  0.71513467176E+03  0.00000000000E+00 0.  1.
         21   -1    0    0  501  502 -0.00000000000E+00 -0.00000000000E+00 -0.71459960656E+02  0.71459960656E+02  0.00000000000E+00 0.  1.
      99926    2    1    2    0    0  0.00000000000E+00 -0.71054273576E-14  0.64367471110E+03  0.78659463241E+03  0.45212164517E+03 0.  0.
      99925    2    3    3    0    0  0.85044561396E+02  0.63810720190E+02  0.45807149194E+03  0.53880349355E+03  0.26301202920E+03 0.  0.
         25    1    3    3    0    0 -0.85044561396E+02 -0.63810720190E+02  0.18560321916E+03  0.24779113886E+03  0.12509000000E+03 0.  0.
         25    1    4    4    0    0  0.29391825064E+02 -0.81352548068E+01  0.19640229738E+03  0.23484342074E+03  0.12509000000E+03 0.  0.
         25    1    4    4    0    0  0.55652736332E+02  0.71945974996E+02  0.26166919456E+03  0.30396007281E+03  0.12509000000E+03 0.  0.
<mgrwt>
<rscale>  2 0.45212165E+03</rscale>
<asrwt>0</asrwt>
<pdfrwt beam="1">  1       21 0.10516686E+00 0.45212165E+03</pdfrwt>
<pdfrwt beam="2">  1       21 0.10508818E-01 0.45212165E+03</pdfrwt>
<totfact> 0.49529575E+04</totfact>
</mgrwt>
</event>
<event>
 7    0  0.4732500E-002  0.4399396E+03  0.7546771E-02  0.1030765E+00
         21   -1    0    0  502  501  0.00000000000E+00  0.00000000000E+00  0.86227094064E+03  0.86227094064E+03  0.00000000000E+00 0. -1.
         21   -1    0    0  501  502 -0.00000000000E+00 -0.00000000000E+00 -0.56115444095E+02  0.56115444095E+02  0.00000000000E+00 0. -1.
      99926    2    1    2    0    0  0.00000000000E+00  0.00000000000E+00  0.80615549655E+03  0.91838638474E+03  0.43993961751E+03 0.  0.
      99925    2    3    3    0    0 -0.86001259220E+02 -0.47611262367E+02  0.52545009847E+03  0.59573165054E+03  0.26293600853E+03 0.  0.
         25    1    4    4    0    0 -0.75644066953E+02 -0.21646593503E+02  0.22628434693E+03  0.27026415530E+03  0.12509000000E+03 0.  0.
         25    1    4    4    0    0 -0.10357192267E+02 -0.25964668865E+02  0.29916575154E+03  0.32546749524E+03  0.12509000000E+03 0.  0.
         25    1    3    3    0    0  0.86001259220E+02  0.47611262367E+02  0.28070539807E+03  0.32265473420E+03  0.12509000000E+03 0.  0.
<mgrwt>
<rscale>  2 0.43993962E+03</rscale>
<asrwt>0</asrwt>
<pdfrwt beam="1">  1       21 0.12680454E+00 0.43993962E+03</pdfrwt>
<pdfrwt beam="2">  1       21 0.82522717E-02 0.43993962E+03</pdfrwt>
<totfact> 0.47840434E+04</totfact>
</mgrwt>
</event>
<event>
 7    0  0.4732500E-002  0.4743612E+03  0.7546771E-02  0.1020696E+00
         21   -1    0    0  502  501  0.00000000000E+00  0.00000000000E+00  0.23180203355E+03  0.23180203355E+03  0.00000000000E+00 0. -1.
         21   -1    0    0  501  502 -0.00000000000E+00 -0.00000000000E+00 -0.24268398507E+03  0.24268398507E+03  0.00000000000E+00 0. -1.
      99926    2    1    2    0    0 -0.13322676296E-14 -0.14210854715E-13 -0.10881951520E+02  0.47448601861E+03  0.47436121784E+03 0.  0.
      99925    2    3    3    0    0 -0.26815851276E+01 -0.12639424685E+03  0.25234239945E+02  0.29300713852E+03  0.26312301272E+03 0.  0.
         25    1    4    4    0    0 -0.19102985049E+02 -0.49080541933E+02 -0.22398838283E+02  0.13756103987E+03  0.12509000000E+03 0.  0.
         25    1    3    3    0    0  0.26815851276E+01  0.12639424685E+03 -0.36116191464E+02  0.18147888010E+03  0.12509000000E+03 0.  0.
         25    1    4    4    0    0  0.16421399922E+02 -0.77313704914E+02  0.47633078227E+02  0.15544609865E+03  0.12509000000E+03 0.  0.
<mgrwt>
<rscale>  2 0.47436122E+03</rscale>
<asrwt>0</asrwt>
<pdfrwt beam="1">  1       21 0.34088534E-01 0.47436122E+03</pdfrwt>
<pdfrwt beam="2">  1       21 0.35688821E-01 0.47436122E+03</pdfrwt>
<totfact> 0.57699161E+04</totfact>
</mgrwt>
</event>
<event>
 7    0  0.4732500E-002  0.4569758E+03  0.7546771E-02  0.1025662E+00
         21   -1    0    0  502  501  0.00000000000E+00  0.00000000000E+00  0.16638968561E+04  0.16638968561E+04  0.00000000000E+00 0.  1.
         21   -1    0    0  501  502 -0.00000000000E+00 -0.00000000000E+00 -0.31376175123E+02  0.31376175123E+02  0.00000000000E+00 0.  1.
      99926    2    1    2    0    0  0.14210854715E-13  0.00000000000E+00  0.16325206810E+04  0.16952730312E+04  0.45697579430E+03 0.  0.
      99925    2    3    3    0    0  0.72511047948E+02 -0.86257121317E+02  0.11107139971E+04  0.11469776122E+04  0.26300934688E+03 0.  0.
         25    1    3    3    0    0 -0.72511047948E+02  0.86257121317E+02  0.52180668388E+03  0.54829541900E+03  0.12509000000E+03 0.  0.
         25    1    4    4    0    0  0.72053575711E+02 -0.41075810907E+02  0.67145823601E+03  0.68802805962E+03  0.12509000000E+03 0.  0.
         25    1    4    4    0    0  0.45747223770E+00 -0.45181310410E+02  0.43925576110E+03  0.45894955262E+03  0.12509000000E+03 0.  0.
<mgrwt>
<rscale>  2 0.45697579E+03</rscale>
<asrwt>0</asrwt>
<pdfrwt beam="1">  1       21 0.24469066E+00 0.45697579E+03</pdfrwt>
<pdfrwt beam="2">  1       21 0.46141445E-02 0.45697579E+03</pdfrwt>
<totfact> 0.19065977E+04</totfact>
</mgrwt>
</event>
<event>
 7    0  0.4732500E-002  0.4498206E+03  0.7546771E-02  0.1027776E+00
         21   -1    0    0  502  501  0.00000000000E+00  0.00000000000E+00  0.11416440268E+03  0.11416440268E+03  0.00000000000E+00 0.  1.
         21   -1    0    0  501  502 -0.00000000000E+00 -0.00000000000E+00 -0.44308585577E+03  0.44308585577E+03  0.00000000000E+00 0.  1.
      99926    2    1    2    0    0  0.14210854715E-13  0.00000000000E+00 -0.32892145309E+03  0.55725025845E+03  0.44982055116E+03 0.  0.
      99925    2    3    3    0    0  0.79616510903E+02 -0.69228738288E+02 -0.17798890082E+03  0.33463051439E+03  0.26299453480E+03 0.  0.
         25    1    3    3    0    0 -0.79616510903E+02  0.69228738288E+02 -0.15093255227E+03  0.22261974406E+03  0.12509000000E+03 0.  0.
         25    1    4    4    0    0  0.52064820718E+01 -0.52338156914E+02 -0.10062332083E+03  0.16893475344E+03  0.12509000000E+03 0.  0.
         25    1    4    4    0    0  0.74410028831E+02 -0.16890581374E+02 -0.77365579988E+02  0.16569576095E+03  0.12509000000E+03 0.  0.
<mgrwt>
<rscale>  2 0.44982055E+03</rscale>
<asrwt>0</asrwt>
<pdfrwt beam="1">  1       21 0.16788882E-01 0.44982055E+03</pdfrwt>
<pdfrwt beam="2">  1       21 0.65159686E-01 0.44982055E+03</pdfrwt>
<totfact> 0.63970896E+04</totfact>
</mgrwt>
</event>
<event>
 7    0  0.4732500E-002  0.4551831E+03  0.7546771E-02  0.1026188E+00
         21   -1    0    0  502  501  0.00000000000E+00  0.00000000000E+00  0.42256137020E+03  0.42256137020E+03  0.00000000000E+00 0.  1.
         21   -1    0    0  501  502 -0.00000000000E+00 -0.00000000000E+00 -0.12258081952E+03  0.12258081952E+03  0.00000000000E+00 0.  1.
      99926    2    1    2    0    0  0.00000000000E+00  0.00000000000E+00  0.29998055069E+03  0.54514218972E+03  0.45518312383E+03 0.  0.
      99925    2    3    3    0    0 -0.74942439664E+02 -0.53066939324E+02  0.10949764605E+03  0.29945190833E+03  0.26315250635E+03 0.  0.
         25    1    4    4    0    0 -0.42575430306E+02 -0.36418017596E+02  0.98349052413E+02  0.16869790598E+03  0.12509000000E+03 0.  0.
         25    1    3    3    0    0  0.74942439664E+02  0.53066939324E+02  0.19048290463E+03  0.24569028139E+03  0.12509000000E+03 0.  0.
         25    1    4    4    0    0 -0.32367009358E+02 -0.16648921727E+02  0.11148593639E+02  0.13075400235E+03  0.12509000000E+03 0.  0.
<mgrwt>
<rscale>  2 0.45518312E+03</rscale>
<asrwt>0</asrwt>
<pdfrwt beam="1">  1       21 0.62141378E-01 0.45518312E+03</pdfrwt>
<pdfrwt beam="2">  1       21 0.18026591E-01 0.45518312E+03</pdfrwt>
<totfact> 0.62098634E+04</totfact>
</mgrwt>
</event>
<event>
 7    0  0.4732500E-002  0.4697969E+03  0.7546771E-02  0.1021978E+00
         21   -1    0    0  502  501  0.00000000000E+00  0.00000000000E+00  0.63315139982E+02  0.63315139982E+02  0.00000000000E+00 0.  1.
         21   -1    0    0  501  502 -0.00000000000E+00 -0.00000000000E+00 -0.87147040314E+03  0.87147040314E+03  0.00000000000E+00 0.  1.
      99926    2    1    2    0    0  0.71054273576E-14  0.00000000000E+00 -0.80815526316E+03  0.93478554313E+03  0.46979685212E+03 0.  0.
      99925    2    3    3    0    0  0.50931637625E+02 -0.50200575522E+02 -0.29424472431E+03  0.40105744799E+03  0.26296955966E+03 0.  0.
         25    1    4    4    0    0  0.58977244607E+02 -0.49505440118E+02 -0.14968339354E+03  0.20971821663E+03  0.12509000000E+03 0.  0.
         25    1    4    4    0    0 -0.80456069820E+01 -0.69513540358E+00 -0.14456133076E+03  0.19133923136E+03  0.12509000000E+03 0.  0.
         25    1    3    3    0    0 -0.50931637625E+02  0.50200575522E+02 -0.51391053886E+03  0.53372809514E+03  0.12509000000E+03 0.  0.
<mgrwt>
<rscale>  2 0.46979685E+03</rscale>
<asrwt>0</asrwt>
<pdfrwt beam="1">  1       21 0.93110501E-02 0.46979685E+03</pdfrwt>
<pdfrwt beam="2">  1       21 0.12815741E+00 0.46979685E+03</pdfrwt>
<totfact> 0.37258458E+04</totfact>
</mgrwt>
</event>
<event>
 7    0  0.4732500E-002  0.4479911E+03  0.7546771E-02  0.1028323E+00
         21   -1    0    0  502  501  0.00000000000E+00  0.00000000000E+00  0.36028196267E+02  0.36028196267E+02  0.00000000000E+00 0.  1.
         21   -1    0    0  501  502 -0.00000000000E+00 -0.00000000000E+00 -0.13926315108E+04  0.13926315108E+04  0.00000000000E+00 0.  1.
      99926    2    1    2    0    0 -0.71054273576E-14 -0.14210854715E-13 -0.13566033145E+04  0.14286597071E+04  0.44799107758E+03 0.  0.
      99925    2    3    3    0    0 -0.61866280874E+02 -0.66107268969E+02 -0.10373981298E+04  0.10740654802E+04  0.26310486153E+03 0.  0.
         25    1    4    4    0    0 -0.69140202575E+02 -0.48451182658E+02 -0.52364105528E+03  0.54495444542E+03  0.12509000000E+03 0.  0.
         25    1    3    3    0    0  0.61866280874E+02  0.66107268969E+02 -0.31920518470E+03  0.35459422692E+03  0.12509000000E+03 0.  0.
         25    1    4    4    0    0  0.72739217017E+01 -0.17656086310E+02 -0.51375707457E+03  0.52911103474E+03  0.12509000000E+03 0.  0.
<mgrwt>
<rscale>  2 0.44799108E+03</rscale>
<asrwt>0</asrwt>
<pdfrwt beam="1">  1       21 0.52982653E-02 0.44799108E+03</pdfrwt>
<pdfrwt beam="2">  1       21 0.20479871E+00 0.44799108E+03</pdfrwt>
<totfact> 0.27020076E+04</totfact>
</mgrwt>
</event>
<event>
 7    0  0.4732500E-002  0.4549355E+03  0.7546771E-02  0.1026260E+00
         21   -1    0    0  502  501  0.00000000000E+00  0.00000000000E+00  0.27639144466E+02  0.27639144466E+02  0.00000000000E+00 0. -1.
         21   -1    0    0  501  502 -0.00000000000E+00 -0.00000000000E+00 -0.18720398962E+04  0.18720398962E+04  0.00000000000E+00 0. -1.
      99926    2    1    2    0    0  0.00000000000E+00  0.00000000000E+00 -0.18444007517E+04  0.18996790407E+04  0.45493551691E+03 0.  0.
      99925    2    3    3    0    0  0.27080696294E+02  0.10634076800E+03 -0.10474477393E+04  0.10855394119E+04  0.26307285133E+03 0.  0.
         25    1    4    4    0    0 -0.18078852953E+02  0.24628612852E+02 -0.49308554916E+03  0.50962170322E+03  0.12509000000E+03 0.  0.
         25    1    4    4    0    0  0.45159549248E+02  0.81712155144E+02 -0.55436219017E+03  0.57591770869E+03  0.12509000000E+03 0.  0.
         25    1    3    3    0    0 -0.27080696294E+02 -0.10634076800E+03 -0.79695301239E+03  0.81413962876E+03  0.12509000000E+03 0.  0.
<mgrwt>
<rscale>  2 0.45493552E+03</rscale>
<asrwt>0</asrwt>
<pdfrwt beam="1">  1       21 0.40645790E-02 0.45493552E+03</pdfrwt>
<pdfrwt beam="2">  1       21 0.27530005E+00 0.45493552E+03</pdfrwt>
<totfact> 0.15425277E+04</totfact>
</mgrwt>
</event>
<event>
 7    0  0.4732500E-002  0.4527547E+03  0.7546771E-02  0.1026904E+00
         21   -1    0    0  502  501  0.00000000000E+00  0.00000000000E+00  0.27696263305E+03  0.27696263305E+03  0.00000000000E+00 0.  1.
         21   -1    0    0  501  502 -0.00000000000E+00 -0.00000000000E+00 -0.18503113797E+03  0.18503113797E+03  0.00000000000E+00 0.  1.
      99926    2    1    2    0    0  0.00000000000E+00  0.00000000000E+00  0.91931495081E+02  0.46199377102E+03  0.45275472904E+03 0.  0.
      99925    2    3    3    0    0  0.24456508254E+02  0.10807876979E+03  0.64391670241E+02  0.29262703483E+03  0.26306872303E+03 0.  0.
         25    1    3    3    0    0 -0.24456508254E+02 -0.10807876979E+03  0.27539824839E+02  0.16936673619E+03  0.12509000000E+03 0.  0.
         25    1    4    4    0    0  0.10898982748E+02  0.66537911434E+02  0.73166639246E+02  0.15983412239E+03  0.12509000000E+03 0.  0.
         25    1    4    4    0    0  0.13557525507E+02  0.41540858360E+02 -0.87749690044E+01  0.13279291243E+03  0.12509000000E+03 0.  0.
<mgrwt>
<rscale>  2 0.45275473E+03</rscale>
<asrwt>0</asrwt>
<pdfrwt beam="1">  1       21 0.40729799E-01 0.45275473E+03</pdfrwt>
<pdfrwt beam="2">  1       21 0.27210461E-01 0.45275473E+03</pdfrwt>
<totfact> 0.69261962E+04</totfact>
</mgrwt>
</event>
<event>
 7    0  0.4732500E-002  0.4580340E+03  0.7546771E-02  0.1025353E+00
         21   -1    0    0  502  501  0.00000000000E+00  0.00000000000E+00  0.75657763723E+02  0.75657763723E+02  0.00000000000E+00 0.  1.
         21   -1    0    0  501  502 -0.00000000000E+00 -0.00000000000E+00 -0.69323740895E+03  0.69323740895E+03  0.00000000000E+00 0.  1.
      99926    2    1    2    0    0  0.00000000000E+00  0.00000000000E+00 -0.61757964522E+03  0.76889517267E+03  0.45803402533E+03 0.  0.
      99925    2    3    3    0    0 -0.32141901194E+02 -0.79982000221E+02 -0.25681960739E+03  0.37745483856E+03  0.26284143935E+03 0.  0.
         25    1    4    4    0    0 -0.15291521493E+02 -0.61670065608E+02 -0.87044384073E+02  0.16510984380E+03  0.12509000000E+03 0.  0.
         25    1    3    3    0    0  0.32141901194E+02  0.79982000221E+02 -0.36076003784E+03  0.39144033411E+03  0.12509000000E+03 0.  0.
         25    1    4    4    0    0 -0.16850379702E+02 -0.18311934612E+02 -0.16977522332E+03  0.21234499475E+03  0.12509000000E+03 0.  0.
<mgrwt>
<rscale>  2 0.45803403E+03</rscale>
<asrwt>0</asrwt>
<pdfrwt beam="1">  1       21 0.11126141E-01 0.45803403E+03</pdfrwt>
<pdfrwt beam="2">  1       21 0.10194668E+00 0.45803403E+03</pdfrwt>
<totfact> 0.48148947E+04</totfact>
</mgrwt>
</event>
<event>
 7    0  0.4732500E-002  0.4516470E+03  0.7546771E-02  0.1027232E+00
         21   -1    0    0  502  501  0.00000000000E+00  0.00000000000E+00  0.12388247066E+03  0.12388247066E+03  0.00000000000E+00 0.  1.
         21   -1    0    0  501  502 -0.00000000000E+00 -0.00000000000E+00 -0.41165022810E+03  0.41165022810E+03  0.00000000000E+00 0.  1.
      99926    2    1    2    0    0  0.00000000000E+00 -0.35527136788E-14 -0.28776775743E+03  0.53553269876E+03  0.45164697411E+03 0.  0.
      99925    2    3    3    0    0  0.98845379914E+02  0.23303740585E+02 -0.23163539577E+03  0.36491082565E+03  0.26304273541E+03 0.  0.
         25    1    3    3    0    0 -0.98845379914E+02 -0.23303740585E+02 -0.56132361664E+02  0.17062187310E+03  0.12509000000E+03 0.  0.
         25    1    4    4    0    0  0.57657771773E+02  0.45581620448E+02 -0.14836124494E+03  0.20751065001E+03  0.12509000000E+03 0.  0.
         25    1    4    4    0    0  0.41187608141E+02 -0.22277879863E+02 -0.83274150826E+02  0.15740017564E+03  0.12509000000E+03 0.  0.
<mgrwt>
<rscale>  2 0.45164697E+03</rscale>
<asrwt>0</asrwt>
<pdfrwt beam="1">  1       21 0.18218010E-01 0.45164697E+03</pdfrwt>
<pdfrwt beam="2">  1       21 0.60536798E-01 0.45164697E+03</pdfrwt>
<totfact> 0.64528270E+04</totfact>
</mgrwt>
</event>
<event>
 7    0  0.4732500E-002  0.4763568E+03  0.7546771E-02  0.1020141E+00
         21   -1    0    0  502  501  0.00000000000E+00  0.00000000000E+00  0.23598003666E+03  0.23598003666E+03  0.00000000000E+00 0. -1.
         21   -1    0    0  501  502 -0.00000000000E+00 -0.00000000000E+00 -0.24039729081E+03  0.24039729081E+03  0.00000000000E+00 0. -1.
      99926    2    1    2    0    0  0.14210854715E-13  0.00000000000E+00 -0.44172541529E+01  0.47637732747E+03  0.47635684732E+03 0.  0.
      99925    2    3    3    0    0 -0.64565756827E+02  0.19300421842E+02 -0.11645419258E+03  0.29543251016E+03  0.26301624637E+03 0.  0.
         25    1    4    4    0    0 -0.60094151553E+02  0.26316772699E+02 -0.33693309249E+02  0.14521235059E+03  0.12509000000E+03 0.  0.
         25    1    3    3    0    0  0.64565756827E+02 -0.19300421842E+02  0.11203693842E+03  0.18094481730E+03  0.12509000000E+03 0.  0.
         25    1    4    4    0    0 -0.44716052731E+01 -0.70163508569E+01 -0.82760883327E+02  0.15022015957E+03  0.12509000000E+03 0.  0.
<mgrwt>
<rscale>  2 0.47635685E+03</rscale>
<asrwt>0</asrwt>
<pdfrwt beam="1">  1       21 0.34702947E-01 0.47635685E+03</pdfrwt>
<pdfrwt beam="2">  1       21 0.35352543E-01 0.47635685E+03</pdfrwt>
<totfact> 0.56709802E+04</totfact>
</mgrwt>
</event>
<event>
 7    0  0.4732500E-002  0.4435706E+03  0.7546771E-02  0.1029657E+00
         21   -1    0    0  502  501  0.00000000000E+00  0.00000000000E+00  0.81950245192E+02  0.81950245192E+02  0.00000000000E+00 0.  1.
         21   -1    0    0  501  502 -0.00000000000E+00 -0.00000000000E+00 -0.60022653399E+03  0.60022653399E+03  0.00000000000E+00 0.  1.
      99926    2    1    2    0    0 -0.17763568394E-14  0.35527136788E-14 -0.51827628880E+03  0.68217677918E+03  0.44357056544E+03 0.  0.
      99925    2    3    3    0    0 -0.13039307280E+02  0.16402311635E+02 -0.48336262100E+03  0.55062628826E+03  0.26288938090E+03 0.  0.
         25    1    4    4    0    0  0.12966525291E+02  0.58173667313E+01 -0.31334495941E+03  0.33769001203E+03  0.12509000000E+03 0.  0.
         25    1    3    3    0    0  0.13039307280E+02 -0.16402311635E+02 -0.34913667800E+02  0.13155049092E+03  0.12509000000E+03 0.  0.
         25    1    4    4    0    0 -0.26005832571E+02  0.10584944904E+02 -0.17001766158E+03  0.21293627624E+03  0.12509000000E+03 0.  0.
<mgrwt>
<rscale>  2 0.44357057E+03</rscale>
<asrwt>0</asrwt>
<pdfrwt beam="1">  1       21 0.12051507E-01 0.44357057E+03</pdfrwt>
<pdfrwt beam="2">  1       21 0.88268606E-01 0.44357057E+03</pdfrwt>
<totfact> 0.59015856E+04</totfact>
</mgrwt>
</event>
<event>
 7    0  0.4732500E-002  0.4532736E+03  0.7546771E-02  0.1026750E+00
         21   -1    0    0  502  501  0.00000000000E+00  0.00000000000E+00  0.63123469990E+02  0.63123469990E+02  0.00000000000E+00 0. -1.
         21   -1    0    0  501  502 -0.00000000000E+00 -0.00000000000E+00 -0.81371063067E+03  0.81371063067E+03  0.00000000000E+00 0. -1.
      99926    2    1    2    0    0  0.35527136788E-14  0.00000000000E+00 -0.75058716068E+03  0.87683410066E+03  0.45327359762E+03 0.  0.
      99925    2    3    3    0    0  0.21947102213E+02  0.10257403322E+03 -0.54654730705E+03  0.61552417441E+03  0.26296947133E+03 0.  0.
         25    1    4    4    0    0  0.24442853344E+02  0.63767115471E+02 -0.36343998318E+03  0.39038420508E+03  0.12509000000E+03 0.  0.
         25    1    3    3    0    0 -0.21947102213E+02 -0.10257403322E+03 -0.20403985364E+03  0.26130992626E+03  0.12509000000E+03 0.  0.
         25    1    4    4    0    0 -0.24957511309E+01  0.38806917753E+02 -0.18310732386E+03  0.22513996933E+03  0.12509000000E+03 0.  0.
<mgrwt>
<rscale>  2 0.45327360E+03</rscale>
<asrwt>0</asrwt>
<pdfrwt beam="1">  1       21 0.92828628E-02 0.45327360E+03</pdfrwt>
<pdfrwt beam="2">  1       21 0.11966333E+00 0.45327360E+03</pdfrwt>
<totfact> 0.44853923E+04</totfact>
</mgrwt>
</event>
<event>
 7    0  0.4732500E-002  0.4562945E+03  0.7546771E-02  0.1025861E+00
         21   -1    0    0  502  501  0.00000000000E+00  0.00000000000E+00  0.13282371657E+03  0.13282371657E+03  0.00000000000E+00 0. -1.
         21   -1    0    0  501  502 -0.00000000000E+00 -0.00000000000E+00 -0.39188156653E+03  0.39188156653E+03  0.00000000000E+00 0. -1.
      99926    2    1    2    0    0  0.14210854715E-13  0.71054273576E-14 -0.25905784996E+03  0.52470528310E+03  0.45629449316E+03 0.  0.
      99925    2    3    3    0    0  0.97573869069E+02  0.37710457435E+02 -0.10944567669E+03  0.30340447195E+03  0.26293189029E+03 0.  0.
         25    1    3    3    0    0 -0.97573869069E+02 -0.37710457435E+02 -0.14961217327E+03  0.22130081115E+03  0.12509000000E+03 0.  0.
         25    1    4    4    0    0  0.75920179747E+02  0.50991724601E+02 -0.52204785279E+02  0.16351415039E+03  0.12509000000E+03 0.  0.
         25    1    4    4    0    0  0.21653689322E+02 -0.13281267166E+02 -0.57240891409E+02  0.13989032157E+03  0.12509000000E+03 0.  0.
<mgrwt>
<rscale>  2 0.45629449E+03</rscale>
<asrwt>0</asrwt>
<pdfrwt beam="1">  1       21 0.19532899E-01 0.45629449E+03</pdfrwt>
<pdfrwt beam="2">  1       21 0.57629644E-01 0.45629449E+03</pdfrwt>
<totfact> 0.62918188E+04</totfact>
</mgrwt>
</event>
<event>
 7    0  0.4732500E-002  0.4593674E+03  0.7546771E-02  0.1024965E+00
         21   -1    0    0  502  501  0.00000000000E+00  0.00000000000E+00  0.14881794330E+03  0.14881794330E+03  0.00000000000E+00 0. -1.
         21   -1    0    0  501  502 -0.00000000000E+00 -0.00000000000E+00 -0.35449092968E+03  0.35449092968E+03  0.00000000000E+00 0. -1.
      99926    2    1    2    0    0  0.14210854715E-13  0.14210854715E-13 -0.20567298639E+03  0.50330887298E+03  0.45936743930E+03 0.  0.
      99925    2    3    3    0    0  0.67093012638E+02  0.89060867200E+02 -0.89659543849E+02  0.29949538628E+03  0.26310709262E+03 0.  0.
         25    1    4    4    0    0  0.68682210721E+02  0.30002591171E+02 -0.61791746400E+02  0.15837654362E+03  0.12509000000E+03 0.  0.
         25    1    3    3    0    0 -0.67093012638E+02 -0.89060867200E+02 -0.11601344254E+03  0.20381348670E+03  0.12509000000E+03 0.  0.
         25    1    4    4    0    0 -0.15891980826E+01  0.59058276029E+02 -0.27867797449E+02  0.14111884266E+03  0.12509000000E+03 0.  0.
<mgrwt>
<rscale>  2 0.45936744E+03</rscale>
<asrwt>0</asrwt>
<pdfrwt beam="1">  1       21 0.21884992E-01 0.45936744E+03</pdfrwt>
<pdfrwt beam="2">  1       21 0.52131018E-01 0.45936744E+03</pdfrwt>
<totfact> 0.62832114E+04</totfact>
</mgrwt>
</event>
<event>
 7    0  0.4732500E-002  0.4617622E+03  0.7546771E-02  0.1024271E+00
         21   -1    0    0  502  501  0.00000000000E+00  0.00000000000E+00  0.23759538307E+03  0.23759538307E+03  0.00000000000E+00 0. -1.
         21   -1    0    0  501  502 -0.00000000000E+00 -0.00000000000E+00 -0.22435654895E+03  0.22435654895E+03  0.00000000000E+00 0. -1.
      99926    2    1    2    0    0  0.00000000000E+00  0.00000000000E+00  0.13238834119E+02  0.46195193202E+03  0.46176219071E+03 0.  0.
      99925    2    3    3    0    0  0.45670516974E+02  0.55289097505E+02 -0.87319769047E+02  0.28616165586E+03  0.26290886404E+03 0.  0.
         25    1    4    4    0    0  0.41416578006E+02  0.13066247556E+02 -0.92808794207E+01  0.13273922774E+03  0.12509000000E+03 0.  0.
         25    1    3    3    0    0 -0.45670516974E+02 -0.55289097505E+02  0.10055860317E+03  0.17579027617E+03  0.12509000000E+03 0.  0.
         25    1    4    4    0    0  0.42539389676E+01  0.42222849949E+02 -0.78038889626E+02  0.15342242812E+03  0.12509000000E+03 0.  0.
<mgrwt>
<rscale>  2 0.46176219E+03</rscale>
<asrwt>0</asrwt>
<pdfrwt beam="1">  1       21 0.34940497E-01 0.46176219E+03</pdfrwt>
<pdfrwt beam="2">  1       21 0.32993610E-01 0.46176219E+03</pdfrwt>
<totfact> 0.64489097E+04</totfact>
</mgrwt>
</event>
<event>
 7    0  0.4732500E-002  0.4687082E+03  0.7546771E-02  0.1022285E+00
         21   -1    0    0  502  501  0.00000000000E+00  0.00000000000E+00  0.19177680696E+04  0.19177680696E+04  0.00000000000E+00 0.  1.
         21   -1    0    0  501  502 -0.00000000000E+00 -0.00000000000E+00 -0.28638421184E+02  0.28638421184E+02  0.00000000000E+00 0.  1.
      99926    2    1    2    0    0  0.00000000000E+00  0.14210854715E-13  0.18891296484E+04  0.19464064908E+04  0.46870822357E+03 0.  0.
      99925    2    3    3    0    0  0.16010384888E+02  0.11935297976E+03  0.13236327712E+04  0.13548528647E+04  0.26290893099E+03 0.  0.
         25    1    4    4    0    0  0.20859074755E+02  0.98319931279E+02  0.66372910404E+03  0.68285118550E+03  0.12509000000E+03 0.  0.
         25    1    3    3    0    0 -0.16010384888E+02 -0.11935297976E+03  0.56549687723E+03  0.59155362602E+03  0.12509000000E+03 0.  0.
         25    1    4    4    0    0 -0.48486898668E+01  0.21033048480E+02  0.65990366713E+03  0.67200167925E+03  0.12509000000E+03 0.  0.
<mgrwt>
<rscale>  2 0.46870822E+03</rscale>
<asrwt>0</asrwt>
<pdfrwt beam="1">  1       21 0.28202463E+00 0.46870822E+03</pdfrwt>
<pdfrwt beam="2">  1       21 0.42115338E-02 0.46870822E+03</pdfrwt>
<totfact> 0.13149235E+04</totfact>
</mgrwt>
</event>
<event>
 7    0  0.4732500E-002  0.4546466E+03  0.7546771E-02  0.1026345E+00
         21   -1    0    0  502  501  0.00000000000E+00  0.00000000000E+00  0.26573189085E+03  0.26573189085E+03  0.00000000000E+00 0.  1.
         21   -1    0    0  501  502 -0.00000000000E+00 -0.00000000000E+00 -0.19446621001E+03  0.19446621001E+03  0.00000000000E+00 0.  1.
      99926    2    1    2    0    0  0.00000000000E+00  0.00000000000E+00  0.71265680838E+02  0.46019810086E+03  0.45464656028E+03 0.  0.
      99925    2    3    3    0    0 -0.76824936076E+02  0.16291720153E+02  0.12650740544E+03  0.30250648033E+03  0.26332215263E+03 0.  0.
         25    1    4    4    0    0  0.57755836248E+00 -0.60031797592E+01  0.46592913204E+02  0.13362177742E+03  0.12509000000E+03 0.  0.
         25    1    4    4    0    0 -0.77402494439E+02  0.22294899912E+02  0.79914492236E+02  0.16888470291E+03  0.12509000000E+03 0.  0.
         25    1    3    3    0    0  0.76824936076E+02 -0.16291720153E+02 -0.55241724602E+02  0.15769162053E+03  0.12509000000E+03 0.  0.
<mgrwt>
<rscale>  2 0.45464656E+03</rscale>
<asrwt>0</asrwt>
<pdfrwt beam="1">  1       21 0.39078219E-01 0.45464656E+03</pdfrwt>
<pdfrwt beam="2">  1       21 0.28597972E-01 0.45464656E+03</pdfrwt>
<totfact> 0.68358580E+04</totfact>
</mgrwt>
</event>
<event>
 7    0  0.4732500E-002  0.4561265E+03  0.7546771E-02  0.1025911E+00
         21   -1    0    0  502  501  0.00000000000E+00  0.00000000000E+00  0.75949694478E+03  0.75949694478E+03  0.00000000000E+00 0.  1.
         21   -1    0    0  501  502 -0.00000000000E+00 -0.00000000000E+00 -0.68483275924E+02  0.68483275924E+02  0.00000000000E+00 0.  1.
      99926    2    1    2    0    0  0.00000000000E+00  0.00000000000E+00  0.69101366886E+03  0.82798022071E+03  0.45612646857E+03 0.  0.
      99925    2    3    3    0    0 -0.33757362620E+02 -0.10647320705E+03  0.38858768761E+03  0.48216945513E+03  0.26269923706E+03 0.  0.
         25    1    4    4    0    0  0.77537216029E+01 -0.64113268622E+02  0.14570252294E+03  0.20260149235E+03  0.12509000000E+03 0.  0.
         25    1    4    4    0    0 -0.41511084223E+02 -0.42359938433E+02  0.24288516467E+03  0.27956796278E+03  0.12509000000E+03 0.  0.
         25    1    3    3    0    0  0.33757362620E+02  0.10647320705E+03  0.30242598125E+03  0.34581076557E+03  0.12509000000E+03 0.  0.
<mgrwt>
<rscale>  2 0.45612647E+03</rscale>
<asrwt>0</asrwt>
<pdfrwt beam="1">  1       21 0.11169072E+00 0.45612647E+03</pdfrwt>
<pdfrwt beam="2">  1       21 0.10071070E-01 0.45612647E+03</pdfrwt>
<totfact> 0.46032823E+04</totfact>
</mgrwt>
</event>
<event>
 7    0  0.4732500E-002  0.4617426E+03  0.7546771E-02  0.1024277E+00
         21   -1    0    0  502  501  0.00000000000E+00  0.00000000000E+00  0.21030419855E+03  0.21030419855E+03  0.00000000000E+00 0. -1.
         21   -1    0    0  501  502 -0.00000000000E+00 -0.00000000000E+00 -0.25344983018E+03  0.25344983018E+03  0.00000000000E+00 0. -1.
      99926    2    1    2    0    0  0.00000000000E+00  0.00000000000E+00 -0.43145631626E+02  0.46375402873E+03  0.46174262705E+03 0.  0.
      99925    2    3    3    0    0  0.87279031992E+02 -0.47901669204E+02 -0.93084897105E+02  0.29626182690E+03  0.26304766236E+03 0.  0.
         25    1    4    4    0    0  0.68261314730E+02 -0.25768818010E+02 -0.14163962322E+02  0.14550520609E+03  0.12509000000E+03 0.  0.
         25    1    3    3    0    0 -0.87279031992E+02  0.47901669204E+02  0.49939265479E+02  0.16749220183E+03  0.12509000000E+03 0.  0.
         25    1    4    4    0    0  0.19017717262E+02 -0.22132851194E+02 -0.78920934783E+02  0.15075662081E+03  0.12509000000E+03 0.  0.
<mgrwt>
<rscale>  2 0.46174263E+03</rscale>
<asrwt>0</asrwt>
<pdfrwt beam="1">  1       21 0.30927088E-01 0.46174263E+03</pdfrwt>
<pdfrwt beam="2">  1       21 0.37272034E-01 0.46174263E+03</pdfrwt>
<totfact> 0.64375649E+04</totfact>
</mgrwt>
</event>
<event>
 7    0  0.4732500E-002  0.4579479E+03  0.7546771E-02  0.1025378E+00
         21   -1    0    0  502  501  0.00000000000E+00  0.00000000000E+00  0.26986385258E+03  0.26986385258E+03  0.00000000000E+00 0. -1.
         21   -1    0    0  501  502 -0.00000000000E+00 -0.00000000000E+00 -0.19427972227E+03  0.19427972227E+03  0.00000000000E+00 0. -1.
      99926    2    1    2    0    0  0.00000000000E+00 -0.71054273576E-14  0.75584130315E+02  0.46414357485E+03  0.45794791988E+03 0.  0.
      99925    2    3    3    0    0  0.10643418790E+03  0.23935178644E+02  0.78791269076E+01  0.28488787838E+03  0.26305492483E+03 0.  0.
         25    1    3    3    0    0 -0.10643418790E+03 -0.23935178644E+02  0.67705003407E+02  0.17925569647E+03  0.12509000000E+03 0.  0.
         25    1    4    4    0    0  0.29967048314E+02  0.41440748460E+02 -0.13011547154E+02  0.13576512099E+03  0.12509000000E+03 0.  0.
         25    1    4    4    0    0  0.76467139584E+02 -0.17505569815E+02  0.20890674062E+02  0.14912275740E+03  0.12509000000E+03 0.  0.
<mgrwt>
<rscale>  2 0.45794792E+03</rscale>
<asrwt>0</asrwt>
<pdfrwt beam="1">  1       21 0.39685861E-01 0.45794792E+03</pdfrwt>
<pdfrwt beam="2">  1       21 0.28570547E-01 0.45794792E+03</pdfrwt>
<totfact> 0.66306202E+04</totfact>
</mgrwt>
</event>
<event>
 7    0  0.4732500E-002  0.4539550E+03  0.7546771E-02  0.1026549E+00
         21   -1    0    0  502  501  0.00000000000E+00  0.00000000000E+00  0.45502081720E+03  0.45502081720E+03  0.00000000000E+00 0. -1.
         21   -1    0    0  501  502 -0.00000000000E+00 -0.00000000000E+00 -0.11322290434E+03  0.11322290434E+03  0.00000000000E+00 0. -1.
      99926    2    1    2    0    0  0.71054273576E-14 -0.14210854715E-13  0.34179791286E+03  0.56824372155E+03  0.45395496896E+03 0.  0.
      99925    2    3    3    0    0 -0.46783449671E+02  0.98328986415E+02  0.24924911615E+03  0.37832250471E+03  0.26295534780E+03 0.  0.
         25    1    4    4    0    0 -0.68352841603E+01  0.59187655932E+02  0.77998971348E+02  0.15900077785E+03  0.12509000000E+03 0.  0.
         25    1    4    4    0    0 -0.39948165511E+02  0.39141330483E+02  0.17125014480E+03  0.21932172686E+03  0.12509000000E+03 0.  0.
         25    1    3    3    0    0  0.46783449671E+02 -0.98328986415E+02  0.92548796713E+02  0.18992121684E+03  0.12509000000E+03 0.  0.
<mgrwt>
<rscale>  2 0.45395497E+03</rscale>
<asrwt>0</asrwt>
<pdfrwt beam="1">  1       21 0.66914825E-01 0.45395497E+03</pdfrwt>
<pdfrwt beam="2">  1       21 0.16650427E-01 0.45395497E+03</pdfrwt>
<totfact> 0.61180857E+04</totfact>
</mgrwt>
</event>
<event>
 7    0  0.4732500E-002  0.4455981E+03  0.7546771E-02  0.1029043E+00
         21   -1    0    0  502  501  0.00000000000E+00  0.00000000000E+00  0.15730996195E+03  0.15730996195E+03  0.00000000000E+00 0.  1.
         21   -1    0    0  501  502 -0.00000000000E+00 -0.00000000000E+00 -0.31555158047E+03  0.31555158047E+03  0.00000000000E+00 0.  1.
      99926    2    1    2    0    0  0.00000000000E+00  0.00000000000E+00 -0.15824161852E+03  0.47286154242E+03  0.44559805707E+03 0.  0.
      99925    2    3    3    0    0 -0.15243037057E+02 -0.10290354437E+03 -0.94804839686E+02  0.29823845508E+03  0.26293864082E+03 0.  0.
         25    1    4    4    0    0  0.10088929534E+01 -0.40005614845E+02 -0.56515688723E+01  0.13145689565E+03  0.12509000000E+03 0.  0.
         25    1    4    4    0    0 -0.16251930011E+02 -0.62897929525E+02 -0.89153270814E+02  0.16678155943E+03  0.12509000000E+03 0.  0.
         25    1    3    3    0    0  0.15243037057E+02  0.10290354437E+03 -0.63436778836E+02  0.17462308734E+03  0.12509000000E+03 0.  0.
<mgrwt>
<rscale>  2 0.44559806E+03</rscale>
<asrwt>0</asrwt>
<pdfrwt beam="1">  1       21 0.23133818E-01 0.44559806E+03</pdfrwt>
<pdfrwt beam="2">  1       21 0.46404644E-01 0.44559806E+03</pdfrwt>
<totfact> 0.72483243E+04</totfact>
</mgrwt>
</event>
<event>
 7    0  0.4732500E-002  0.4322500E+03  0.7546771E-02  0.1033152E+00
         21   -1    0    0  502  501  0.00000000000E+00  0.00000000000E+00  0.13018660556E+03  0.13018660556E+03  0.00000000000E+00 0.  1.
         21   -1    0    0  501  502 -0.00000000000E+00 -0.00000000000E+00 -0.35879282882E+03  0.35879282882E+03  0.00000000000E+00 0.  1.
      99926    2    1    2    0    0  0.71054273576E-14  0.00000000000E+00 -0.22860622326E+03  0.48897943438E+03  0.43225002248E+03 0.  0.
      99925    2    3    3    0    0 -0.46624013678E+02 -0.62232404128E+02 -0.95263972803E+02  0.29029794397E+03  0.26296577911E+03 0.  0.
         25    1    4    4    0    0 -0.13845682898E+02 -0.18920109651E+02 -0.86018039851E+02  0.15361082242E+03  0.12509000000E+03 0.  0.
         25    1    4    4    0    0 -0.32778330779E+02 -0.43312294476E+02 -0.92459329519E+01  0.13668712155E+03  0.12509000000E+03 0.  0.
         25    1    3    3    0    0  0.46624013678E+02  0.62232404128E+02 -0.13334225045E+03  0.19868149041E+03  0.12509000000E+03 0.  0.
<mgrwt>
<rscale>  2 0.43225002E+03</rscale>
<asrwt>0</asrwt>
<pdfrwt beam="1">  1       21 0.19145089E-01 0.43225002E+03</pdfrwt>
<pdfrwt beam="2">  1       21 0.52763651E-01 0.43225002E+03</pdfrwt>
<totfact> 0.79460336E+04</totfact>
</mgrwt>
</event>
<event>
 7    0  0.4732500E-002  0.4543288E+03  0.7546771E-02  0.1026439E+00
         21   -1    0    0  502  501  0.00000000000E+00  0.00000000000E+00  0.33291642060E+03  0.33291642060E+03  0.00000000000E+00 0. -1.
         21   -1    0    0  501  502 -0.00000000000E+00 -0.00000000000E+00 -0.15500486911E+03  0.15500486911E+03  0.00000000000E+00 0. -1.
      99926    2    1    2    0    0  0.14210854715E-13 -0.14210854715E-13  0.17791155150E+03  0.48792128971E+03  0.45432880692E+03 0.  0.
      99925    2    3    3    0    0  0.68302790027E+02 -0.89589399476E+02  0.10901361562E+03  0.30602581068E+03  0.26282369906E+03 0.  0.
         25    1    4    4    0    0  0.38690151966E+02 -0.40901242247E+02  0.97073214517E+02  0.16804926823E+03  0.12509000000E+03 0.  0.
         25    1    4    4    0    0  0.29612638062E+02 -0.48688157229E+02  0.11940401106E+02  0.13797654245E+03  0.12509000000E+03 0.  0.
         25    1    3    3    0    0 -0.68302790027E+02  0.89589399476E+02  0.68897935875E+02  0.18189547903E+03  0.12509000000E+03 0.  0.
<mgrwt>
<rscale>  2 0.45432881E+03</rscale>
<asrwt>0</asrwt>
<pdfrwt beam="1">  1       21 0.48958297E-01 0.45432881E+03</pdfrwt>
<pdfrwt beam="2">  1       21 0.22794834E-01 0.45432881E+03</pdfrwt>
<totfact> 0.66481384E+04</totfact>
</mgrwt>
</event>
<event>
 7    0  0.4732500E-002  0.4538937E+03  0.7546771E-02  0.1026567E+00
         21   -1    0    0  502  501  0.00000000000E+00  0.00000000000E+00  0.94326849433E+02  0.94326849433E+02  0.00000000000E+00 0. -1.
         21   -1    0    0  501  502 -0.00000000000E+00 -0.00000000000E+00 -0.54602552918E+03  0.54602552918E+03  0.00000000000E+00 0. -1.
      99926    2    1    2    0    0  0.00000000000E+00  0.00000000000E+00 -0.45169867974E+03  0.64035237861E+03  0.45389367864E+03 0.  0.
      99925    2    3    3    0    0  0.49205386374E+02 -0.24086809016E+02 -0.42253523557E+03  0.50071227337E+03  0.26301218790E+03 0.  0.
         25    1    4    4    0    0  0.40748206535E+02 -0.72560957724E+01 -0.14628084197E+03  0.19687219227E+03  0.12509000000E+03 0.  0.
         25    1    4    4    0    0  0.84571798393E+01 -0.16830713244E+02 -0.27625439359E+03  0.30384008109E+03  0.12509000000E+03 0.  0.
         25    1    3    3    0    0 -0.49205386374E+02  0.24086809016E+02 -0.29163444178E+02  0.13964010525E+03  0.12509000000E+03 0.  0.
<mgrwt>
<rscale>  2 0.45389368E+03</rscale>
<asrwt>0</asrwt>
<pdfrwt beam="1">  1       21 0.13871595E-01 0.45389368E+03</pdfrwt>
<pdfrwt beam="2">  1       21 0.80297873E-01 0.45389368E+03</pdfrwt>
<totfact> 0.56754606E+04</totfact>
</mgrwt>
</event>
<event>
 7    0  0.4732500E-002  0.4621910E+03  0.7546771E-02  0.1024148E+00
         21   -1    0    0  502  501  0.00000000000E+00  0.00000000000E+00  0.14513765633E+03  0.14513765633E+03  0.00000000000E+00 0. -1.
         21   -1    0    0  501  502 -0.00000000000E+00 -0.00000000000E+00 -0.36796196492E+03  0.36796196492E+03  0.00000000000E+00 0. -1.
      99926    2    1    2    0    0  0.00000000000E+00 -0.35527136788E-14 -0.22282430859E+03  0.51309962125E+03  0.46219103067E+03 0.  0.
      99925    2    3    3    0    0  0.70116357030E+02  0.31121567088E+02 -0.24157165884E+03  0.36516778999E+03  0.26287980719E+03 0.  0.
         25    1    4    4    0    0  0.32255316189E+02  0.41708762826E+02 -0.16371132296E+03  0.21267094697E+03  0.12509000000E+03 0.  0.
         25    1    4    4    0    0  0.37861040841E+02 -0.10587195738E+02 -0.77860335879E+02  0.15249684302E+03  0.12509000000E+03 0.  0.
         25    1    3    3    0    0 -0.70116357030E+02 -0.31121567088E+02  0.18747350246E+02  0.14793183127E+03  0.12509000000E+03 0.  0.
<mgrwt>
<rscale>  2 0.46219103E+03</rscale>
<asrwt>0</asrwt>
<pdfrwt beam="1">  1       21 0.21343773E-01 0.46219103E+03</pdfrwt>
<pdfrwt beam="2">  1       21 0.54112053E-01 0.46219103E+03</pdfrwt>
<totfact> 0.60814241E+04</totfact>
</mgrwt>
</event>
<event>
 7    0  0.4732500E-002  0.4554943E+03  0.7546771E-02  0.1026096E+00
         21   -1    0    0  502  501  0.00000000000E+00  0.00000000000E+00  0.49063282517E+03  0.49063282517E+03  0.00000000000E+00 0.  1.
         21   -1    0    0  501  502 -0.00000000000E+00 -0.00000000000E+00 -0.10571810201E+03  0.10571810201E+03  0.00000000000E+00 0.  1.
      99926    2    1    2    0    0  0.35527136788E-14 -0.71054273576E-14  0.38491472316E+03  0.59635092718E+03  0.45549432954E+03 0.  0.
      99925    2    3    3    0    0 -0.20662351908E+02  0.59405470110E+02  0.11831779106E+03  0.29522408518E+03  0.26306314475E+03 0.  0.
         25    1    3    3    0    0  0.20662351908E+02 -0.59405470110E+02  0.26659693210E+03  0.30112684200E+03  0.12509000000E+03 0.  0.
         25    1    4    4    0    0  0.68492762939E+01  0.41660907145E+02  0.21662555087E+02  0.13378833343E+03  0.12509000000E+03 0.  0.
         25    1    4    4    0    0 -0.27511628202E+02  0.17744562965E+02  0.96655235973E+02  0.16143575175E+03  0.12509000000E+03 0.  0.
<mgrwt>
<rscale>  2 0.45549433E+03</rscale>
<asrwt>0</asrwt>
<pdfrwt beam="1">  1       21 0.72151885E-01 0.45549433E+03</pdfrwt>
<pdfrwt beam="2">  1       21 0.15546780E-01 0.45549433E+03</pdfrwt>
<totfact> 0.58673910E+04</totfact>
</mgrwt>
</event>
<event>
 7    0  0.4732500E-002  0.4598132E+03  0.7546771E-02  0.1024835E+00
         21   -1    0    0  502  501  0.00000000000E+00  0.00000000000E+00  0.11079585898E+03  0.11079585898E+03  0.00000000000E+00 0. -1.
         21   -1    0    0  501  502 -0.00000000000E+00 -0.00000000000E+00 -0.47706702616E+03  0.47706702616E+03  0.00000000000E+00 0. -1.
      99926    2    1    2    0    0  0.00000000000E+00  0.00000000000E+00 -0.36627116718E+03  0.58786288514E+03  0.45981322710E+03 0.  0.
      99925    2    3    3    0    0  0.34245327340E+02  0.59732263634E+02 -0.35123723903E+03  0.44428637990E+03  0.26321493787E+03 0.  0.
         25    1    4    4    0    0 -0.16102809339E+02  0.10026081876E+02 -0.19033091866E+03  0.22854581485E+03  0.12509000000E+03 0.  0.
         25    1    3    3    0    0 -0.34245327340E+02 -0.59732263634E+02 -0.15033928151E+02  0.14357650525E+03  0.12509000000E+03 0.  0.
         25    1    4    4    0    0  0.50348136678E+02  0.49706181758E+02 -0.16090632037E+03  0.21574056505E+03  0.12509000000E+03 0.  0.
<mgrwt>
<rscale>  2 0.45981323E+03</rscale>
<asrwt>0</asrwt>
<pdfrwt beam="1">  1       21 0.16293509E-01 0.45981323E+03</pdfrwt>
<pdfrwt beam="2">  1       21 0.70156915E-01 0.45981323E+03</pdfrwt>
<totfact> 0.57223325E+04</totfact>
</mgrwt>
</event>
<event>
 7    0  0.4732500E-002  0.4538041E+03  0.7546771E-02  0.1026594E+00
         21   -1    0    0  502  501  0.00000000000E+00  0.00000000000E+00  0.21972278038E+03  0.21972278038E+03  0.00000000000E+00 0.  1.
         21   -1    0    0  501  502 -0.00000000000E+00 -0.00000000000E+00 -0.23431584782E+03  0.23431584782E+03  0.00000000000E+00 0.  1.
      99926    2    1    2    0    0  0.00000000000E+00 -0.71054273576E-14 -0.14593067440E+02  0.45403862820E+03  0.45380405273E+03 0.  0.
      99925    2    3    3    0    0  0.80132147719E+02  0.62077722352E+02 -0.56478961317E+02  0.28767534825E+03  0.26323454980E+03 0.  0.
         25    1    3    3    0    0 -0.80132147719E+02 -0.62077722352E+02  0.41885893877E+02  0.16636327995E+03  0.12509000000E+03 0.  0.
         25    1    4    4    0    0  0.71507127250E+02  0.54256237048E+02 -0.12103387834E+02  0.15443771755E+03  0.12509000000E+03 0.  0.
         25    1    4    4    0    0  0.86250204690E+01  0.78214853038E+01 -0.44375573483E+02  0.13323763069E+03  0.12509000000E+03 0.  0.
<mgrwt>
<rscale>  2 0.45380405E+03</rscale>
<asrwt>0</asrwt>
<pdfrwt beam="1">  1       21 0.32312174E-01 0.45380405E+03</pdfrwt>
<pdfrwt beam="2">  1       21 0.34458213E-01 0.45380405E+03</pdfrwt>
<totfact> 0.69274982E+04</totfact>
</mgrwt>
</event>
<event>
 7    0  0.4732500E-002  0.4512700E+03  0.7546771E-02  0.1027344E+00
         21   -1    0    0  502  501  0.00000000000E+00  0.00000000000E+00  0.28097361130E+03  0.28097361130E+03  0.00000000000E+00 0.  1.
         21   -1    0    0  501  502 -0.00000000000E+00 -0.00000000000E+00 -0.18119547885E+03  0.18119547885E+03  0.00000000000E+00 0.  1.
      99926    2    1    2    0    0 -0.14210854715E-13  0.00000000000E+00  0.99778132448E+02  0.46216909015E+03  0.45126997704E+03 0.  0.
      99925    2    3    3    0    0 -0.99169505753E+02  0.14915606941E+02  0.17516772650E+02  0.28197057290E+03  0.26295151731E+03 0.  0.
         25    1    4    4    0    0 -0.90411079653E+02  0.14510581675E+02 -0.21653229173E+01  0.15503843726E+03  0.12509000000E+03 0.  0.
         25    1    3    3    0    0  0.99169505753E+02 -0.14915606941E+02  0.82261359798E+02  0.18019851725E+03  0.12509000000E+03 0.  0.
         25    1    4    4    0    0 -0.87584261004E+01  0.40502526579E+00  0.19682095567E+02  0.12693213564E+03  0.12509000000E+03 0.  0.
<mgrwt>
<rscale>  2 0.45126998E+03</rscale>
<asrwt>0</asrwt>
<pdfrwt beam="1">  1       21 0.41319649E-01 0.45126998E+03</pdfrwt>
<pdfrwt beam="2">  1       21 0.26646394E-01 0.45126998E+03</pdfrwt>
<totfact> 0.70073453E+04</totfact>
</mgrwt>
</event>
<event>
 7    0  0.4732500E-002  0.4540618E+03  0.7546771E-02  0.1026518E+00
         21   -1    0    0  502  501  0.00000000000E+00  0.00000000000E+00  0.14244321187E+03  0.14244321187E+03  0.00000000000E+00 0. -1.
         21   -1    0    0  501  502 -0.00000000000E+00 -0.00000000000E+00 -0.36184964122E+03  0.36184964122E+03  0.00000000000E+00 0. -1.
      99926    2    1    2    0    0  0.00000000000E+00  0.00000000000E+00 -0.21940642935E+03  0.50429285309E+03  0.45406178043E+03 0.  0.
      99925    2    3    3    0    0 -0.83294735573E+02 -0.74446239045E+02 -0.12643134496E+03  0.31253224739E+03  0.26308033980E+03 0.  0.
         25    1    4    4    0    0 -0.54587870887E+02 -0.15029857208E+02 -0.96894051173E+02  0.16805266290E+03  0.12509000000E+03 0.  0.
         25    1    3    3    0    0  0.83294735573E+02  0.74446239045E+02 -0.92975084387E+02  0.19176060570E+03  0.12509000000E+03 0.  0.
         25    1    4    4    0    0 -0.28706864685E+02 -0.59416381837E+02 -0.29537293788E+02  0.14447958449E+03  0.12509000000E+03 0.  0.
<mgrwt>
<rscale>  2 0.45406178E+03</rscale>
<asrwt>0</asrwt>
<pdfrwt beam="1">  1       21 0.20947532E-01 0.45406178E+03</pdfrwt>
<pdfrwt beam="2">  1       21 0.53213181E-01 0.45406178E+03</pdfrwt>
<totfact> 0.65456210E+04</totfact>
</mgrwt>
</event>
<event>
 7    0  0.4732500E-002  0.4614508E+03  0.7546771E-02  0.1024361E+00
         21   -1    0    0  502  501  0.00000000000E+00  0.00000000000E+00  0.33851563986E+03  0.33851563986E+03  0.00000000000E+00 0.  1.
         21   -1    0    0  501  502 -0.00000000000E+00 -0.00000000000E+00 -0.15725776590E+03  0.15725776590E+03  0.00000000000E+00 0.  1.
      99926    2    1    2    0    0  0.00000000000E+00  0.00000000000E+00  0.18125787397E+03  0.49577340576E+03  0.46145081318E+03 0.  0.
      99925    2    3    3    0    0  0.81569246423E+02  0.38840715191E+02  0.30516375403E+02  0.28005912574E+03  0.26332436580E+03 0.  0.
         25    1    4    4    0    0  0.35657599328E+02  0.56838360689E+02  0.32343814578E+02  0.14558741043E+03  0.12509000000E+03 0.  0.
         25    1    3    3    0    0 -0.81569246423E+02 -0.38840715191E+02  0.15074149856E+03  0.21571428003E+03  0.12509000000E+03 0.  0.
         25    1    4    4    0    0  0.45911647094E+02 -0.17997645498E+02 -0.18274391746E+01  0.13447171530E+03  0.12509000000E+03 0.  0.
<mgrwt>
<rscale>  2 0.46145081E+03</rscale>
<asrwt>0</asrwt>
<pdfrwt beam="1">  1       21 0.49781712E-01 0.46145081E+03</pdfrwt>
<pdfrwt beam="2">  1       21 0.23126142E-01 0.46145081E+03</pdfrwt>
<totfact> 0.62315728E+04</totfact>
</mgrwt>
</event>
<event>
 7    0  0.4732500E-002  0.4393892E+03  0.7546771E-02  0.1030934E+00
         21   -1    0    0  502  501  0.00000000000E+00  0.00000000000E+00  0.25218460280E+03  0.25218460280E+03  0.00000000000E+00 0. -1.
         21   -1    0    0  501  502 -0.00000000000E+00 -0.00000000000E+00 -0.19139037815E+03  0.19139037815E+03  0.00000000000E+00 0. -1.
      99926    2    1    2    0    0  0.00000000000E+00  0.44408920985E-15  0.60794224649E+02  0.44357498095E+03  0.43938915096E+03 0.  0.
      99925    2    3    3    0    0  0.51177344166E+02  0.14858792662E+01  0.12252666894E+03  0.29498248057E+03  0.26340188087E+03 0.  0.
         25    1    4    4    0    0  0.56525862315E+01  0.10551500644E+02  0.21185451069E+02  0.12743475717E+03  0.12509000000E+03 0.  0.
         25    1    4    4    0    0  0.45524757934E+02 -0.90656213773E+01  0.10134121788E+03  0.16754772340E+03  0.12509000000E+03 0.  0.
         25    1    3    3    0    0 -0.51177344166E+02 -0.14858792662E+01 -0.61732444296E+02  0.14859250039E+03  0.12509000000E+03 0.  0.
<mgrwt>
<rscale>  2 0.43938915E+03</rscale>
<asrwt>0</asrwt>
<pdfrwt beam="1">  1       21 0.37085971E-01 0.43938915E+03</pdfrwt>
<pdfrwt beam="2">  1       21 0.28145644E-01 0.43938915E+03</pdfrwt>
<totfact> 0.78751241E+04</totfact>
</mgrwt>
</event>
<event>
 7    0  0.4732500E-002  0.4536023E+03  0.7546771E-02  0.1026653E+00
         21   -1    0    0  502  501  0.00000000000E+00  0.00000000000E+00  0.23338288150E+02  0.23338288150E+02  0.00000000000E+00 0.  1.
         21   -1    0    0  501  502 -0.00000000000E+00 -0.00000000000E+00 -0.22040505894E+04  0.22040505894E+04  0.00000000000E+00 0.  1.
      99926    2    1    2    0    0  0.35527136788E-14 -0.14210854715E-13 -0.21807123012E+04  0.22273888775E+04  0.45360232694E+03 0.  0.
      99925    2    3    3    0    0 -0.27190971111E+02  0.94505195712E+02 -0.16352666740E+04  0.16592084297E+04  0.26306831276E+03 0.  0.
         25    1    4    4    0    0  0.15955630047E+02  0.70268472541E+02 -0.74817402823E+03  0.76197383484E+03  0.12509000000E+03 0.  0.
         25    1    4    4    0    0 -0.43146601157E+02  0.24236723171E+02 -0.88709264574E+03  0.89723459484E+03  0.12509000000E+03 0.  0.
         25    1    3    3    0    0  0.27190971111E+02 -0.94505195712E+02 -0.54544562724E+03  0.56818044783E+03  0.12509000000E+03 0.  0.
<mgrwt>
<rscale>  2 0.45360233E+03</rscale>
<asrwt>0</asrwt>
<pdfrwt beam="1">  1       21 0.34321020E-02 0.45360233E+03</pdfrwt>
<pdfrwt beam="2">  1       21 0.32412501E+00 0.45360233E+03</pdfrwt>
<totfact> 0.10452939E+04</totfact>
</mgrwt>
</event>
<event>
 7    0  0.4732500E-002  0.4585563E+03  0.7546771E-02  0.1025201E+00
         21   -1    0    0  502  501  0.00000000000E+00  0.00000000000E+00  0.59758250465E+03  0.59758250465E+03  0.00000000000E+00 0.  1.
         21   -1    0    0  501  502 -0.00000000000E+00 -0.00000000000E+00 -0.87968563339E+02  0.87968563339E+02  0.00000000000E+00 0.  1.
      99926    2    1    2    0    0  0.00000000000E+00  0.00000000000E+00  0.50961394131E+03  0.68555106799E+03  0.45855631894E+03 0.  0.
      99925    2    3    3    0    0  0.11454614711E+03 -0.12555997283E+02  0.34418513661E+03  0.44829030341E+03  0.26310133975E+03 0.  0.
         25    1    3    3    0    0 -0.11454614711E+03  0.12555997283E+02  0.16542880470E+03  0.23726076458E+03  0.12509000000E+03 0.  0.
         25    1    4    4    0    0  0.58063942228E+02  0.95036778490E+01  0.11306880408E+03  0.17858836422E+03  0.12509000000E+03 0.  0.
         25    1    4    4    0    0  0.56482204887E+02 -0.22059675132E+02  0.23111633253E+03  0.26970193918E+03  0.12509000000E+03 0.  0.
<mgrwt>
<rscale>  2 0.45855632E+03</rscale>
<asrwt>0</asrwt>
<pdfrwt beam="1">  1       21 0.87879778E-01 0.45855632E+03</pdfrwt>
<pdfrwt beam="2">  1       21 0.12936554E-01 0.45855632E+03</pdfrwt>
<totfact> 0.52217124E+04</totfact>
</mgrwt>
</event>
<event>
 7    0  0.4732500E-002  0.4622519E+03  0.7546771E-02  0.1024130E+00
         21   -1    0    0  502  501  0.00000000000E+00  0.00000000000E+00  0.40027210591E+03  0.40027210591E+03  0.00000000000E+00 0.  1.
         21   -1    0    0  501  502 -0.00000000000E+00 -0.00000000000E+00 -0.13345723317E+03  0.13345723317E+03  0.00000000000E+00 0.  1.
      99926    2    1    2    0    0  0.00000000000E+00  0.00000000000E+00  0.26681487273E+03  0.53372933908E+03  0.46225191301E+03 0.  0.
      99925    2    3    3    0    0 -0.14596818468E+02 -0.97331618340E+02  0.24560827614E+03  0.37315618168E+03  0.26312658471E+03 0.  0.
         25    1    4    4    0    0 -0.67962101060E+00 -0.29170844986E+02  0.68929615667E+02  0.14577448370E+03  0.12509000000E+03 0.  0.
         25    1    3    3    0    0  0.14596818468E+02  0.97331618340E+02  0.21206596593E+02  0.16057315740E+03  0.12509000000E+03 0.  0.
         25    1    4    4    0    0 -0.13917197458E+02 -0.68160773354E+02  0.17667866048E+03  0.22738169798E+03  0.12509000000E+03 0.  0.
<mgrwt>
<rscale>  2 0.46225191E+03</rscale>
<asrwt>0</asrwt>
<pdfrwt beam="1">  1       21 0.58863545E-01 0.46225191E+03</pdfrwt>
<pdfrwt beam="2">  1       21 0.19626064E-01 0.46225191E+03</pdfrwt>
<totfact> 0.59462661E+04</totfact>
</mgrwt>
</event>
<event>
 7    0  0.4732500E-002  0.4571180E+03  0.7546771E-02  0.1025620E+00
         21   -1    0    0  502  501  0.00000000000E+00  0.00000000000E+00  0.59980448657E+02  0.59980448657E+02  0.00000000000E+00 0.  1.
         21   -1    0    0  501  502 -0.00000000000E+00 -0.00000000000E+00 -0.87093726575E+03  0.87093726575E+03  0.00000000000E+00 0.  1.
      99926    2    1    2    0    0  0.00000000000E+00  0.00000000000E+00 -0.81095681710E+03  0.93091771441E+03  0.45711796268E+03 0.  0.
      99925    2    3    3    0    0 -0.73235315411E+02 -0.77018370898E+02 -0.59929862786E+03  0.66307085882E+03  0.26307580197E+03 0.  0.
         25    1    4    4    0    0 -0.31116448710E+02 -0.13292111067E+02 -0.35816491637E+03  0.38088650411E+03  0.12509000000E+03 0.  0.
         25    1    3    3    0    0  0.73235315411E+02  0.77018370898E+02 -0.21165818924E+03  0.26784685559E+03  0.12509000000E+03 0.  0.
         25    1    4    4    0    0 -0.42118866702E+02 -0.63726259832E+02 -0.24113371150E+03  0.28218435471E+03  0.12509000000E+03 0.  0.
<mgrwt>
<rscale>  2 0.45711796E+03</rscale>
<asrwt>0</asrwt>
<pdfrwt beam="1">  1       21 0.88206548E-02 0.45711796E+03</pdfrwt>
<pdfrwt beam="2">  1       21 0.12807900E+00 0.45711796E+03</pdfrwt>
<totfact> 0.41235995E+04</totfact>
</mgrwt>
</event>
<event>
 7    0  0.4732500E-002  0.4487217E+03  0.7546771E-02  0.1028104E+00
         21   -1    0    0  502  501  0.00000000000E+00  0.00000000000E+00  0.38645211721E+02  0.38645211721E+02  0.00000000000E+00 0.  1.
         21   -1    0    0  501  502 -0.00000000000E+00 -0.00000000000E+00 -0.13025620798E+04  0.13025620798E+04  0.00000000000E+00 0.  1.
      99926    2    1    2    0    0  0.00000000000E+00  0.00000000000E+00 -0.12639168681E+04  0.13412072916E+04  0.44872168369E+03 0.  0.
      99925    2    3    3    0    0 -0.66552669390E+02 -0.77318880372E+02 -0.70406692003E+03  0.75855221388E+03  0.26321809635E+03 0.  0.
         25    1    4    4    0    0 -0.48477104556E+02 -0.69476609242E+02 -0.31419044703E+03  0.34862612353E+03  0.12509000000E+03 0.  0.
         25    1    3    3    0    0  0.66552669390E+02  0.77318880372E+02 -0.55984994808E+03  0.58265507767E+03  0.12509000000E+03 0.  0.
         25    1    4    4    0    0 -0.18075564834E+02 -0.78422711298E+01 -0.38987647300E+03  0.40992609036E+03  0.12509000000E+03 0.  0.
<mgrwt>
<rscale>  2 0.44872168E+03</rscale>
<asrwt>0</asrwt>
<pdfrwt beam="1">  1       21 0.56831206E-02 0.44872168E+03</pdfrwt>
<pdfrwt beam="2">  1       21 0.19155320E+00 0.44872168E+03</pdfrwt>
<totfact> 0.29347732E+04</totfact>
</mgrwt>
</event>
<event>
 6    0  0.4732500E-002  0.4646328E+03  0.7546771E-02  0.1023446E+00
         21   -1    0    0  502  501  0.00000000000E+00  0.00000000000E+00  0.39544756252E+03  0.39544756252E+03  0.00000000000E+00 0.  1.
         21   -1    0    0  501  502 -0.00000000000E+00 -0.00000000000E+00 -0.13648054566E+03  0.13648054566E+03  0.00000000000E+00 0.  1.
      99926    2    1    2    0    0  0.00000000000E+00 -0.71054273576E-14  0.25896701685E+03  0.53192810818E+03  0.46463275439E+03 0.  0.
         25    1    3    3    0    0  0.39779850758E+02  0.14487669597E+02  0.13951814989E+03  0.19210713507E+03  0.12509000000E+03 0.  0.
         25    1    3    3    0    0 -0.74136165294E+02  0.43688696560E+02 -0.34867365250E+01  0.15187013743E+03  0.12509000000E+03 0.  0.
         25    1    3    3    0    0  0.34356314536E+02 -0.58176366157E+02  0.12293560349E+03  0.18795083568E+03  0.12509000000E+03 0.  0.
<mgrwt>
<rscale>  2 0.46463275E+03</rscale>
<asrwt>0</asrwt>
<pdfrwt beam="1">  1       21 0.58154053E-01 0.46463275E+03</pdfrwt>
<pdfrwt beam="2">  1       21 0.20070669E-01 0.46463275E+03</pdfrwt>
<totfact> 0.58481452E+04</totfact>
</mgrwt>
</event>
<event>
 7    0  0.4732500E-002  0.4738346E+03  0.7546771E-02  0.1020843E+00
         21   -1    0    0  502  501  0.00000000000E+00  0.00000000000E+00  0.20125721898E+03  0.20125721898E+03  0.00000000000E+00 0.  1.
         21   -1    0    0  501  502 -0.00000000000E+00 -0.00000000000E+00 -0.27889590966E+03  0.27889590966E+03  0.00000000000E+00 0.  1.
      99926    2    1    2    0    0  0.00000000000E+00  0.00000000000E+00 -0.77638690686E+02  0.48015312864E+03  0.47383463429E+03 0.  0.
      99925    2    3    3    0    0  0.11139278802E+03  0.39010755175E+02  0.71383598943E+01  0.28841150915E+03  0.26305902414E+03 0.  0.
         25    1    4    4    0    0  0.45224334224E+02 -0.20445586170E+02 -0.26739879598E+01  0.13460282579E+03  0.12509000000E+03 0.  0.
         25    1    4    4    0    0  0.66168453798E+02  0.59456341345E+02  0.98123478541E+01  0.15380868335E+03  0.12509000000E+03 0.  0.
         25    1    3    3    0    0 -0.11139278802E+03 -0.39010755175E+02 -0.84777050581E+02  0.19174161950E+03  0.12509000000E+03 0.  0.
<mgrwt>
<rscale>  2 0.47383463E+03</rscale>
<asrwt>0</asrwt>
<pdfrwt beam="1">  1       21 0.29596650E-01 0.47383463E+03</pdfrwt>
<pdfrwt beam="2">  1       21 0.41014104E-01 0.47383463E+03</pdfrwt>
<totfact> 0.57583216E+04</totfact>
</mgrwt>
</event>
<event>
 7    0  0.4732500E-002  0.4488065E+03  0.7546771E-02  0.1028079E+00
         21   -1    0    0  502  501  0.00000000000E+00  0.00000000000E+00  0.18277970531E+03  0.18277970531E+03  0.00000000000E+00 0. -1.
         21   -1    0    0  501  502 -0.00000000000E+00 -0.00000000000E+00 -0.27550555845E+03  0.27550555845E+03  0.00000000000E+00 0. -1.
      99926    2    1    2    0    0  0.00000000000E+00  0.00000000000E+00 -0.92725853136E+02  0.45828526376E+03  0.44880652751E+03 0.  0.
      99925    2    3    3    0    0  0.59876253244E+02 -0.88840136266E+02 -0.64795614870E+02  0.29123634331E+03  0.26294942564E+03 0.  0.
         25    1    4    4    0    0  0.22250019062E+02 -0.26638767918E+02 -0.67945348968E+02  0.14652223671E+03  0.12509000000E+03 0.  0.
         25    1    4    4    0    0  0.37626234182E+02 -0.62201368348E+02  0.31497340979E+01  0.14471410660E+03  0.12509000000E+03 0.  0.
         25    1    3    3    0    0 -0.59876253244E+02  0.88840136266E+02 -0.27930238266E+02  0.16704892045E+03  0.12509000000E+03 0.  0.
<mgrwt>
<rscale>  2 0.44880653E+03</rscale>
<asrwt>0</asrwt>
<pdfrwt beam="1">  1       21 0.26879369E-01 0.44880653E+03</pdfrwt>
<pdfrwt beam="2">  1       21 0.40515523E-01 0.44880653E+03</pdfrwt>
<totfact> 0.71779687E+04</totfact>
</mgrwt>
</event>
<event>
 7    0  0.4732500E-002  0.4428488E+03  0.7546771E-02  0.1029876E+00
         21   -1    0    0  502  501  0.00000000000E+00  0.00000000000E+00  0.12834065161E+03  0.12834065161E+03  0.00000000000E+00 0.  1.
         21   -1    0    0  501  502 -0.00000000000E+00 -0.00000000000E+00 -0.38202052272E+03  0.38202052272E+03  0.00000000000E+00 0.  1.
      99926    2    1    2    0    0  0.00000000000E+00  0.00000000000E+00 -0.25367987111E+03  0.51036117433E+03  0.44284879051E+03 0.  0.
      99925    2    3    3    0    0  0.74050776420E+02 -0.50345947320E+02 -0.10665307771E+03  0.29756404564E+03  0.26296625330E+03 0.  0.
         25    1    4    4    0    0  0.31713123014E+02 -0.24842277908E+02 -0.97240358372E+01  0.13177604454E+03  0.12509000000E+03 0.  0.
         25    1    4    4    0    0  0.42337653406E+02 -0.25503669412E+02 -0.96929041870E+02  0.16578800110E+03  0.12509000000E+03 0.  0.
         25    1    3    3    0    0 -0.74050776420E+02  0.50345947320E+02 -0.14702679340E+03  0.21279712869E+03  0.12509000000E+03 0.  0.
<mgrwt>
<rscale>  2 0.44284879E+03</rscale>
<asrwt>0</asrwt>
<pdfrwt beam="1">  1       21 0.18873625E-01 0.44284879E+03</pdfrwt>
<pdfrwt beam="2">  1       21 0.56179489E-01 0.44284879E+03</pdfrwt>
<totfact> 0.71166496E+04</totfact>
</mgrwt>
</event>
<event>
 7    0  0.4732500E-002  0.4520399E+03  0.7546771E-02  0.1027115E+00
         21   -1    0    0  502  501  0.00000000000E+00  0.00000000000E+00  0.74148573317E+02  0.74148573317E+02  0.00000000000E+00 0.  1.
         21   -1    0    0  501  502 -0.00000000000E+00 -0.00000000000E+00 -0.68895493676E+03  0.68895493676E+03  0.00000000000E+00 0.  1.
      99926    2    1    2    0    0  0.35527136788E-14  0.17763568394E-14 -0.61480636344E+03  0.76310351008E+03  0.45203993470E+03 0.  0.
      99925    2    3    3    0    0  0.24647743000E+02  0.15139808103E+02 -0.56772025621E+03  0.62635068700E+03  0.26300602421E+03 0.  0.
         25    1    4    4    0    0  0.44168864678E+02 -0.67765553157E+01 -0.23936364511E+03  0.27375038449E+03  0.12509000000E+03 0.  0.
         25    1    3    3    0    0 -0.24647743000E+02 -0.15139808103E+02 -0.47086107231E+02  0.13675282307E+03  0.12509000000E+03 0.  0.
         25    1    4    4    0    0 -0.19521121679E+02  0.21916363419E+02 -0.32835661110E+03  0.35260030251E+03  0.12509000000E+03 0.  0.
<mgrwt>
<rscale>  2 0.45203993E+03</rscale>
<asrwt>0</asrwt>
<pdfrwt beam="1">  1       21 0.10904202E-01 0.45203993E+03</pdfrwt>
<pdfrwt beam="2">  1       21 0.10131690E+00 0.45203993E+03</pdfrwt>
<totfact> 0.50770577E+04</totfact>
</mgrwt>
</event>
<event>
 7    0  0.4732500E-002  0.4532326E+03  0.7546771E-02  0.1026762E+00
         21   -1    0    0  502  501  0.00000000000E+00  0.00000000000E+00  0.70626868470E+03  0.70626868470E+03  0.00000000000E+00 0. -1.
         21   -1    0    0  501  502 -0.00000000000E+00 -0.00000000000E+00 -0.72713052705E+02  0.72713052705E+02  0.00000000000E+00 0. -1.
      99926    2    1    2    0    0 -0.35527136788E-14  0.00000000000E+00  0.63355563199E+03  0.77898173740E+03  0.45323262060E+03 0.  0.
      99925    2    3    3    0    0  0.23059331422E+02 -0.45715205968E+02  0.56939805224E+03  0.62936450590E+03  0.26318040689E+03 0.  0.
         25    1    3    3    0    0 -0.23059331422E+02  0.45715205968E+02  0.64157579754E+02  0.14961723150E+03  0.12509000000E+03 0.  0.
         25    1    4    4    0    0 -0.13425767369E+02 -0.71822097067E+00  0.32917090441E+03  0.35239432384E+03  0.12509000000E+03 0.  0.
         25    1    4    4    0    0  0.36485098791E+02 -0.44996984997E+02  0.24022714783E+03  0.27697018206E+03  0.12509000000E+03 0.  0.
<mgrwt>
<rscale>  2 0.45323262E+03</rscale>
<asrwt>0</asrwt>
<pdfrwt beam="1">  1       21 0.10386304E+00 0.45323262E+03</pdfrwt>
<pdfrwt beam="2">  1       21 0.10693096E-01 0.45323262E+03</pdfrwt>
<totfact> 0.49481152E+04</totfact>
</mgrwt>
</event>
<event>
 7    0  0.4732500E-002  0.4522562E+03  0.7546771E-02  0.1027051E+00
         21   -1    0    0  502  501  0.00000000000E+00  0.00000000000E+00  0.40589818853E+02  0.40589818853E+02  0.00000000000E+00 0.  1.
         21   -1    0    0  501  502 -0.00000000000E+00 -0.00000000000E+00 -0.12597721609E+04  0.12597721609E+04  0.00000000000E+00 0.  1.
      99926    2    1    2    0    0  0.00000000000E+00  0.14210854715E-13 -0.12191823421E+04  0.13003619798E+04  0.45225622741E+03 0.  0.
      99925    2    3    3    0    0 -0.74590357422E+02  0.65290843467E+02 -0.91009384984E+03  0.95249732249E+03  0.26297094549E+03 0.  0.
         25    1    3    3    0    0  0.74590357422E+02 -0.65290843467E+02 -0.30908849223E+03  0.34786465729E+03  0.12509000000E+03 0.  0.
         25    1    4    4    0    0 -0.52159482173E+02  0.60383413315E+02 -0.39534746868E+03  0.42227230229E+03  0.12509000000E+03 0.  0.
         25    1    4    4    0    0 -0.22430875249E+02  0.49074301519E+01 -0.51474638116E+03  0.53022502020E+03  0.12509000000E+03 0.  0.
<mgrwt>
<rscale>  2 0.45225623E+03</rscale>
<asrwt>0</asrwt>
<pdfrwt beam="1">  1       21 0.59690914E-02 0.45225623E+03</pdfrwt>
<pdfrwt beam="2">  1       21 0.18526060E+00 0.45225623E+03</pdfrwt>
<totfact> 0.29733602E+04</totfact>
</mgrwt>
</event>
<event>
 7    0  0.4732500E-002  0.4530087E+03  0.7546771E-02  0.1026829E+00
         21   -1    0    0  502  501  0.00000000000E+00  0.00000000000E+00  0.21986783294E+03  0.21986783294E+03  0.00000000000E+00 0. -1.
         21   -1    0    0  501  502 -0.00000000000E+00 -0.00000000000E+00 -0.23334121266E+03  0.23334121266E+03  0.00000000000E+00 0. -1.
      99926    2    1    2    0    0  0.00000000000E+00  0.35527136788E-14 -0.13473379718E+02  0.45320904560E+03  0.45300872734E+03 0.  0.
      99925    2    3    3    0    0 -0.10571058687E+03 -0.19073577346E+02  0.21045241578E+02  0.28475260361E+03  0.26287375971E+03 0.  0.
         25    1    3    3    0    0  0.10571058687E+03  0.19073577346E+02 -0.34518621296E+02  0.16845644198E+03  0.12509000000E+03 0.  0.
         25    1    4    4    0    0 -0.70585435235E+02  0.16590854165E+02 -0.14773808940E+02  0.14533868597E+03  0.12509000000E+03 0.  0.
         25    1    4    4    0    0 -0.35125151635E+02 -0.35664431511E+02  0.35819050518E+02  0.13941391764E+03  0.12509000000E+03 0.  0.
<mgrwt>
<rscale>  2 0.45300873E+03</rscale>
<asrwt>0</asrwt>
<pdfrwt beam="1">  1       21 0.32333505E-01 0.45300873E+03</pdfrwt>
<pdfrwt beam="2">  1       21 0.34314884E-01 0.45300873E+03</pdfrwt>
<totfact> 0.69779302E+04</totfact>
</mgrwt>
</event>
<event>
 7    0  0.4732500E-002  0.4620126E+03  0.7546771E-02  0.1024199E+00
         21   -1    0    0  502  501  0.00000000000E+00  0.00000000000E+00  0.19738209681E+03  0.19738209681E+03  0.00000000000E+00 0.  1.
         21   -1    0    0  501  502 -0.00000000000E+00 -0.00000000000E+00 -0.27035845516E+03  0.27035845516E+03  0.00000000000E+00 0.  1.
      99926    2    1    2    0    0  0.00000000000E+00  0.20539125956E-14 -0.72976358344E+02  0.46774055197E+03  0.46201263520E+03 0.  0.
      99925    2    3    3    0    0 -0.72403035449E+02  0.42067205283E+00 -0.14210662010E+03  0.30752545375E+03  0.26293580342E+03 0.  0.
         25    1    4    4    0    0 -0.63516407154E+02 -0.30299244875E+02 -0.78592695516E+02  0.16363587048E+03  0.12509000000E+03 0.  0.
         25    1    3    3    0    0  0.72403035449E+02 -0.42067205283E+00  0.69130261759E+02  0.16021509822E+03  0.12509000000E+03 0.  0.
         25    1    4    4    0    0 -0.88866282947E+01  0.30719916928E+02 -0.63513924587E+02  0.14388958327E+03  0.12509000000E+03 0.  0.
<mgrwt>
<rscale>  2 0.46201264E+03</rscale>
<asrwt>0</asrwt>
<pdfrwt beam="1">  1       21 0.29026779E-01 0.46201264E+03</pdfrwt>
<pdfrwt beam="2">  1       21 0.39758596E-01 0.46201264E+03</pdfrwt>
<totfact> 0.63966219E+04</totfact>
</mgrwt>
</event>
<event>
 7    0  0.4732500E-002  0.4510482E+03  0.7546771E-02  0.1027410E+00
         21   -1    0    0  502  501  0.00000000000E+00  0.00000000000E+00  0.75986790290E+03  0.75986790290E+03  0.00000000000E+00 0. -1.
         21   -1    0    0  501  502 -0.00000000000E+00 -0.00000000000E+00 -0.66934171576E+02  0.66934171576E+02  0.00000000000E+00 0. -1.
      99926    2    1    2    0    0  0.00000000000E+00  0.14210854715E-13  0.69293373132E+03  0.82680207447E+03  0.45104823949E+03 0.  0.
      99925    2    3    3    0    0  0.17083457238E+02  0.10671434051E+03  0.39018454633E+03  0.48186096052E+03  0.26127803218E+03 0.  0.
         25    1    4    4    0    0 -0.38637154960E+01  0.91078699927E+02  0.20533068771E+03  0.25713509542E+03  0.12509000000E+03 0.  0.
         25    1    4    4    0    0  0.20947172734E+02  0.15635640583E+02  0.18485385861E+03  0.22472586510E+03  0.12509000000E+03 0.  0.
         25    1    3    3    0    0 -0.17083457238E+02 -0.10671434051E+03  0.30274918499E+03  0.34494111395E+03  0.12509000000E+03 0.  0.
<mgrwt>
<rscale>  2 0.45104824E+03</rscale>
<asrwt>0</asrwt>
<pdfrwt beam="1">  1       21 0.11174527E+00 0.45104824E+03</pdfrwt>
<pdfrwt beam="2">  1       21 0.98432610E-02 0.45104824E+03</pdfrwt>
<totfact> 0.47965637E+04</totfact>
</mgrwt>
</event>
<event>
 7    0  0.4732500E-002  0.4540472E+03  0.7546771E-02  0.1026522E+00
         21   -1    0    0  502  501  0.00000000000E+00  0.00000000000E+00  0.24760790026E+03  0.24760790026E+03  0.00000000000E+00 0. -1.
         21   -1    0    0  501  502 -0.00000000000E+00 -0.00000000000E+00 -0.20815055253E+03  0.20815055253E+03  0.00000000000E+00 0. -1.
      99926    2    1    2    0    0  0.14210854715E-13  0.00000000000E+00  0.39457347729E+02  0.45575845279E+03  0.45404722772E+03 0.  0.
      99925    2    3    3    0    0  0.91040812832E+02 -0.19904544661E+02  0.88002357283E+02  0.29239154503E+03  0.26279988625E+03 0.  0.
         25    1    4    4    0    0  0.66563749430E+01  0.58412548810E+01  0.32263480073E+02  0.12948694078E+03  0.12509000000E+03 0.  0.
         25    1    4    4    0    0  0.84384437889E+02 -0.25745799542E+02  0.55738877210E+02  0.16290460425E+03  0.12509000000E+03 0.  0.
         25    1    3    3    0    0 -0.91040812832E+02  0.19904544661E+02 -0.48545009554E+02  0.16336690776E+03  0.12509000000E+03 0.  0.
<mgrwt>
<rscale>  2 0.45404723E+03</rscale>
<asrwt>0</asrwt>
<pdfrwt beam="1">  1       21 0.36412927E-01 0.45404723E+03</pdfrwt>
<pdfrwt beam="2">  1       21 0.30610375E-01 0.45404723E+03</pdfrwt>
<totfact> 0.69013427E+04</totfact>
</mgrwt>
</event>
<event>
 7    0  0.4732500E-002  0.4520440E+03  0.7546771E-02  0.1027114E+00
         21   -1    0    0  502  501  0.00000000000E+00  0.00000000000E+00  0.23708464718E+03  0.23708464718E+03  0.00000000000E+00 0.  1.
         21   -1    0    0  501  502 -0.00000000000E+00 -0.00000000000E+00 -0.21547550581E+03  0.21547550581E+03  0.00000000000E+00 0.  1.
      99926    2    1    2    0    0  0.00000000000E+00  0.14210854715E-13  0.21609141367E+02  0.45256015299E+03  0.45204395481E+03 0.  0.
      99925    2    3    3    0    0 -0.13929987446E+02 -0.10941140531E+03  0.16181602114E+02  0.28570133109E+03  0.26305608942E+03 0.  0.
         25    1    4    4    0    0 -0.14768303039E+01 -0.45915428673E+02 -0.31650360418E+02  0.13696591194E+03  0.12509000000E+03 0.  0.
         25    1    3    3    0    0  0.13929987446E+02  0.10941140531E+03  0.54275392528E+01  0.16685882190E+03  0.12509000000E+03 0.  0.
         25    1    4    4    0    0 -0.12453157142E+02 -0.63495976636E+02  0.47831962533E+02  0.14873541916E+03  0.12509000000E+03 0.  0.
<mgrwt>
<rscale>  2 0.45204395E+03</rscale>
<asrwt>0</asrwt>
<pdfrwt beam="1">  1       21 0.34865389E-01 0.45204395E+03</pdfrwt>
<pdfrwt beam="2">  1       21 0.31687574E-01 0.45204395E+03</pdfrwt>
<totfact> 0.70370083E+04</totfact>
</mgrwt>
</event>
<event>
 7    0  0.4732500E-002  0.4553548E+03  0.7546771E-02  0.1026137E+00
         21   -1    0    0  502  501  0.00000000000E+00  0.00000000000E+00  0.29355555901E+02  0.29355555901E+02  0.00000000000E+00 0.  1.
         21   -1    0    0  501  502 -0.00000000000E+00 -0.00000000000E+00 -0.17658322439E+04  0.17658322439E+04  0.00000000000E+00 0.  1.
      99926    2    1    2    0    0 -0.71054273576E-14  0.00000000000E+00 -0.17364766880E+04  0.17951877998E+04  0.45535475026E+03 0.  0.
      99925    2    3    3    0    0  0.45159548359E+02 -0.41056561050E+02 -0.14692338097E+04  0.14938718690E+04  0.26321122244E+03 0.  0.
         25    1    4    4    0    0  0.62861314407E+02 -0.18131429295E+02 -0.82014068145E+03  0.83220102082E+03  0.12509000000E+03 0.  0.
         25    1    4    4    0    0 -0.17701766048E+02 -0.22925131755E+02 -0.64909312820E+03  0.66167084821E+03  0.12509000000E+03 0.  0.
         25    1    3    3    0    0 -0.45159548359E+02  0.41056561050E+02 -0.26724287834E+03  0.30131593077E+03  0.12509000000E+03 0.  0.
<mgrwt>
<rscale>  2 0.45535475E+03</rscale>
<asrwt>0</asrwt>
<pdfrwt beam="1">  1       21 0.43169930E-02 0.45535475E+03</pdfrwt>
<pdfrwt beam="2">  1       21 0.25968124E+00 0.45535475E+03</pdfrwt>
<totfact> 0.17304381E+04</totfact>
</mgrwt>
</event>
<event>
 7    0  0.4732500E-002  0.4556730E+03  0.7546771E-02  0.1026044E+00
         21   -1    0    0  502  501  0.00000000000E+00  0.00000000000E+00  0.75844980705E+02  0.75844980705E+02  0.00000000000E+00 0.  1.
         21   -1    0    0  501  502 -0.00000000000E+00 -0.00000000000E+00 -0.68441543827E+03  0.68441543827E+03  0.00000000000E+00 0.  1.
      99926    2    1    2    0    0  0.00000000000E+00  0.00000000000E+00 -0.60857045757E+03  0.76026041898E+03  0.45567302185E+03 0.  0.
      99925    2    3    3    0    0  0.95833335190E+02 -0.48161859821E+02 -0.44675099979E+03  0.52931315684E+03  0.26283525127E+03 0.  0.
         25    1    4    4    0    0  0.34178226060E+02 -0.57884009637E+02 -0.19319105826E+03  0.23976864432E+03  0.12509000000E+03 0.  0.
         25    1    3    3    0    0 -0.95833335190E+02  0.48161859821E+02 -0.16181945778E+03  0.23094726214E+03  0.12509000000E+03 0.  0.
         25    1    4    4    0    0  0.61655109130E+02  0.97221498156E+01 -0.25355994153E+03  0.28954451252E+03  0.12509000000E+03 0.  0.
<mgrwt>
<rscale>  2 0.45567302E+03</rscale>
<asrwt>0</asrwt>
<pdfrwt beam="1">  1       21 0.11153674E-01 0.45567302E+03</pdfrwt>
<pdfrwt beam="2">  1       21 0.10064933E+00 0.45567302E+03</pdfrwt>
<totfact> 0.49484590E+04</totfact>
</mgrwt>
</event>
<event>
 7    0  0.4732500E-002  0.4415657E+03  0.7546771E-02  0.1030267E+00
         21   -1    0    0  502  501  0.00000000000E+00  0.00000000000E+00  0.16454659455E+03  0.16454659455E+03  0.00000000000E+00 0.  1.
         21   -1    0    0  501  502 -0.00000000000E+00 -0.00000000000E+00 -0.29623875057E+03  0.29623875057E+03  0.00000000000E+00 0.  1.
      99926    2    1    2    0    0  0.00000000000E+00  0.88817841970E-15 -0.13169215602E+03  0.46078534512E+03  0.44156574858E+03 0.  0.
      99925    2    3    3    0    0  0.26101901007E+02 -0.71899574887E+01  0.16593504111E+02  0.26490489733E+03  0.26299478232E+03 0.  0.
         25    1    3    3    0    0 -0.26101901007E+02  0.71899574887E+01 -0.14828566013E+03  0.19588044779E+03  0.12509000000E+03 0.  0.
         25    1    4    4    0    0 -0.66146392424E+01  0.11658980274E+02 -0.24010859372E+02  0.12807698755E+03  0.12509000000E+03 0.  0.
         25    1    4    4    0    0  0.32716540250E+02 -0.18848937763E+02  0.40604363483E+02  0.13682790978E+03  0.12509000000E+03 0.  0.
<mgrwt>
<rscale>  2 0.44156575E+03</rscale>
<asrwt>0</asrwt>
<pdfrwt beam="1">  1       21 0.24198029E-01 0.44156575E+03</pdfrwt>
<pdfrwt beam="2">  1       21 0.43564522E-01 0.44156575E+03</pdfrwt>
<totfact> 0.75899675E+04</totfact>
</mgrwt>
</event>
<event>
 6    0  0.4732500E-002  0.4260930E+03  0.7546771E-02  0.1035101E+00
         21   -1    0    0  502  501  0.00000000000E+00  0.00000000000E+00  0.42399355777E+02  0.42399355777E+02  0.00000000000E+00 0. -1.
         21   -1    0    0  501  502 -0.00000000000E+00 -0.00000000000E+00 -0.10705073264E+04  0.10705073264E+04  0.00000000000E+00 0. -1.
      99926    2    1    2    0    0  0.71054273576E-14  0.00000000000E+00 -0.10281079707E+04  0.11129066822E+04  0.42609304616E+03 0.  0.
         25    1    3    3    0    0 -0.50241886581E+02 -0.32235150529E+02 -0.52533283104E+03  0.54330971238E+03  0.12509000000E+03 0.  0.
         25    1    3    3    0    0 -0.11106343240E+02  0.25868233341E+02 -0.23971242423E+03  0.27184935311E+03  0.12509000000E+03 0.  0.
         25    1    3    3    0    0  0.61348229821E+02  0.63669171882E+01 -0.26306271538E+03  0.29774761672E+03  0.12509000000E+03 0.  0.
<mgrwt>
<rscale>  2 0.42609305E+03</rscale>
<asrwt>0</asrwt>
<pdfrwt beam="1">  1       21 0.62351992E-02 0.42609305E+03</pdfrwt>
<pdfrwt beam="2">  1       21 0.15742755E+00 0.42609305E+03</pdfrwt>
<totfact> 0.44197562E+04</totfact>
</mgrwt>
</event>
<event>
 7    0  0.4732500E-002  0.4598053E+03  0.7546771E-02  0.1024838E+00
         21   -1    0    0  502  501  0.00000000000E+00  0.00000000000E+00  0.33304956824E+03  0.33304956824E+03  0.00000000000E+00 0. -1.
         21   -1    0    0  501  502 -0.00000000000E+00 -0.00000000000E+00 -0.15870081991E+03  0.15870081991E+03  0.00000000000E+00 0. -1.
      99926    2    1    2    0    0  0.00000000000E+00  0.00000000000E+00  0.17434874833E+03  0.49175038815E+03  0.45980534816E+03 0.  0.
      99925    2    3    3    0    0  0.61091944630E+02 -0.84769543737E+02  0.51339053176E+02  0.28755196885E+03  0.26293028575E+03 0.  0.
         25    1    3    3    0    0 -0.61091944630E+02  0.84769543737E+02  0.12300969515E+03  0.20419841930E+03  0.12509000000E+03 0.  0.
         25    1    4    4    0    0 -0.52027668273E+01 -0.32668252776E+02  0.40281944850E+01  0.12945276348E+03  0.12509000000E+03 0.  0.
         25    1    4    4    0    0  0.66294711457E+02 -0.52101290961E+02  0.47310858691E+02  0.15809920537E+03  0.12509000000E+03 0.  0.
<mgrwt>
<rscale>  2 0.45980535E+03</rscale>
<asrwt>0</asrwt>
<pdfrwt beam="1">  1       21 0.48977877E-01 0.45980535E+03</pdfrwt>
<pdfrwt beam="2">  1       21 0.23338356E-01 0.45980535E+03</pdfrwt>
<totfact> 0.63400847E+04</totfact>
</mgrwt>
</event>
<event>
 7    0  0.4732500E-002  0.4634097E+03  0.7546771E-02  0.1023797E+00
         21   -1    0    0  502  501  0.00000000000E+00  0.00000000000E+00  0.20256057368E+03  0.20256057368E+03  0.00000000000E+00 0.  1.
         21   -1    0    0  501  502 -0.00000000000E+00 -0.00000000000E+00 -0.26504234163E+03  0.26504234163E+03  0.00000000000E+00 0.  1.
      99926    2    1    2    0    0  0.00000000000E+00 -0.71054273576E-14 -0.62481767953E+02  0.46760291531E+03  0.46340966227E+03 0.  0.
      99925    2    3    3    0    0  0.10778555740E+03 -0.54507546796E+02 -0.44015882473E+02  0.29273926538E+03  0.26300205425E+03 0.  0.
         25    1    3    3    0    0 -0.10778555740E+03  0.54507546796E+02 -0.18465885480E+02  0.17486364994E+03  0.12509000000E+03 0.  0.
         25    1    4    4    0    0  0.13691833691E+02 -0.17130090843E+02 -0.34144176696E+02  0.13150756337E+03  0.12509000000E+03 0.  0.
         25    1    4    4    0    0  0.94093723713E+02 -0.37377455953E+02 -0.98717057776E+01  0.16123170200E+03  0.12509000000E+03 0.  0.
<mgrwt>
<rscale>  2 0.46340966E+03</rscale>
<asrwt>0</asrwt>
<pdfrwt beam="1">  1       21 0.29788320E-01 0.46340966E+03</pdfrwt>
<pdfrwt beam="2">  1       21 0.38976815E-01 0.46340966E+03</pdfrwt>
<totfact> 0.63278510E+04</totfact>
</mgrwt>
</event>
<event>
 7    0  0.4732500E-002  0.4642764E+03  0.7546771E-02  0.1023548E+00
         21   -1    0    0  502  501  0.00000000000E+00  0.00000000000E+00  0.59343879763E+03  0.59343879763E+03  0.00000000000E+00 0.  1.
         21   -1    0    0  501  502 -0.00000000000E+00 -0.00000000000E+00 -0.90806589559E+02  0.90806589559E+02  0.00000000000E+00 0.  1.
      99926    2    1    2    0    0  0.00000000000E+00  0.00000000000E+00  0.50263220807E+03  0.68424538719E+03  0.46427644060E+03 0.  0.
      99925    2    3    3    0    0  0.10055179459E+02  0.87708238130E+02  0.43703871269E+03  0.51768051573E+03  0.26305215890E+03 0.  0.
         25    1    4    4    0    0  0.28854327831E+01  0.60226162697E+02  0.15661656190E+03  0.20931261777E+03  0.12509000000E+03 0.  0.
         25    1    4    4    0    0  0.71697466760E+01  0.27482075433E+02  0.28042215079E+03  0.30836789796E+03  0.12509000000E+03 0.  0.
         25    1    3    3    0    0 -0.10055179459E+02 -0.87708238130E+02  0.65593495384E+02  0.16656487147E+03  0.12509000000E+03 0.  0.
<mgrwt>
<rscale>  2 0.46427644E+03</rscale>
<asrwt>0</asrwt>
<pdfrwt beam="1">  1       21 0.87270409E-01 0.46427644E+03</pdfrwt>
<pdfrwt beam="2">  1       21 0.13353911E-01 0.46427644E+03</pdfrwt>
<totfact> 0.50010637E+04</totfact>
</mgrwt>
</event>
<event>
 7    0  0.4732500E-002  0.4511899E+03  0.7546771E-02  0.1027368E+00
         21   -1    0    0  502  501  0.00000000000E+00  0.00000000000E+00  0.15548074735E+03  0.15548074735E+03  0.00000000000E+00 0.  1.
         21   -1    0    0  501  502 -0.00000000000E+00 -0.00000000000E+00 -0.32732721691E+03  0.32732721691E+03  0.00000000000E+00 0.  1.
      99926    2    1    2    0    0 -0.14210854715E-13 -0.14210854715E-13 -0.17184646956E+03  0.48280796426E+03  0.45118989489E+03 0.  0.
      99925    2    3    3    0    0  0.78260870697E+02  0.75391956530E+02 -0.93865236479E+02  0.29967606697E+03  0.26303298558E+03 0.  0.
         25    1    3    3    0    0 -0.78260870697E+02 -0.75391956530E+02 -0.77981233083E+02  0.18313189729E+03  0.12509000000E+03 0.  0.
         25    1    4    4    0    0  0.28793541248E+02  0.77617856523E+02 -0.46454457197E+02  0.15703223988E+03  0.12509000000E+03 0.  0.
         25    1    4    4    0    0  0.49467329449E+02 -0.22258999926E+01 -0.47410779282E+02  0.14264382709E+03  0.12509000000E+03 0.  0.
<mgrwt>
<rscale>  2 0.45118989E+03</rscale>
<asrwt>0</asrwt>
<pdfrwt beam="1">  1       21 0.22864816E-01 0.45118989E+03</pdfrwt>
<pdfrwt beam="2">  1       21 0.48136355E-01 0.45118989E+03</pdfrwt>
<totfact> 0.68546167E+04</totfact>
</mgrwt>
</event>
<event>
 7    0  0.4732500E-002  0.4580269E+03  0.7546771E-02  0.1025355E+00
         21   -1    0    0  502  501  0.00000000000E+00  0.00000000000E+00  0.64022906675E+02  0.64022906675E+02  0.00000000000E+00 0. -1.
         21   -1    0    0  501  502 -0.00000000000E+00 -0.00000000000E+00 -0.81919361276E+03  0.81919361276E+03  0.00000000000E+00 0. -1.
      99926    2    1    2    0    0  0.00000000000E+00  0.00000000000E+00 -0.75517070608E+03  0.88321651943E+03  0.45802688226E+03 0.  0.
      99925    2    3    3    0    0  0.96852902179E+02  0.47739849358E+02 -0.55519446343E+03  0.62379874132E+03  0.26310530129E+03 0.  0.
         25    1    4    4    0    0  0.72799222362E+02  0.55544936225E+02 -0.26973069252E+03  0.31110628619E+03  0.12509000000E+03 0.  0.
         25    1    4    4    0    0  0.24053679818E+02 -0.78050868668E+01 -0.28546377091E+03  0.31269245513E+03  0.12509000000E+03 0.  0.
         25    1    3    3    0    0 -0.96852902179E+02 -0.47739849358E+02 -0.19997624265E+03  0.25941777812E+03  0.12509000000E+03 0.  0.
<mgrwt>
<rscale>  2 0.45802688E+03</rscale>
<asrwt>0</asrwt>
<pdfrwt beam="1">  1       21 0.94151344E-02 0.45802688E+03</pdfrwt>
<pdfrwt beam="2">  1       21 0.12046964E+00 0.45802688E+03</pdfrwt>
<totfact> 0.42940340E+04</totfact>
</mgrwt>
</event>
<event>
 7    0  0.4732500E-002  0.4618253E+03  0.7546771E-02  0.1024253E+00
         21   -1    0    0  502  501  0.00000000000E+00  0.00000000000E+00  0.22471292429E+03  0.22471292429E+03  0.00000000000E+00 0.  1.
         21   -1    0    0  501  502 -0.00000000000E+00 -0.00000000000E+00 -0.23728344242E+03  0.23728344242E+03  0.00000000000E+00 0.  1.
      99926    2    1    2    0    0  0.00000000000E+00  0.00000000000E+00 -0.12570518129E+02  0.46199636671E+03  0.46182531863E+03 0.  0.
      99925    2    3    3    0    0  0.81332643571E+02 -0.47529666678E+02 -0.80198542422E+02  0.29142343248E+03  0.26385932363E+03 0.  0.
         25    1    4    4    0    0 -0.12952902951E+01 -0.28594746021E+02 -0.26294734959E+02  0.13098953570E+03  0.12509000000E+03 0.  0.
         25    1    3    3    0    0 -0.81332643571E+02  0.47529666678E+02  0.67628024293E+02  0.17057293424E+03  0.12509000000E+03 0.  0.
         25    1    4    4    0    0  0.82627933866E+02 -0.18934920657E+02 -0.53903807463E+02  0.16043389677E+03  0.12509000000E+03 0.  0.
<mgrwt>
<rscale>  2 0.46182532E+03</rscale>
<asrwt>0</asrwt>
<pdfrwt beam="1">  1       21 0.33046018E-01 0.46182532E+03</pdfrwt>
<pdfrwt beam="2">  1       21 0.34894624E-01 0.46182532E+03</pdfrwt>
<totfact> 0.64454009E+04</totfact>
</mgrwt>
</event>
<event>
 7    0  0.4732500E-002  0.4529387E+03  0.7546771E-02  0.1026849E+00
         21   -1    0    0  502  501  0.00000000000E+00  0.00000000000E+00  0.12974042698E+03  0.12974042698E+03  0.00000000000E+00 0. -1.
         21   -1    0    0  501  502 -0.00000000000E+00 -0.00000000000E+00 -0.39531530373E+03  0.39531530373E+03  0.00000000000E+00 0. -1.
      99926    2    1    2    0    0 -0.14210854715E-13  0.00000000000E+00 -0.26557487674E+03  0.52505573071E+03  0.45293874331E+03 0.  0.
      99925    2    3    3    0    0  0.81162777423E+02  0.47399567038E+02 -0.23625439880E+03  0.36586617728E+03  0.26307376025E+03 0.  0.
         25    1    3    3    0    0 -0.81162777423E+02 -0.47399567038E+02 -0.29320477944E+02  0.15918955343E+03  0.12509000000E+03 0.  0.
         25    1    4    4    0    0  0.68548711580E+02  0.54619078073E+02 -0.11666604370E+03  0.19219948855E+03  0.12509000000E+03 0.  0.
         25    1    4    4    0    0  0.12614065843E+02 -0.72195110355E+01 -0.11958835510E+03  0.17366668872E+03  0.12509000000E+03 0.  0.
<mgrwt>
<rscale>  2 0.45293874E+03</rscale>
<asrwt>0</asrwt>
<pdfrwt beam="1">  1       21 0.19079475E-01 0.45293874E+03</pdfrwt>
<pdfrwt beam="2">  1       21 0.58134603E-01 0.45293874E+03</pdfrwt>
<totfact> 0.64591421E+04</totfact>
</mgrwt>
</event>
<event>
 7    0  0.4732500E-002  0.4576595E+03  0.7546771E-02  0.1025462E+00
         21   -1    0    0  502  501  0.00000000000E+00  0.00000000000E+00  0.31406761696E+03  0.31406761696E+03  0.00000000000E+00 0. -1.
         21   -1    0    0  501  502 -0.00000000000E+00 -0.00000000000E+00 -0.16672539982E+03  0.16672539982E+03  0.00000000000E+00 0. -1.
      99926    2    1    2    0    0  0.00000000000E+00  0.00000000000E+00  0.14734221715E+03  0.48079301678E+03  0.45765947606E+03 0.  0.
      99925    2    3    3    0    0 -0.57410430193E+02 -0.10026024656E+03  0.89564019421E+02  0.30097671394E+03  0.26309160804E+03 0.  0.
         25    1    4    4    0    0 -0.42353256959E+02 -0.30374858041E+02  0.78185675531E+02  0.15645107329E+03  0.12509000000E+03 0.  0.
         25    1    4    4    0    0 -0.15057173234E+02 -0.69885388520E+02  0.11378343891E+02  0.14452564065E+03  0.12509000000E+03 0.  0.
         25    1    3    3    0    0  0.57410430193E+02  0.10026024656E+03  0.57778197726E+02  0.17981630284E+03  0.12509000000E+03 0.  0.
<mgrwt>
<rscale>  2 0.45765948E+03</rscale>
<asrwt>0</asrwt>
<pdfrwt beam="1">  1       21 0.46186414E-01 0.45765948E+03</pdfrwt>
<pdfrwt beam="2">  1       21 0.24518441E-01 0.45765948E+03</pdfrwt>
<totfact> 0.65254057E+04</totfact>
</mgrwt>
</event>
<event>
 7    0  0.4732500E-002  0.4484426E+03  0.7546771E-02  0.1028187E+00
         21   -1    0    0  502  501  0.00000000000E+00  0.00000000000E+00  0.29884279355E+03  0.29884279355E+03  0.00000000000E+00 0.  1.
         21   -1    0    0  501  502 -0.00000000000E+00 -0.00000000000E+00 -0.16823293494E+03  0.16823293494E+03  0.00000000000E+00 0.  1.
      99926    2    1    2    0    0 -0.35527136788E-14 -0.35527136788E-14  0.13060985861E+03  0.46707572849E+03  0.44844263956E+03 0.  0.
      99925    2    3    3    0    0  0.29904374431E+02  0.26691973141E+02 -0.20562564275E+02  0.26680755183E+03  0.26297664844E+03 0.  0.
         25    1    4    4    0    0  0.29133025456E+02  0.72589920552E+01  0.27231034568E+02  0.13149320698E+03  0.12509000000E+03 0.  0.
         25    1    3    3    0    0 -0.29904374431E+02 -0.26691973141E+02  0.15117242288E+03  0.20026817666E+03  0.12509000000E+03 0.  0.
         25    1    4    4    0    0  0.77134897506E+00  0.19432981086E+02 -0.47793598842E+02  0.13531434485E+03  0.12509000000E+03 0.  0.
<mgrwt>
<rscale>  2 0.44844264E+03</rscale>
<asrwt>0</asrwt>
<pdfrwt beam="1">  1       21 0.43947470E-01 0.44844264E+03</pdfrwt>
<pdfrwt beam="2">  1       21 0.24740138E-01 0.44844264E+03</pdfrwt>
<totfact> 0.71291125E+04</totfact>
</mgrwt>
</event>
<event>
 6    0  0.4732500E-002  0.4520231E+03  0.7546771E-02  0.1027120E+00
         21   -1    0    0  502  501  0.00000000000E+00  0.00000000000E+00  0.49810986183E+03  0.49810986183E+03  0.00000000000E+00 0. -1.
         21   -1    0    0  501  502 -0.00000000000E+00 -0.00000000000E+00 -0.10255010904E+03  0.10255010904E+03  0.00000000000E+00 0. -1.
      99926    2    1    2    0    0  0.00000000000E+00  0.17763568394E-14  0.39555975280E+03  0.60065997087E+03  0.45202309960E+03 0.  0.
         25    1    3    3    0    0 -0.94894524441E+02 -0.10754482108E+02  0.21181125777E+03  0.26387903795E+03  0.12509000000E+03 0.  0.
         25    1    3    3    0    0  0.81036770489E+02 -0.33662657776E+01  0.13485192788E+03  0.20102447729E+03  0.12509000000E+03 0.  0.
         25    1    3    3    0    0  0.13857753952E+02  0.14120747886E+02  0.48896567147E+02  0.13575645563E+03  0.12509000000E+03 0.  0.
<mgrwt>
<rscale>  2 0.45202310E+03</rscale>
<asrwt>0</asrwt>
<pdfrwt beam="1">  1       21 0.73251449E-01 0.45202310E+03</pdfrwt>
<pdfrwt beam="2">  1       21 0.15080899E-01 0.45202310E+03</pdfrwt>
<totfact> 0.60037358E+04</totfact>
</mgrwt>
</event>
<event>
 7    0  0.4732500E-002  0.4564817E+03  0.7546771E-02  0.1025807E+00
         21   -1    0    0  502  501  0.00000000000E+00  0.00000000000E+00  0.12051365956E+03  0.12051365956E+03  0.00000000000E+00 0. -1.
         21   -1    0    0  501  502 -0.00000000000E+00 -0.00000000000E+00 -0.43226530990E+03  0.43226530990E+03  0.00000000000E+00 0. -1.
      99926    2    1    2    0    0  0.00000000000E+00  0.00000000000E+00 -0.31175165034E+03  0.55277896947E+03  0.45648165088E+03 0.  0.
      99925    2    3    3    0    0 -0.42819869309E+01  0.89942690137E+02 -0.28216250897E+03  0.39583615087E+03  0.26260722371E+03 0.  0.
         25    1    4    4    0    0 -0.15216080780E+02  0.61861681999E+02 -0.19560014794E+03  0.24075988617E+03  0.12509000000E+03 0.  0.
         25    1    4    4    0    0  0.10934093849E+02  0.28081008139E+02 -0.86562361031E+02  0.15507626470E+03  0.12509000000E+03 0.  0.
         25    1    3    3    0    0  0.42819869309E+01 -0.89942690137E+02 -0.29589141366E+02  0.15694281859E+03  0.12509000000E+03 0.  0.
<mgrwt>
<rscale>  2 0.45648165E+03</rscale>
<asrwt>0</asrwt>
<pdfrwt beam="1">  1       21 0.17722597E-01 0.45648165E+03</pdfrwt>
<pdfrwt beam="2">  1       21 0.63568427E-01 0.45648165E+03</pdfrwt>
<totfact> 0.60965469E+04</totfact>
</mgrwt>
</event>
<event>
 7    0  0.4732500E-002  0.4555580E+03  0.7546771E-02  0.1026077E+00
         21   -1    0    0  502  501  0.00000000000E+00  0.00000000000E+00  0.21631768419E+03  0.21631768419E+03  0.00000000000E+00 0.  1.
         21   -1    0    0  501  502 -0.00000000000E+00 -0.00000000000E+00 -0.23984759197E+03  0.23984759197E+03  0.00000000000E+00 0.  1.
      99926    2    1    2    0    0  0.35527136788E-14  0.71054273576E-14 -0.23529907775E+02  0.45616527616E+03  0.45555801235E+03 0.  0.
      99925    2    3    3    0    0 -0.17267907140E+02 -0.46110731906E+02  0.87734718441E+02  0.28166110612E+03  0.26308024949E+03 0.  0.
         25    1    4    4    0    0 -0.44614016831E+02 -0.42058877279E+02  0.39851196438E+02  0.14489646515E+03  0.12509000000E+03 0.  0.
         25    1    4    4    0    0  0.27346109691E+02 -0.40518546273E+01  0.47883522003E+02  0.13676464097E+03  0.12509000000E+03 0.  0.
         25    1    3    3    0    0  0.17267907140E+02  0.46110731906E+02 -0.11126462622E+03  0.17450417004E+03  0.12509000000E+03 0.  0.
<mgrwt>
<rscale>  2 0.45555801E+03</rscale>
<asrwt>0</asrwt>
<pdfrwt beam="1">  1       21 0.31811424E-01 0.45555801E+03</pdfrwt>
<pdfrwt beam="2">  1       21 0.35271705E-01 0.45555801E+03</pdfrwt>
<totfact> 0.68156579E+04</totfact>
</mgrwt>
</event>
<event>
 7    0  0.4732500E-002  0.4552401E+03  0.7546771E-02  0.1026171E+00
         21   -1    0    0  502  501  0.00000000000E+00  0.00000000000E+00  0.58350089484E+02  0.58350089484E+02  0.00000000000E+00 0.  1.
         21   -1    0    0  501  502 -0.00000000000E+00 -0.00000000000E+00 -0.88793170470E+03  0.88793170470E+03  0.00000000000E+00 0.  1.
      99926    2    1    2    0    0  0.00000000000E+00  0.00000000000E+00 -0.82958161521E+03  0.94628179418E+03  0.45524013191E+03 0.  0.
      99925    2    3    3    0    0  0.96028050342E+02 -0.59976604112E+02 -0.50878331324E+03  0.58382126096E+03  0.26299852742E+03 0.  0.
         25    1    4    4    0    0  0.90354207851E+02 -0.29371331815E+02 -0.26505462599E+03  0.30810391245E+03  0.12509000000E+03 0.  0.
         25    1    3    3    0    0 -0.96028050342E+02  0.59976604112E+02 -0.32079830197E+03  0.36246053322E+03  0.12509000000E+03 0.  0.
         25    1    4    4    0    0  0.56738424911E+01 -0.30605272297E+02 -0.24372868726E+03  0.27571734852E+03  0.12509000000E+03 0.  0.
<mgrwt>
<rscale>  2 0.45524013E+03</rscale>
<asrwt>0</asrwt>
<pdfrwt beam="1">  1       21 0.85808963E-02 0.45524013E+03</pdfrwt>
<pdfrwt beam="2">  1       21 0.13057818E+00 0.45524013E+03</pdfrwt>
<totfact> 0.41214283E+04</totfact>
</mgrwt>
</event>
<event>
 7    0  0.4732500E-002  0.4551969E+03  0.7546771E-02  0.1026184E+00
         21   -1    0    0  502  501  0.00000000000E+00  0.00000000000E+00  0.21624432128E+04  0.21624432128E+04  0.00000000000E+00 0.  1.
         21   -1    0    0  501  502 -0.00000000000E+00 -0.00000000000E+00 -0.23954872176E+02  0.23954872176E+02  0.00000000000E+00 0.  1.
      99926    2    1    2    0    0  0.00000000000E+00 -0.14210854715E-13  0.21384883406E+04  0.21863980849E+04  0.45519688378E+03 0.  0.
      99925    2    3    3    0    0 -0.44283997546E+01  0.87641415431E+02  0.10008552535E+04  0.10385491501E+04  0.26300659718E+03 0.  0.
         25    1    4    4    0    0 -0.15614516009E+02  0.83615202658E+02  0.57204050202E+03  0.59170360763E+03  0.12509000000E+03 0.  0.
         25    1    4    4    0    0  0.11186116255E+02  0.40262127730E+01  0.42881475150E+03  0.44684554243E+03  0.12509000000E+03 0.  0.
         25    1    3    3    0    0  0.44283997546E+01 -0.87641415431E+02  0.11376330871E+04  0.11478489349E+04  0.12509000000E+03 0.  0.
<mgrwt>
<rscale>  2 0.45519688E+03</rscale>
<asrwt>0</asrwt>
<pdfrwt beam="1">  1       21 0.31800622E+00 0.45519688E+03</pdfrwt>
<pdfrwt beam="2">  1       21 0.35227768E-02 0.45519688E+03</pdfrwt>
<totfact> 0.10881778E+04</totfact>
</mgrwt>
</event>
<event>
 7    0  0.4732500E-002  0.4588337E+03  0.7546771E-02  0.1025120E+00
         21   -1    0    0  502  501  0.00000000000E+00  0.00000000000E+00  0.27456552531E+03  0.27456552531E+03  0.00000000000E+00 0.  1.
         21   -1    0    0  501  502 -0.00000000000E+00 -0.00000000000E+00 -0.19169224010E+03  0.19169224010E+03  0.00000000000E+00 0.  1.
      99926    2    1    2    0    0  0.00000000000E+00  0.00000000000E+00  0.82873285218E+02  0.46625776541E+03  0.45883365439E+03 0.  0.
      99925    2    3    3    0    0  0.10232872346E+03 -0.55443988222E+02  0.47114731572E+02  0.29169721507E+03  0.26329121496E+03 0.  0.
         25    1    4    4    0    0  0.88359206457E+01 -0.20844882369E+02  0.31605582062E+02  0.13099237967E+03  0.12509000000E+03 0.  0.
         25    1    3    3    0    0 -0.10232872346E+03  0.55443988222E+02  0.35758553645E+02  0.17456055033E+03  0.12509000000E+03 0.  0.
         25    1    4    4    0    0  0.93492802811E+02 -0.34599105853E+02  0.15509149511E+02  0.16070483540E+03  0.12509000000E+03 0.  0.
<mgrwt>
<rscale>  2 0.45883365E+03</rscale>
<asrwt>0</asrwt>
<pdfrwt beam="1">  1       21 0.40377283E-01 0.45883365E+03</pdfrwt>
<pdfrwt beam="2">  1       21 0.28190035E-01 0.45883365E+03</pdfrwt>
<totfact> 0.65691971E+04</totfact>
</mgrwt>
</event>
<event>
 7    0  0.4732500E-002  0.4596755E+03  0.7546771E-02  0.1024875E+00
         21   -1    0    0  502  501  0.00000000000E+00  0.00000000000E+00  0.27218312280E+03  0.27218312280E+03  0.00000000000E+00 0. -1.
         21   -1    0    0  501  502 -0.00000000000E+00 -0.00000000000E+00 -0.19408029552E+03  0.19408029552E+03  0.00000000000E+00 0. -1.
      99926    2    1    2    0    0  0.00000000000E+00  0.00000000000E+00  0.78102827277E+02  0.46626341832E+03  0.45967545468E+03 0.  0.
      99925    2    3    3    0    0 -0.40963677884E+02 -0.81264286058E+02  0.12432802394E+03  0.30481316592E+03  0.26300513585E+03 0.  0.
         25    1    4    4    0    0  0.76354634045E+01 -0.33740867856E+02  0.27575226572E+02  0.13268250708E+03  0.12509000000E+03 0.  0.
         25    1    4    4    0    0 -0.48599141288E+02 -0.47523418202E+02  0.96752797370E+02  0.17213065883E+03  0.12509000000E+03 0.  0.
         25    1    3    3    0    0  0.40963677884E+02  0.81264286058E+02 -0.46225196665E+02  0.16145025240E+03  0.12509000000E+03 0.  0.
<mgrwt>
<rscale>  2 0.45967545E+03</rscale>
<asrwt>0</asrwt>
<pdfrwt beam="1">  1       21 0.40026930E-01 0.45967545E+03</pdfrwt>
<pdfrwt beam="2">  1       21 0.28541220E-01 0.45967545E+03</pdfrwt>
<totfact> 0.65257084E+04</totfact>
</mgrwt>
</event>
<event>
 7    0  0.4732500E-002  0.4506266E+03  0.7546771E-02  0.1027535E+00
         21   -1    0    0  502  501  0.00000000000E+00  0.00000000000E+00  0.12761650401E+04  0.12761650401E+04  0.00000000000E+00 0.  1.
         21   -1    0    0  501  502 -0.00000000000E+00 -0.00000000000E+00 -0.39780185642E+02  0.39780185642E+02  0.00000000000E+00 0.  1.
      99926    2    1    2    0    0  0.00000000000E+00  0.35527136788E-14  0.12363848545E+04  0.13159452258E+04  0.45062659578E+03 0.  0.
      99925    2    3    3    0    0 -0.10299731116E+03  0.18343085545E+02  0.69142149955E+03  0.74710651294E+03  0.26298200840E+03 0.  0.
         25    1    4    4    0    0 -0.56375408477E+02 -0.12761890051E+02  0.43560785750E+03  0.45688375560E+03  0.12509000000E+03 0.  0.
         25    1    3    3    0    0  0.10299731116E+03 -0.18343085545E+02  0.54496335493E+03  0.56883871283E+03  0.12509000000E+03 0.  0.
         25    1    4    4    0    0 -0.46621902680E+02  0.31104975596E+02  0.25581364206E+03  0.29022275734E+03  0.12509000000E+03 0.  0.
<mgrwt>
<rscale>  2 0.45062660E+03</rscale>
<asrwt>0</asrwt>
<pdfrwt beam="1">  1       21 0.18767130E+00 0.45062660E+03</pdfrwt>
<pdfrwt beam="2">  1       21 0.58500281E-02 0.45062660E+03</pdfrwt>
<totfact> 0.29650742E+04</totfact>
</mgrwt>
</event>
<event>
 7    0  0.4732500E-002  0.4605000E+03  0.7546771E-02  0.1024636E+00
         21   -1    0    0  502  501  0.00000000000E+00  0.00000000000E+00  0.29742451905E+04  0.29742451905E+04  0.00000000000E+00 0. -1.
         21   -1    0    0  501  502 -0.00000000000E+00 -0.00000000000E+00 -0.17824713895E+02  0.17824713895E+02  0.00000000000E+00 0. -1.
      99926    2    1    2    0    0  0.00000000000E+00 -0.14210854715E-13  0.29564204766E+04  0.29920699044E+04  0.46050003072E+03 0.  0.
      99925    2    3    3    0    0 -0.44746767973E+02 -0.10751143437E+03  0.17138102005E+04  0.17377618130E+04  0.26288730210E+03 0.  0.
         25    1    3    3    0    0  0.44746767973E+02  0.10751143437E+03  0.12426102761E+04  0.12543080914E+04  0.12509000000E+03 0.  0.
         25    1    4    4    0    0 -0.33366767934E+02 -0.68276922360E+02  0.67746799011E+03  0.69309845264E+03  0.12509000000E+03 0.  0.
         25    1    4    4    0    0 -0.11380000039E+02 -0.39234512008E+02  0.10363422104E+04  0.10446633604E+04  0.12509000000E+03 0.  0.
<mgrwt>
<rscale>  2 0.46050003E+03</rscale>
<asrwt>0</asrwt>
<pdfrwt beam="1">  1       21 0.43738866E+00 0.46050003E+03</pdfrwt>
<pdfrwt beam="2">  1       21 0.26212835E-02 0.46050003E+03</pdfrwt>
<totfact> 0.31546191E+03</totfact>
</mgrwt>
</event>
<event>
 7    0  0.4732500E-002  0.4804925E+03  0.7546771E-02  0.1019000E+00
         21   -1    0    0  502  501  0.00000000000E+00  0.00000000000E+00  0.79915650317E+03  0.79915650317E+03  0.00000000000E+00 0. -1.
         21   -1    0    0  501  502 -0.00000000000E+00 -0.00000000000E+00 -0.72223989869E+02  0.72223989869E+02  0.00000000000E+00 0. -1.
      99926    2    1    2    0    0  0.00000000000E+00  0.14210854715E-13  0.72693251330E+03  0.87138049304E+03  0.48049254391E+03 0.  0.
      99925    2    3    3    0    0  0.21824152804E+02 -0.10123803373E+03  0.60789289156E+03  0.67002664340E+03  0.26206201965E+03 0.  0.
         25    1    3    3    0    0 -0.21824152804E+02  0.10123803373E+03  0.11903962175E+03  0.20135384964E+03  0.12509000000E+03 0.  0.
         25    1    4    4    0    0 -0.15871003433E+02 -0.35964102299E+02  0.22779969248E+03  0.26284123230E+03  0.12509000000E+03 0.  0.
         25    1    4    4    0    0  0.37695156236E+02 -0.65273931430E+02  0.38009319908E+03  0.40718541110E+03  0.12509000000E+03 0.  0.
<mgrwt>
<rscale>  2 0.48049254E+03</rscale>
<asrwt>0</asrwt>
<pdfrwt beam="1">  1       21 0.11752301E+00 0.48049254E+03</pdfrwt>
<pdfrwt beam="2">  1       21 0.10621175E-01 0.48049254E+03</pdfrwt>
<totfact> 0.36609978E+04</totfact>
</mgrwt>
</event>
<event>
 7    0  0.4732500E-002  0.4492434E+03  0.7546771E-02  0.1027948E+00
         21   -1    0    0  502  501  0.00000000000E+00  0.00000000000E+00  0.19926853869E+03  0.19926853869E+03  0.00000000000E+00 0. -1.
         21   -1    0    0  501  502 -0.00000000000E+00 -0.00000000000E+00 -0.25320059480E+03  0.25320059480E+03  0.00000000000E+00 0. -1.
      99926    2    1    2    0    0 -0.14210854715E-13  0.71054273576E-14 -0.53932056112E+02  0.45246913349E+03  0.44924341964E+03 0.  0.
      99925    2    3    3    0    0  0.93837241965E+02 -0.53495610579E+02 -0.30986688736E+02  0.28561228972E+03  0.26257760153E+03 0.  0.
         25    1    3    3    0    0 -0.93837241965E+02  0.53495610579E+02 -0.22945367376E+02  0.16685684378E+03  0.12509000000E+03 0.  0.
         25    1    4    4    0    0  0.79839814263E+02 -0.33950883970E+01 -0.14748845936E+02  0.14916755386E+03  0.12509000000E+03 0.  0.
         25    1    4    4    0    0  0.13997427701E+02 -0.50100522182E+02 -0.16237842800E+02  0.13644473586E+03  0.12509000000E+03 0.  0.
<mgrwt>
<rscale>  2 0.44924342E+03</rscale>
<asrwt>0</asrwt>
<pdfrwt beam="1">  1       21 0.29304197E-01 0.44924342E+03</pdfrwt>
<pdfrwt beam="2">  1       21 0.37235382E-01 0.44924342E+03</pdfrwt>
<totfact> 0.71981067E+04</totfact>
</mgrwt>
</event>
<event>
 7    0  0.4732500E-002  0.4544578E+03  0.7546771E-02  0.1026401E+00
         21   -1    0    0  502  501  0.00000000000E+00  0.00000000000E+00  0.18555069874E+04  0.18555069874E+04  0.00000000000E+00 0.  1.
         21   -1    0    0  501  502 -0.00000000000E+00 -0.00000000000E+00 -0.27826881901E+02  0.27826881901E+02  0.00000000000E+00 0.  1.
      99926    2    1    2    0    0  0.00000000000E+00  0.00000000000E+00  0.18276801055E+04  0.18833338693E+04  0.45445780357E+03 0.  0.
      99925    2    3    3    0    0 -0.86963188195E+02  0.69291234095E+02  0.12262304894E+04  0.12590318430E+04  0.26297546913E+03 0.  0.
         25    1    4    4    0    0 -0.27630494161E+02  0.56078208076E+02  0.48016738265E+03  0.50011641954E+03  0.12509000000E+03 0.  0.
         25    1    4    4    0    0 -0.59332694034E+02  0.13213026019E+02  0.74606310672E+03  0.75891542345E+03  0.12509000000E+03 0.  0.
         25    1    3    3    0    0  0.86963188195E+02 -0.69291234095E+02  0.60144961617E+03  0.62430202636E+03  0.12509000000E+03 0.  0.
<mgrwt>
<rscale>  2 0.45445780E+03</rscale>
<asrwt>0</asrwt>
<pdfrwt beam="1">  1       21 0.27286859E+00 0.45445780E+03</pdfrwt>
<pdfrwt beam="2">  1       21 0.40921898E-02 0.45445780E+03</pdfrwt>
<totfact> 0.15775796E+04</totfact>
</mgrwt>
</event>
<event>
 7    0  0.4732500E-002  0.4539080E+03  0.7546771E-02  0.1026563E+00
         21   -1    0    0  502  501  0.00000000000E+00  0.00000000000E+00  0.29864687873E+03  0.29864687873E+03  0.00000000000E+00 0. -1.
         21   -1    0    0  501  502 -0.00000000000E+00 -0.00000000000E+00 -0.17247162838E+03  0.17247162838E+03  0.00000000000E+00 0. -1.
      99926    2    1    2    0    0 -0.35527136788E-14  0.00000000000E+00  0.12617525035E+03  0.47111850711E+03  0.45390797960E+03 0.  0.
      99925    2    3    3    0    0  0.19490004832E+02  0.40150211824E+02  0.18616319812E+03  0.32538600636E+03  0.26311103550E+03 0.  0.
         25    1    3    3    0    0 -0.19490004832E+02 -0.40150211824E+02 -0.59987947769E+02  0.14573250075E+03  0.12509000000E+03 0.  0.
         25    1    4    4    0    0 -0.11731004158E+02  0.47466130363E+01  0.12851243587E+03  0.17978626496E+03  0.12509000000E+03 0.  0.
         25    1    4    4    0    0  0.31221008991E+02  0.35403598788E+02  0.57650762251E+02  0.14559974141E+03  0.12509000000E+03 0.  0.
<mgrwt>
<rscale>  2 0.45390798E+03</rscale>
<asrwt>0</asrwt>
<pdfrwt beam="1">  1       21 0.43918659E-01 0.45390798E+03</pdfrwt>
<pdfrwt beam="2">  1       21 0.25363475E-01 0.45390798E+03</pdfrwt>
<totfact> 0.67939342E+04</totfact>
</mgrwt>
</event>
<event>
 7    0  0.4732500E-002  0.4541507E+03  0.7546771E-02  0.1026491E+00
         21   -1    0    0  502  501  0.00000000000E+00  0.00000000000E+00  0.58109568901E+03  0.58109568901E+03  0.00000000000E+00 0.  1.
         21   -1    0    0  501  502 -0.00000000000E+00 -0.00000000000E+00 -0.88734453088E+02  0.88734453088E+02  0.00000000000E+00 0.  1.
      99926    2    1    2    0    0  0.00000000000E+00  0.00000000000E+00  0.49236123592E+03  0.66983014210E+03  0.45415067172E+03 0.  0.
      99925    2    3    3    0    0  0.17595701963E+02  0.83724526031E+02  0.41741406507E+03  0.50076213358E+03  0.26307566919E+03 0.  0.
         25    1    3    3    0    0 -0.17595701963E+02 -0.83724526031E+02  0.74947170847E+02  0.16906800852E+03  0.12509000000E+03 0.  0.
         25    1    4    4    0    0 -0.61786862512E+01  0.81190508969E+02  0.22179893482E+03  0.26734313251E+03  0.12509000000E+03 0.  0.
         25    1    4    4    0    0  0.23774388214E+02  0.25340170614E+01  0.19561513025E+03  0.23341900107E+03  0.12509000000E+03 0.  0.
<mgrwt>
<rscale>  2 0.45415067E+03</rscale>
<asrwt>0</asrwt>
<pdfrwt beam="1">  1       21 0.85455247E-01 0.45415067E+03</pdfrwt>
<pdfrwt beam="2">  1       21 0.13049185E-01 0.45415067E+03</pdfrwt>
<totfact> 0.54938764E+04</totfact>
</mgrwt>
</event>
<event>
 7    0  0.4732500E-002  0.4510510E+03  0.7546771E-02  0.1027409E+00
         21   -1    0    0  502  501  0.00000000000E+00  0.00000000000E+00  0.32958894411E+03  0.32958894411E+03  0.00000000000E+00 0.  1.
         21   -1    0    0  501  502 -0.00000000000E+00 -0.00000000000E+00 -0.15431874941E+03  0.15431874941E+03  0.00000000000E+00 0.  1.
      99926    2    1    2    0    0  0.00000000000E+00  0.14210854715E-13  0.17527019470E+03  0.48390769353E+03  0.45105101120E+03 0.  0.
      99925    2    3    3    0    0 -0.64463207889E+02 -0.73833851353E+02  0.16033630918E+03  0.32429105337E+03  0.26429152934E+03 0.  0.
         25    1    4    4    0    0 -0.36077705945E+02 -0.80742491411E+02  0.80663175950E+02  0.17313291668E+03  0.12509000000E+03 0.  0.
         25    1    4    4    0    0 -0.28385501944E+02  0.69086400574E+01  0.79673133234E+02  0.15115813669E+03  0.12509000000E+03 0.  0.
         25    1    3    3    0    0  0.64463207889E+02  0.73833851353E+02  0.14933885514E+02  0.15961664015E+03  0.12509000000E+03 0.  0.
<mgrwt>
<rscale>  2 0.45105101E+03</rscale>
<asrwt>0</asrwt>
<pdfrwt beam="1">  1       21 0.48468962E-01 0.45105101E+03</pdfrwt>
<pdfrwt beam="2">  1       21 0.22693934E-01 0.45105101E+03</pdfrwt>
<totfact> 0.68540332E+04</totfact>
</mgrwt>
</event>
<event>
 7    0  0.4732500E-002  0.4528528E+03  0.7546771E-02  0.1026875E+00
         21   -1    0    0  502  501  0.00000000000E+00  0.00000000000E+00  0.54392676728E+02  0.54392676728E+02  0.00000000000E+00 0. -1.
         21   -1    0    0  501  502 -0.00000000000E+00 -0.00000000000E+00 -0.94257019912E+03  0.94257019912E+03  0.00000000000E+00 0. -1.
      99926    2    1    2    0    0  0.71054273576E-14  0.00000000000E+00 -0.88817752239E+03  0.99696287584E+03  0.45285280670E+03 0.  0.
      99925    2    3    3    0    0  0.52617661558E+02 -0.97863674108E+02 -0.55308939508E+03  0.62242652490E+03  0.26298475798E+03 0.  0.
         25    1    4    4    0    0  0.55402579023E+01 -0.10157439187E+02 -0.24118527192E+03  0.27194063970E+03  0.12509000000E+03 0.  0.
         25    1    3    3    0    0 -0.52617661558E+02  0.97863674108E+02 -0.33508812730E+03  0.37453635094E+03  0.12509000000E+03 0.  0.
         25    1    4    4    0    0  0.47077403655E+02 -0.87706234922E+02 -0.31190412316E+03  0.35048588520E+03  0.12509000000E+03 0.  0.
<mgrwt>
<rscale>  2 0.45285281E+03</rscale>
<asrwt>0</asrwt>
<pdfrwt beam="1">  1       21 0.79989247E-02 0.45285281E+03</pdfrwt>
<pdfrwt beam="2">  1       21 0.13861324E+00 0.45285281E+03</pdfrwt>
<totfact> 0.39950910E+04</totfact>
</mgrwt>
</event>
<event>
 7    0  0.4732500E-002  0.4551155E+03  0.7546771E-02  0.1026207E+00
         21   -1    0    0  502  501  0.00000000000E+00  0.00000000000E+00  0.40014519432E+03  0.40014519432E+03  0.00000000000E+00 0. -1.
         21   -1    0    0  501  502 -0.00000000000E+00 -0.00000000000E+00 -0.12940937182E+03  0.12940937182E+03  0.00000000000E+00 0. -1.
      99926    2    1    2    0    0  0.14210854715E-13  0.71054273576E-14  0.27073582250E+03  0.52955456615E+03  0.45511553801E+03 0.  0.
      99925    2    3    3    0    0  0.75201819414E+02  0.52648620081E+02  0.24760682847E+03  0.37267993689E+03  0.26297148708E+03 0.  0.
         25    1    4    4    0    0  0.75624558272E+02  0.42403258091E+02  0.14989813624E+03  0.21362132257E+03  0.12509000000E+03 0.  0.
         25    1    4    4    0    0 -0.42273885798E+00  0.10245361990E+02  0.97708692230E+02  0.15905861431E+03  0.12509000000E+03 0.  0.
         25    1    3    3    0    0 -0.75201819414E+02 -0.52648620081E+02  0.23128994030E+02  0.15687462926E+03  0.12509000000E+03 0.  0.
<mgrwt>
<rscale>  2 0.45511554E+03</rscale>
<asrwt>0</asrwt>
<pdfrwt beam="1">  1       21 0.58844881E-01 0.45511554E+03</pdfrwt>
<pdfrwt beam="2">  1       21 0.19030790E-01 0.45511554E+03</pdfrwt>
<totfact> 0.63178821E+04</totfact>
</mgrwt>
</event>
<event>
 7    0  0.4732500E-002  0.4421091E+03  0.7546771E-02  0.1030102E+00
         21   -1    0    0  502  501  0.00000000000E+00  0.00000000000E+00  0.16133004777E+03  0.16133004777E+03  0.00000000000E+00 0. -1.
         21   -1    0    0  501  502 -0.00000000000E+00 -0.00000000000E+00 -0.30288913289E+03  0.30288913289E+03  0.00000000000E+00 0. -1.
      99926    2    1    2    0    0 -0.35527136788E-14 -0.14210854715E-13 -0.14155908512E+03  0.46421918066E+03  0.44210911901E+03 0.  0.
      99925    2    3    3    0    0  0.20067614345E+02  0.97623528018E+02 -0.89105895193E+02  0.29589833346E+03  0.26397518978E+03 0.  0.
         25    1    4    4    0    0  0.29320360468E+02  0.89276171302E+02 -0.48980523958E+02  0.16394059329E+03  0.12509000000E+03 0.  0.
         25    1    3    3    0    0 -0.20067614345E+02 -0.97623528018E+02 -0.52453189927E+02  0.16832084720E+03  0.12509000000E+03 0.  0.
         25    1    4    4    0    0 -0.92527461233E+01  0.83473567161E+01 -0.40125371235E+02  0.13195774017E+03  0.12509000000E+03 0.  0.
<mgrwt>
<rscale>  2 0.44210912E+03</rscale>
<asrwt>0</asrwt>
<pdfrwt beam="1">  1       21 0.23725007E-01 0.44210912E+03</pdfrwt>
<pdfrwt beam="2">  1       21 0.44542519E-01 0.44210912E+03</pdfrwt>
<totfact> 0.75277925E+04</totfact>
</mgrwt>
</event>
<event>
 7    0  0.4732500E-002  0.4493587E+03  0.7546771E-02  0.1027913E+00
         21   -1    0    0  502  501  0.00000000000E+00  0.00000000000E+00  0.82219962025E+03  0.82219962025E+03  0.00000000000E+00 0. -1.
         21   -1    0    0  501  502 -0.00000000000E+00 -0.00000000000E+00 -0.61397261390E+02  0.61397261390E+02  0.00000000000E+00 0. -1.
      99926    2    1    2    0    0  0.00000000000E+00  0.00000000000E+00  0.76080235886E+03  0.88359688164E+03  0.44935867634E+03 0.  0.
      99925    2    3    3    0    0 -0.61853032389E+02 -0.85720465304E+02  0.43862622464E+03  0.52218469957E+03  0.26288799846E+03 0.  0.
         25    1    4    4    0    0 -0.68647089784E+02 -0.37732459805E+02  0.25733591279E+03  0.29665711110E+03  0.12509000000E+03 0.  0.
         25    1    4    4    0    0  0.67940573943E+01 -0.47988005499E+02  0.18129031185E+03  0.22552758847E+03  0.12509000000E+03 0.  0.
         25    1    3    3    0    0  0.61853032389E+02  0.85720465304E+02  0.32217613422E+03  0.36141218207E+03  0.12509000000E+03 0.  0.
<mgrwt>
<rscale>  2 0.44935868E+03</rscale>
<asrwt>0</asrwt>
<pdfrwt beam="1">  1       21 0.12091170E+00 0.44935868E+03</pdfrwt>
<pdfrwt beam="2">  1       21 0.90290095E-02 0.44935868E+03</pdfrwt>
<totfact> 0.45947052E+04</totfact>
</mgrwt>
</event>
<event>
 7    0  0.4732500E-002  0.4540143E+03  0.7546771E-02  0.1026532E+00
         21   -1    0    0  502  501  0.00000000000E+00  0.00000000000E+00  0.39867019154E+03  0.39867019154E+03  0.00000000000E+00 0.  1.
         21   -1    0    0  501  502 -0.00000000000E+00 -0.00000000000E+00 -0.12926034959E+03  0.12926034959E+03  0.00000000000E+00 0.  1.
      99926    2    1    2    0    0  0.00000000000E+00  0.00000000000E+00  0.26940984195E+03  0.52793054113E+03  0.45401430960E+03 0.  0.
      99925    2    3    3    0    0  0.10133525598E+03  0.16882218457E+02  0.22229754770E+03  0.35934548909E+03  0.26298124916E+03 0.  0.
         25    1    3    3    0    0 -0.10133525598E+03 -0.16882218457E+02  0.47112294245E+02  0.16858505204E+03  0.12509000000E+03 0.  0.
         25    1    4    4    0    0  0.74196133407E+02 -0.60505085371E+00  0.15899197791E+03  0.21547944088E+03  0.12509000000E+03 0.  0.
         25    1    4    4    0    0  0.27139122570E+02  0.17487269310E+02  0.63305569790E+02  0.14386604821E+03  0.12509000000E+03 0.  0.
<mgrwt>
<rscale>  2 0.45401431E+03</rscale>
<asrwt>0</asrwt>
<pdfrwt beam="1">  1       21 0.58627969E-01 0.45401431E+03</pdfrwt>
<pdfrwt beam="2">  1       21 0.19008875E-01 0.45401431E+03</pdfrwt>
<totfact> 0.63844201E+04</totfact>
</mgrwt>
</event>
<event>
 7    0  0.4732500E-002  0.4645112E+03  0.7546771E-02  0.1023481E+00
         21   -1    0    0  502  501  0.00000000000E+00  0.00000000000E+00  0.18509974508E+04  0.18509974508E+04  0.00000000000E+00 0. -1.
         21   -1    0    0  501  502 -0.00000000000E+00 -0.00000000000E+00 -0.29142479883E+02  0.29142479883E+02  0.00000000000E+00 0. -1.
      99926    2    1    2    0    0  0.14210854715E-13 -0.71054273576E-14  0.18218549709E+04  0.18801399306E+04  0.46451116659E+03 0.  0.
      99925    2    3    3    0    0  0.10313915065E+03 -0.60964719439E+02  0.10458361840E+04  0.10850254439E+04  0.26296864573E+03 0.  0.
         25    1    3    3    0    0 -0.10313915065E+03  0.60964719439E+02  0.77601878684E+03  0.79511448675E+03  0.12509000000E+03 0.  0.
         25    1    4    4    0    0  0.79146154012E+02 -0.10894830470E+01  0.55648020257E+03  0.57583246228E+03  0.12509000000E+03 0.  0.
         25    1    4    4    0    0  0.23992996639E+02 -0.59875236392E+02  0.48935598146E+03  0.50919298160E+03  0.12509000000E+03 0.  0.
<mgrwt>
<rscale>  2 0.46451117E+03</rscale>
<asrwt>0</asrwt>
<pdfrwt beam="1">  1       21 0.27220543E+00 0.46451117E+03</pdfrwt>
<pdfrwt beam="2">  1       21 0.42856601E-02 0.46451117E+03</pdfrwt>
<totfact> 0.14655022E+04</totfact>
</mgrwt>
</event>
<event>
 7    0  0.4732500E-002  0.4561695E+03  0.7546771E-02  0.1025898E+00
         21   -1    0    0  502  501  0.00000000000E+00  0.00000000000E+00  0.13026847802E+03  0.13026847802E+03  0.00000000000E+00 0.  1.
         21   -1    0    0  501  502 -0.00000000000E+00 -0.00000000000E+00 -0.39934955849E+03  0.39934955849E+03  0.00000000000E+00 0.  1.
      99926    2    1    2    0    0  0.00000000000E+00  0.00000000000E+00 -0.26908108047E+03  0.52961803651E+03  0.45616952630E+03 0.  0.
      99925    2    3    3    0    0  0.10696099477E+03 -0.11975585149E+02 -0.21370325087E+03  0.35555402198E+03  0.26299337267E+03 0.  0.
         25    1    4    4    0    0  0.40181962657E+02  0.30438362639E+02 -0.85009425191E+02  0.15942143681E+03  0.12509000000E+03 0.  0.
         25    1    4    4    0    0  0.66779032113E+02 -0.42413947788E+02 -0.12869382568E+03  0.19613258517E+03  0.12509000000E+03 0.  0.
         25    1    3    3    0    0 -0.10696099477E+03  0.11975585149E+02 -0.55377829597E+02  0.17406401453E+03  0.12509000000E+03 0.  0.
<mgrwt>
<rscale>  2 0.45616953E+03</rscale>
<asrwt>0</asrwt>
<pdfrwt beam="1">  1       21 0.19157130E-01 0.45616953E+03</pdfrwt>
<pdfrwt beam="2">  1       21 0.58727875E-01 0.45616953E+03</pdfrwt>
<totfact> 0.62649624E+04</totfact>
</mgrwt>
</event>
<event>
 7    0  0.4732500E-002  0.4552373E+03  0.7546771E-02  0.1026172E+00
         21   -1    0    0  502  501  0.00000000000E+00  0.00000000000E+00  0.65781593201E+02  0.65781593201E+02  0.00000000000E+00 0.  1.
         21   -1    0    0  501  502 -0.00000000000E+00 -0.00000000000E+00 -0.78761016773E+03  0.78761016773E+03  0.00000000000E+00 0.  1.
      99926    2    1    2    0    0  0.00000000000E+00  0.00000000000E+00 -0.72182857453E+03  0.85339176093E+03  0.45523730802E+03 0.  0.
      99925    2    3    3    0    0 -0.43683501482E+02  0.53085736679E+02 -0.62308872208E+03  0.67983079095E+03  0.26306654100E+03 0.  0.
         25    1    4    4    0    0 -0.33921821946E+02  0.44038492102E+02 -0.41151367090E+03  0.43368316572E+03  0.12509000000E+03 0.  0.
         25    1    3    3    0    0  0.43683501482E+02 -0.53085736679E+02 -0.98739852446E+02  0.17356096998E+03  0.12509000000E+03 0.  0.
         25    1    4    4    0    0 -0.97616795363E+01  0.90472445778E+01 -0.21157505118E+03  0.24614762522E+03  0.12509000000E+03 0.  0.
<mgrwt>
<rscale>  2 0.45523731E+03</rscale>
<asrwt>0</asrwt>
<pdfrwt beam="1">  1       21 0.96737636E-02 0.45523731E+03</pdfrwt>
<pdfrwt beam="2">  1       21 0.11582503E+00 0.45523731E+03</pdfrwt>
<totfact> 0.45203821E+04</totfact>
</mgrwt>
</event>
<event>
 7    0  0.4732500E-002  0.4542942E+03  0.7546771E-02  0.1026449E+00
         21   -1    0    0  502  501  0.00000000000E+00  0.00000000000E+00  0.10663787989E+04  0.10663787989E+04  0.00000000000E+00 0. -1.
         21   -1    0    0  501  502 -0.00000000000E+00 -0.00000000000E+00 -0.48384134779E+02  0.48384134779E+02  0.00000000000E+00 0. -1.
      99926    2    1    2    0    0 -0.11657341759E-14  0.00000000000E+00  0.10179946641E+04  0.11147629337E+04  0.45429424620E+03 0.  0.
      99925    2    3    3    0    0 -0.25740801294E+00 -0.35528457778E+02  0.37920954032E+03  0.46287622568E+03  0.26304407856E+03 0.  0.
         25    1    4    4    0    0 -0.35962462775E+02 -0.20678294381E+02  0.22321474345E+03  0.25921655113E+03  0.12509000000E+03 0.  0.
         25    1    3    3    0    0  0.25740801294E+00  0.35528457778E+02  0.63878512382E+03  0.65188670802E+03  0.12509000000E+03 0.  0.
         25    1    4    4    0    0  0.35705054762E+02 -0.14850163397E+02  0.15599479687E+03  0.20365967456E+03  0.12509000000E+03 0.  0.
<mgrwt>
<rscale>  2 0.45429425E+03</rscale>
<asrwt>0</asrwt>
<pdfrwt beam="1">  1       21 0.15682040E+00 0.45429425E+03</pdfrwt>
<pdfrwt beam="2">  1       21 0.71153146E-02 0.45429425E+03</pdfrwt>
<totfact> 0.35173975E+04</totfact>
</mgrwt>
</event>
<event>
 7    0  0.4732500E-002  0.4179980E+03  0.7546771E-02  0.1037720E+00
         21   -1    0    0  502  501  0.00000000000E+00  0.00000000000E+00  0.31326777370E+03  0.31326777370E+03  0.00000000000E+00 0.  1.
         21   -1    0    0  501  502 -0.00000000000E+00 -0.00000000000E+00 -0.13943530484E+03  0.13943530484E+03  0.00000000000E+00 0.  1.
      99926    2    1    2    0    0  0.00000000000E+00  0.71054273576E-14  0.17383246886E+03  0.45270307853E+03  0.41799802641E+03 0.  0.
      99925    2    3    3    0    0 -0.11110037975E+01 -0.58530967547E+02  0.65054988684E+02  0.27689876463E+03  0.26270452187E+03 0.  0.
         25    1    4    4    0    0 -0.30081041907E+00 -0.62612357942E+02  0.10231659344E+02  0.14025902041E+03  0.12509000000E+03 0.  0.
         25    1    3    3    0    0  0.11110037975E+01  0.58530967547E+02  0.10877748018E+03  0.17580431390E+03  0.12509000000E+03 0.  0.
         25    1    4    4    0    0 -0.81019337843E+00  0.40813903948E+01  0.54823329340E+02  0.13663974422E+03  0.12509000000E+03 0.  0.
<mgrwt>
<rscale>  2 0.41799803E+03</rscale>
<asrwt>0</asrwt>
<pdfrwt beam="1">  1       21 0.46068790E-01 0.41799803E+03</pdfrwt>
<pdfrwt beam="2">  1       21 0.20505192E-01 0.41799803E+03</pdfrwt>
<totfact> 0.93266737E+04</totfact>
</mgrwt>
</event>
<event>
 7    0  0.4732500E-002  0.4196314E+03  0.7546771E-02  0.1037186E+00
         21   -1    0    0  502  501  0.00000000000E+00  0.00000000000E+00  0.13906802953E+03  0.13906802953E+03  0.00000000000E+00 0. -1.
         21   -1    0    0  501  502 -0.00000000000E+00 -0.00000000000E+00 -0.31655456012E+03  0.31655456012E+03  0.00000000000E+00 0. -1.
      99926    2    1    2    0    0  0.00000000000E+00  0.00000000000E+00 -0.17748653059E+03  0.45562258965E+03  0.41963135686E+03 0.  0.
      99925    2    3    3    0    0 -0.22579123254E+02 -0.65379962376E+02 -0.14834957943E+03  0.30974309722E+03  0.26296165552E+03 0.  0.
         25    1    4    4    0    0 -0.39062596715E+02 -0.41523815138E+02 -0.44172103487E+02  0.14439112338E+03  0.12509000000E+03 0.  0.
         25    1    4    4    0    0  0.16483473461E+02 -0.23856147237E+02 -0.10417747595E+03  0.16535197384E+03  0.12509000000E+03 0.  0.
         25    1    3    3    0    0  0.22579123254E+02  0.65379962376E+02 -0.29136951160E+02  0.14587949242E+03  0.12509000000E+03 0.  0.
<mgrwt>
<rscale>  2 0.41963136E+03</rscale>
<asrwt>0</asrwt>
<pdfrwt beam="1">  1       21 0.20451181E-01 0.41963136E+03</pdfrwt>
<pdfrwt beam="2">  1       21 0.46552141E-01 0.41963136E+03</pdfrwt>
<totfact> 0.91674001E+04</totfact>
</mgrwt>
</event>
<event>
 7    0  0.4732500E-002  0.4578818E+03  0.7546771E-02  0.1025397E+00
         21   -1    0    0  502  501  0.00000000000E+00  0.00000000000E+00  0.56810709386E+03  0.56810709386E+03  0.00000000000E+00 0. -1.
         21   -1    0    0  501  502 -0.00000000000E+00 -0.00000000000E+00 -0.92260664843E+02  0.92260664843E+02  0.00000000000E+00 0. -1.
      99926    2    1    2    0    0  0.35527136788E-14  0.00000000000E+00  0.47584642902E+03  0.66036775871E+03  0.45788181087E+03 0.  0.
      99925    2    3    3    0    0  0.18822189208E+02 -0.71199401532E+02  0.42757713682E+03  0.50739370125E+03  0.26306373857E+03 0.  0.
         25    1    4    4    0    0  0.34689489830E+02 -0.49645300174E+02  0.27626934798E+03  0.30925762281E+03  0.12509000000E+03 0.  0.
         25    1    3    3    0    0 -0.18822189208E+02  0.71199401532E+02  0.48269292197E+02  0.15297405746E+03  0.12509000000E+03 0.  0.
         25    1    4    4    0    0 -0.15867300623E+02 -0.21554101358E+02  0.15130778884E+03  0.19813607844E+03  0.12509000000E+03 0.  0.
<mgrwt>
<rscale>  2 0.45788181E+03</rscale>
<asrwt>0</asrwt>
<pdfrwt beam="1">  1       21 0.83545159E-01 0.45788181E+03</pdfrwt>
<pdfrwt beam="2">  1       21 0.13567745E-01 0.45788181E+03</pdfrwt>
<totfact> 0.53872926E+04</totfact>
</mgrwt>
</event>
<event>
 7    0  0.4732500E-002  0.4528008E+03  0.7546771E-02  0.1026890E+00
         21   -1    0    0  502  501  0.00000000000E+00  0.00000000000E+00  0.57518678559E+03  0.57518678559E+03  0.00000000000E+00 0. -1.
         21   -1    0    0  501  502 -0.00000000000E+00 -0.00000000000E+00 -0.89113918170E+02  0.89113918170E+02  0.00000000000E+00 0. -1.
      99926    2    1    2    0    0  0.17763568394E-14  0.00000000000E+00  0.48607286742E+03  0.66430070376E+03  0.45280083102E+03 0.  0.
      99925    2    3    3    0    0 -0.13407038130E+02  0.34065580459E+02  0.15237255004E+03  0.30604992238E+03  0.26288580893E+03 0.  0.
         25    1    3    3    0    0  0.13407038130E+02 -0.34065580459E+02  0.33370031738E+03  0.35825078138E+03  0.12509000000E+03 0.  0.
         25    1    4    4    0    0  0.34332330177E+01  0.68734069632E+01  0.11870254838E+03  0.17261759442E+03  0.12509000000E+03 0.  0.
         25    1    4    4    0    0 -0.16840271147E+02  0.27192173496E+02  0.33670001664E+02  0.13343232796E+03  0.12509000000E+03 0.  0.
<mgrwt>
<rscale>  2 0.45280083E+03</rscale>
<asrwt>0</asrwt>
<pdfrwt beam="1">  1       21 0.84586290E-01 0.45280083E+03</pdfrwt>
<pdfrwt beam="2">  1       21 0.13104988E-01 0.45280083E+03</pdfrwt>
<totfact> 0.55846204E+04</totfact>
</mgrwt>
</event>
<event>
 7    0  0.4732500E-002  0.4417754E+03  0.7546771E-02  0.1030203E+00
         21   -1    0    0  502  501  0.00000000000E+00  0.00000000000E+00  0.97629792332E+03  0.97629792332E+03  0.00000000000E+00 0.  1.
         21   -1    0    0  501  502 -0.00000000000E+00 -0.00000000000E+00 -0.49975906058E+02  0.49975906058E+02  0.00000000000E+00 0.  1.
      99926    2    1    2    0    0  0.00000000000E+00  0.00000000000E+00  0.92632201726E+03  0.10262738294E+04  0.44177538773E+03 0.  0.
      99925    2    3    3    0    0 -0.42005663205E+02 -0.47372176509E+02  0.40927323283E+03  0.49055417094E+03  0.26292625710E+03 0.  0.
         25    1    3    3    0    0  0.42005663205E+02  0.47372176509E+02  0.51704878443E+03  0.53571965843E+03  0.12509000000E+03 0.  0.
         25    1    4    4    0    0 -0.19193259350E+02 -0.28900341182E+02  0.27826233294E+03  0.30705218605E+03  0.12509000000E+03 0.  0.
         25    1    4    4    0    0 -0.22812403855E+02 -0.18471835327E+02  0.13101089988E+03  0.18350198489E+03  0.12509000000E+03 0.  0.
<mgrwt>
<rscale>  2 0.44177539E+03</rscale>
<asrwt>0</asrwt>
<pdfrwt beam="1">  1       21 0.14357321E+00 0.44177539E+03</pdfrwt>
<pdfrwt beam="2">  1       21 0.73493986E-02 0.44177539E+03</pdfrwt>
<totfact> 0.42368484E+04</totfact>
</mgrwt>
</event>
<event>
 7    0  0.4732500E-002  0.4540997E+03  0.7546771E-02  0.1026506E+00
         21   -1    0    0  502  501  0.00000000000E+00  0.00000000000E+00  0.12302021594E+04  0.12302021594E+04  0.00000000000E+00 0. -1.
         21   -1    0    0  501  502 -0.00000000000E+00 -0.00000000000E+00 -0.41905004660E+02  0.41905004660E+02  0.00000000000E+00 0. -1.
      99926    2    1    2    0    0  0.00000000000E+00  0.00000000000E+00  0.11882971548E+04  0.12721071641E+04  0.45409966846E+03 0.  0.
      99925    2    3    3    0    0 -0.43392899466E+02 -0.94149251904E+02  0.86928521137E+03  0.91410834637E+03  0.26304042434E+03 0.  0.
         25    1    4    4    0    0  0.10234142789E+02 -0.59532804149E+02  0.36180253703E+03  0.38755319164E+03  0.12509000000E+03 0.  0.
         25    1    4    4    0    0 -0.53627042255E+02 -0.34616447754E+02  0.50748267434E+03  0.52655515473E+03  0.12509000000E+03 0.  0.
         25    1    3    3    0    0  0.43392899466E+02  0.94149251904E+02  0.31901194339E+03  0.35799881771E+03  0.12509000000E+03 0.  0.
<mgrwt>
<rscale>  2 0.45409967E+03</rscale>
<asrwt>0</asrwt>
<pdfrwt beam="1">  1       21 0.18091206E+00 0.45409967E+03</pdfrwt>
<pdfrwt beam="2">  1       21 0.61625015E-02 0.45409967E+03</pdfrwt>
<totfact> 0.30146364E+04</totfact>
</mgrwt>
</event>
<event>
 7    0  0.4732500E-002  0.4565872E+03  0.7546771E-02  0.1025776E+00
         21   -1    0    0  502  501  0.00000000000E+00  0.00000000000E+00  0.10043345509E+03  0.10043345509E+03  0.00000000000E+00 0. -1.
         21   -1    0    0  501  502 -0.00000000000E+00 -0.00000000000E+00 -0.51893030588E+03  0.51893030588E+03  0.00000000000E+00 0. -1.
      99926    2    1    2    0    0 -0.14210854715E-13  0.00000000000E+00 -0.41849685079E+03  0.61936376097E+03  0.45658718146E+03 0.  0.
      99925    2    3    3    0    0 -0.85536150730E+02 -0.72512306489E+02 -0.23071512867E+03  0.36740354399E+03  0.26302362226E+03 0.  0.
         25    1    3    3    0    0  0.85536150730E+02  0.72512306489E+02 -0.18778172212E+03  0.25196021697E+03  0.12509000000E+03 0.  0.
         25    1    4    4    0    0 -0.64802661562E+02 -0.11107215669E+02 -0.85951247099E+02  0.16540217702E+03  0.12509000000E+03 0.  0.
         25    1    4    4    0    0 -0.20733489168E+02 -0.61405090820E+02 -0.14476388157E+03  0.20200136697E+03  0.12509000000E+03 0.  0.
<mgrwt>
<rscale>  2 0.45658718E+03</rscale>
<asrwt>0</asrwt>
<pdfrwt beam="1">  1       21 0.14769625E-01 0.45658718E+03</pdfrwt>
<pdfrwt beam="2">  1       21 0.76313283E-01 0.45658718E+03</pdfrwt>
<totfact> 0.56786836E+04</totfact>
</mgrwt>
</event>
<event>
 7    0  0.4732500E-002  0.4518180E+03  0.7546771E-02  0.1027181E+00
         21   -1    0    0  502  501  0.00000000000E+00  0.00000000000E+00  0.40515256733E+03  0.40515256733E+03  0.00000000000E+00 0. -1.
         21   -1    0    0  501  502 -0.00000000000E+00 -0.00000000000E+00 -0.12596460356E+03  0.12596460356E+03  0.00000000000E+00 0. -1.
      99926    2    1    2    0    0  0.00000000000E+00  0.00000000000E+00  0.27918796377E+03  0.53111717088E+03  0.45181802763E+03 0.  0.
      99925    2    3    3    0    0 -0.10232092452E+03 -0.36394184608E+02  0.19843333001E+03  0.34682683679E+03  0.26290484968E+03 0.  0.
         25    1    3    3    0    0  0.10232092452E+03  0.36394184608E+02  0.80754633756E+02  0.18429033410E+03  0.12509000000E+03 0.  0.
         25    1    4    4    0    0 -0.66050181483E+02  0.19248850042E+02  0.96025050115E+02  0.17205075720E+03  0.12509000000E+03 0.  0.
         25    1    4    4    0    0 -0.36270743041E+02 -0.55643034649E+02  0.10240827990E+03  0.17477607959E+03  0.12509000000E+03 0.  0.
<mgrwt>
<rscale>  2 0.45181803E+03</rscale>
<asrwt>0</asrwt>
<pdfrwt beam="1">  1       21 0.59581260E-01 0.45181803E+03</pdfrwt>
<pdfrwt beam="2">  1       21 0.18524207E-01 0.45181803E+03</pdfrwt>
<totfact> 0.64747286E+04</totfact>
</mgrwt>
</event>
<event>
 7    0  0.4732500E-002  0.4631707E+03  0.7546771E-02  0.1023866E+00
         21   -1    0    0  502  501  0.00000000000E+00  0.00000000000E+00  0.12585929728E+03  0.12585929728E+03  0.00000000000E+00 0. -1.
         21   -1    0    0  501  502 -0.00000000000E+00 -0.00000000000E+00 -0.42612484960E+03  0.42612484960E+03  0.00000000000E+00 0. -1.
      99926    2    1    2    0    0  0.00000000000E+00  0.71054273576E-14 -0.30026555232E+03  0.55198414688E+03  0.46317069909E+03 0.  0.
      99925    2    3    3    0    0  0.67028080223E+02 -0.50894555921E+02 -0.29077145223E+03  0.40091904370E+03  0.26287834223E+03 0.  0.
         25    1    3    3    0    0 -0.67028080223E+02  0.50894555921E+02 -0.94941000945E+01  0.15106510318E+03  0.12509000000E+03 0.  0.
         25    1    4    4    0    0  0.36170779813E+02 -0.41761166460E+02 -0.95494114012E+02  0.16679015033E+03  0.12509000000E+03 0.  0.
         25    1    4    4    0    0  0.30857300410E+02 -0.91333894610E+01 -0.19527733821E+03  0.23412889337E+03  0.12509000000E+03 0.  0.
<mgrwt>
<rscale>  2 0.46317070E+03</rscale>
<asrwt>0</asrwt>
<pdfrwt beam="1">  1       21 0.18508720E-01 0.46317070E+03</pdfrwt>
<pdfrwt beam="2">  1       21 0.62665420E-01 0.46317070E+03</pdfrwt>
<totfact> 0.57900877E+04</totfact>
</mgrwt>
</event>
<event>
 7    0  0.4732500E-002  0.4566870E+03  0.7546771E-02  0.1025746E+00
         21   -1    0    0  502  501  0.00000000000E+00  0.00000000000E+00  0.30057777648E+02  0.30057777648E+02  0.00000000000E+00 0.  1.
         21   -1    0    0  501  502 -0.00000000000E+00 -0.00000000000E+00 -0.17346845491E+04  0.17346845491E+04  0.00000000000E+00 0.  1.
      99926    2    1    2    0    0  0.88817841970E-15  0.71054273576E-14 -0.17046267715E+04  0.17647423267E+04  0.45668703711E+03 0.  0.
      99925    2    3    3    0    0 -0.60725688266E+01 -0.59250130086E+02 -0.69136750873E+03  0.74205503554E+03  0.26288626749E+03 0.  0.
         25    1    3    3    0    0  0.60725688266E+01  0.59250130086E+02 -0.10132592627E+04  0.10226872912E+04  0.12509000000E+03 0.  0.
         25    1    4    4    0    0  0.84317138851E+01 -0.68817944295E+02 -0.35153827536E+03  0.37951768127E+03  0.12509000000E+03 0.  0.
         25    1    4    4    0    0 -0.14504282712E+02  0.95678142084E+01 -0.33982923336E+03  0.36253735426E+03  0.12509000000E+03 0.  0.
<mgrwt>
<rscale>  2 0.45668704E+03</rscale>
<asrwt>0</asrwt>
<pdfrwt beam="1">  1       21 0.44202609E-02 0.45668704E+03</pdfrwt>
<pdfrwt beam="2">  1       21 0.25510070E+00 0.45668704E+03</pdfrwt>
<totfact> 0.17713718E+04</totfact>
</mgrwt>
</event>
<event>
 7    0  0.4732500E-002  0.4551117E+03  0.7546771E-02  0.1026209E+00
         21   -1    0    0  502  501  0.00000000000E+00  0.00000000000E+00  0.43481679029E+02  0.43481679029E+02  0.00000000000E+00 0. -1.
         21   -1    0    0  501  502 -0.00000000000E+00 -0.00000000000E+00 -0.11908846913E+04  0.11908846913E+04  0.00000000000E+00 0. -1.
      99926    2    1    2    0    0  0.00000000000E+00  0.00000000000E+00 -0.11474030123E+04  0.12343663703E+04  0.45511170456E+03 0.  0.
      99925    2    3    3    0    0 -0.46005067439E+02  0.10174800726E+03 -0.67040905257E+03  0.72875795574E+03  0.26300330240E+03 0.  0.
         25    1    3    3    0    0  0.46005067439E+02 -0.10174800726E+03 -0.47699395971E+03  0.50560841459E+03  0.12509000000E+03 0.  0.
         25    1    4    4    0    0 -0.44615667650E+02  0.61080640846E+02 -0.26636926990E+03  0.30384453020E+03  0.12509000000E+03 0.  0.
         25    1    4    4    0    0 -0.13893997889E+01  0.40667366416E+02 -0.40403978267E+03  0.42491342554E+03  0.12509000000E+03 0.  0.
<mgrwt>
<rscale>  2 0.45511170E+03</rscale>
<asrwt>0</asrwt>
<pdfrwt beam="1">  1       21 0.63943644E-02 0.45511170E+03</pdfrwt>
<pdfrwt beam="2">  1       21 0.17513011E+00 0.45511170E+03</pdfrwt>
<totfact> 0.31054972E+04</totfact>
</mgrwt>
</event>
<event>
 7    0  0.4732500E-002  0.4502588E+03  0.7546771E-02  0.1027645E+00
         21   -1    0    0  502  501  0.00000000000E+00  0.00000000000E+00  0.89187134451E+03  0.89187134451E+03  0.00000000000E+00 0. -1.
         21   -1    0    0  501  502 -0.00000000000E+00 -0.00000000000E+00 -0.56827972825E+02  0.56827972825E+02  0.00000000000E+00 0. -1.
      99926    2    1    2    0    0  0.00000000000E+00  0.71054273576E-14  0.83504337169E+03  0.94869931734E+03  0.45025877239E+03 0.  0.
      99925    2    3    3    0    0 -0.67546170649E+02 -0.42287653999E+02  0.68341557453E+03  0.73659267477E+03  0.26298515199E+03 0.  0.
         25    1    4    4    0    0 -0.16243443583E+02 -0.38160834111E+02  0.25069591964E+03  0.28322438268E+03  0.12509000000E+03 0.  0.
         25    1    3    3    0    0  0.67546170649E+02  0.42287653999E+02  0.15162779716E+03  0.21210664257E+03  0.12509000000E+03 0.  0.
         25    1    4    4    0    0 -0.51302727066E+02 -0.41268198885E+01  0.43271965489E+03  0.45336829209E+03  0.12509000000E+03 0.  0.
<mgrwt>
<rscale>  2 0.45025877E+03</rscale>
<asrwt>0</asrwt>
<pdfrwt beam="1">  1       21 0.13115754E+00 0.45025877E+03</pdfrwt>
<pdfrwt beam="2">  1       21 0.83570554E-02 0.45025877E+03</pdfrwt>
<totfact> 0.42756881E+04</totfact>
</mgrwt>
</event>
<event>
 7    0  0.4732500E-002  0.4529058E+03  0.7546771E-02  0.1026859E+00
         21   -1    0    0  502  501  0.00000000000E+00  0.00000000000E+00  0.17214467247E+03  0.17214467247E+03  0.00000000000E+00 0.  1.
         21   -1    0    0  501  502 -0.00000000000E+00 -0.00000000000E+00 -0.29789429980E+03  0.29789429980E+03  0.00000000000E+00 0.  1.
      99926    2    1    2    0    0  0.00000000000E+00  0.00000000000E+00 -0.12574962733E+03  0.47003897227E+03  0.45290580332E+03 0.  0.
      99925    2    3    3    0    0 -0.87932560151E+02  0.66884666285E+02 -0.68021524446E+02  0.29344413746E+03  0.26320493974E+03 0.  0.
         25    1    4    4    0    0 -0.51690286036E+02 -0.45963233357E+01 -0.17635324941E+02  0.13657058484E+03  0.12509000000E+03 0.  0.
         25    1    3    3    0    0  0.87932560151E+02 -0.66884666285E+02 -0.57728102887E+02  0.17659483481E+03  0.12509000000E+03 0.  0.
         25    1    4    4    0    0 -0.36242274115E+02  0.71480989621E+02 -0.50386199505E+02  0.15687355262E+03  0.12509000000E+03 0.  0.
<mgrwt>
<rscale>  2 0.45290580E+03</rscale>
<asrwt>0</asrwt>
<pdfrwt beam="1">  1       21 0.25315393E-01 0.45290580E+03</pdfrwt>
<pdfrwt beam="2">  1       21 0.43807985E-01 0.45290580E+03</pdfrwt>
<totfact> 0.68564931E+04</totfact>
</mgrwt>
</event>
<event>
 7    0  0.4732500E-002  0.4591021E+03  0.7546771E-02  0.1025042E+00
         21   -1    0    0  502  501  0.00000000000E+00  0.00000000000E+00  0.21040789600E+03  0.21040789600E+03  0.00000000000E+00 0. -1.
         21   -1    0    0  501  502 -0.00000000000E+00 -0.00000000000E+00 -0.25043582670E+03  0.25043582670E+03  0.00000000000E+00 0. -1.
      99926    2    1    2    0    0  0.00000000000E+00  0.00000000000E+00 -0.40027930699E+02  0.46084372271E+03  0.45910206003E+03 0.  0.
      99925    2    3    3    0    0 -0.79583040103E+02  0.78025371454E+02  0.10499511319E+02  0.28585243904E+03  0.26302083245E+03 0.  0.
         25    1    4    4    0    0 -0.29612051915E+02  0.16557841359E+02  0.38410399534E+02  0.13518099948E+03  0.12509000000E+03 0.  0.
         25    1    3    3    0    0  0.79583040103E+02 -0.78025371454E+02 -0.50527442018E+02  0.17499128367E+03  0.12509000000E+03 0.  0.
         25    1    4    4    0    0 -0.49970988188E+02  0.61467530095E+02 -0.27910888215E+02  0.15067143955E+03  0.12509000000E+03 0.  0.
<mgrwt>
<rscale>  2 0.45910206E+03</rscale>
<asrwt>0</asrwt>
<pdfrwt beam="1">  1       21 0.30942338E-01 0.45910206E+03</pdfrwt>
<pdfrwt beam="2">  1       21 0.36828798E-01 0.45910206E+03</pdfrwt>
<totfact> 0.65935252E+04</totfact>
</mgrwt>
</event>
<event>
 7    0  0.4732500E-002  0.4534189E+03  0.7546771E-02  0.1026707E+00
         21   -1    0    0  502  501  0.00000000000E+00  0.00000000000E+00  0.36783048036E+03  0.36783048036E+03  0.00000000000E+00 0.  1.
         21   -1    0    0  501  502 -0.00000000000E+00 -0.00000000000E+00 -0.13973063132E+03  0.13973063132E+03  0.00000000000E+00 0.  1.
      99926    2    1    2    0    0  0.00000000000E+00  0.00000000000E+00  0.22809984903E+03  0.50756111168E+03  0.45341894641E+03 0.  0.
      99925    2    3    3    0    0  0.26303048955E+02 -0.10614478686E+03  0.16967188423E+03  0.33143643614E+03  0.26287448857E+03 0.  0.
         25    1    4    4    0    0  0.53628346763E+02 -0.55561440514E+02  0.90336793043E+02  0.17254366846E+03  0.12509000000E+03 0.  0.
         25    1    3    3    0    0 -0.26303048955E+02  0.10614478686E+03  0.58427964800E+02  0.17612467554E+03  0.12509000000E+03 0.  0.
         25    1    4    4    0    0 -0.27325297808E+02 -0.50583346345E+02  0.79335091188E+02  0.15889276768E+03  0.12509000000E+03 0.  0.
<mgrwt>
<rscale>  2 0.45341895E+03</rscale>
<asrwt>0</asrwt>
<pdfrwt beam="1">  1       21 0.54092718E-01 0.45341895E+03</pdfrwt>
<pdfrwt beam="2">  1       21 0.20548622E-01 0.45341895E+03</pdfrwt>
<totfact> 0.65561493E+04</totfact>
</mgrwt>
</event>
<event>
 7    0  0.4732500E-002  0.4550190E+03  0.7546771E-02  0.1026236E+00
         21   -1    0    0  502  501  0.00000000000E+00  0.00000000000E+00  0.57770598759E+03  0.57770598759E+03  0.00000000000E+00 0.  1.
         21   -1    0    0  501  502 -0.00000000000E+00 -0.00000000000E+00 -0.89596745399E+02  0.89596745399E+02  0.00000000000E+00 0.  1.
      99926    2    1    2    0    0 -0.35527136788E-14  0.14210854715E-13  0.48810924219E+03  0.66730273298E+03  0.45501901624E+03 0.  0.
      99925    2    3    3    0    0 -0.21737896515E+02  0.10400588500E+03  0.24947100765E+03  0.37767283926E+03  0.26289014739E+03 0.  0.
         25    1    3    3    0    0  0.21737896515E+02 -0.10400588500E+03  0.23863823453E+03  0.28962989373E+03  0.12509000000E+03 0.  0.
         25    1    4    4    0    0 -0.24980738495E+02  0.14343733443E+02  0.13115570437E+03  0.18351868263E+03  0.12509000000E+03 0.  0.
         25    1    4    4    0    0  0.32428419800E+01  0.89662151554E+02  0.11831530329E+03  0.19415415663E+03  0.12509000000E+03 0.  0.
<mgrwt>
<rscale>  2 0.45501902E+03</rscale>
<asrwt>0</asrwt>
<pdfrwt beam="1">  1       21 0.84956761E-01 0.45501902E+03</pdfrwt>
<pdfrwt beam="2">  1       21 0.13175992E-01 0.45501902E+03</pdfrwt>
<totfact> 0.54706137E+04</totfact>
</mgrwt>
</event>
<event>
 7    0  0.4732500E-002  0.4632197E+03  0.7546771E-02  0.1023852E+00
         21   -1    0    0  502  501  0.00000000000E+00  0.00000000000E+00  0.15155882579E+03  0.15155882579E+03  0.00000000000E+00 0.  1.
         21   -1    0    0  501  502 -0.00000000000E+00 -0.00000000000E+00 -0.35394253078E+03  0.35394253078E+03  0.00000000000E+00 0.  1.
      99926    2    1    2    0    0  0.71054273576E-14  0.00000000000E+00 -0.20238370499E+03  0.50550135657E+03  0.46321966436E+03 0.  0.
      99925    2    3    3    0    0 -0.59391632265E+02  0.32450588605E+02 -0.16580654972E+02  0.27151270689E+03  0.26241917841E+03 0.  0.
         25    1    3    3    0    0  0.59391632265E+02 -0.32450588605E+02 -0.18580305001E+03  0.23398864968E+03  0.12509000000E+03 0.  0.
         25    1    4    4    0    0 -0.37195931081E+02  0.46691503834E+02  0.16170987596E+02  0.13954441142E+03  0.12509000000E+03 0.  0.
         25    1    4    4    0    0 -0.22195701184E+02 -0.14240915229E+02 -0.32751642568E+02  0.13196829547E+03  0.12509000000E+03 0.  0.
<mgrwt>
<rscale>  2 0.46321966E+03</rscale>
<asrwt>0</asrwt>
<pdfrwt beam="1">  1       21 0.22288063E-01 0.46321966E+03</pdfrwt>
<pdfrwt beam="2">  1       21 0.52050372E-01 0.46321966E+03</pdfrwt>
<totfact> 0.60819648E+04</totfact>
</mgrwt>
</event>
<event>
 6    0  0.4734824E-002  0.4047024E+03  0.7546771E-02  0.1042163E+00
         21   -1    0    0  502  501  0.00000000000E+00  0.00000000000E+00  0.21732426056E+02  0.21732426056E+02  0.00000000000E+00 0.  1.
         21   -1    0    0  501  502 -0.00000000000E+00 -0.00000000000E+00 -0.18840975954E+04  0.18840975954E+04  0.00000000000E+00 0.  1.
      99926    2    1    2    0    0  0.00000000000E+00  0.00000000000E+00 -0.18623651694E+04  0.19058300215E+04  0.40470241747E+03 0.  0.
         25    1    3    3    0    0  0.27866252748E+02 -0.38715402163E+01 -0.81624571326E+03  0.82625425226E+03  0.12509000000E+03 0.  0.
         25    1    3    3    0    0  0.17628395370E+02  0.26329714017E+02 -0.43560738055E+03  0.45431851409E+03  0.12509000000E+03 0.  0.
         25    1    3    3    0    0 -0.45494648118E+02 -0.22458173801E+02 -0.61051207559E+03  0.62525725515E+03  0.12509000000E+03 0.  0.
<mgrwt>
<rscale>  2 0.40470242E+03</rscale>
<asrwt>0</asrwt>
<pdfrwt beam="1">  1       21 0.31959457E-02 0.40470242E+03</pdfrwt>
<pdfrwt beam="2">  1       21 0.27707312E+00 0.40470242E+03</pdfrwt>
<totfact> 0.23096438E+04</totfact>
</mgrwt>
</event>
<event>
 7    0  0.4732500E-002  0.4488720E+03  0.7546771E-02  0.1028059E+00
         21   -1    0    0  502  501  0.00000000000E+00  0.00000000000E+00  0.24354852685E+03  0.24354852685E+03  0.00000000000E+00 0. -1.
         21   -1    0    0  501  502 -0.00000000000E+00 -0.00000000000E+00 -0.20682333667E+03  0.20682333667E+03  0.00000000000E+00 0. -1.
      99926    2    1    2    0    0  0.00000000000E+00  0.88817841970E-15  0.36725190180E+02  0.45037186352E+03  0.44887200387E+03 0.  0.
      99925    2    3    3    0    0  0.10619721963E+03  0.47713274351E+01  0.87870789745E+01  0.28385261184E+03  0.26304843180E+03 0.  0.
         25    1    3    3    0    0 -0.10619721963E+03 -0.47713274351E+01  0.27938111205E+02  0.16651925168E+03  0.12509000000E+03 0.  0.
         25    1    4    4    0    0  0.87246704547E+02 -0.21059729716E+02 -0.46498988795E+01  0.15402801476E+03  0.12509000000E+03 0.  0.
         25    1    4    4    0    0  0.18950515081E+02  0.25831057151E+02  0.13436977854E+02  0.12982459709E+03  0.12509000000E+03 0.  0.
<mgrwt>
<rscale>  2 0.44887200E+03</rscale>
<asrwt>0</asrwt>
<pdfrwt beam="1">  1       21 0.35815960E-01 0.44887200E+03</pdfrwt>
<pdfrwt beam="2">  1       21 0.30415197E-01 0.44887200E+03</pdfrwt>
<totfact> 0.72359943E+04</totfact>
</mgrwt>
</event>
<event>
 7    0  0.4732500E-002  0.4616183E+03  0.7546771E-02  0.1024313E+00
         21   -1    0    0  502  501  0.00000000000E+00  0.00000000000E+00  0.14852778667E+03  0.14852778667E+03  0.00000000000E+00 0. -1.
         21   -1    0    0  501  502 -0.00000000000E+00 -0.00000000000E+00 -0.35867264404E+03  0.35867264404E+03  0.00000000000E+00 0. -1.
      99926    2    1    2    0    0 -0.71054273576E-14  0.14210854715E-13 -0.21014485737E+03  0.50720043071E+03  0.46161825769E+03 0.  0.
      99925    2    3    3    0    0 -0.32005661193E+02  0.88346207838E+02 -0.50821587737E+02  0.28390504981E+03  0.26303959538E+03 0.  0.
         25    1    4    4    0    0 -0.13245963745E+02  0.60641795314E+02  0.11662817098E+02  0.14012998358E+03  0.12509000000E+03 0.  0.
         25    1    3    3    0    0  0.32005661193E+02 -0.88346207838E+02 -0.15932326963E+03  0.22329538091E+03  0.12509000000E+03 0.  0.
         25    1    4    4    0    0 -0.18759697448E+02  0.27704412525E+02 -0.62484404835E+02  0.14377506623E+03  0.12509000000E+03 0.  0.
<mgrwt>
<rscale>  2 0.46161826E+03</rscale>
<asrwt>0</asrwt>
<pdfrwt beam="1">  1       21 0.21842321E-01 0.46161826E+03</pdfrwt>
<pdfrwt beam="2">  1       21 0.52745977E-01 0.46161826E+03</pdfrwt>
<totfact> 0.61474273E+04</totfact>
</mgrwt>
</event>
<event>
 7    0  0.4732500E-002  0.4529173E+03  0.7546771E-02  0.1026856E+00
         21   -1    0    0  502  501  0.00000000000E+00  0.00000000000E+00  0.21439210635E+03  0.21439210635E+03  0.00000000000E+00 0.  1.
         21   -1    0    0  501  502 -0.00000000000E+00 -0.00000000000E+00 -0.23920432914E+03  0.23920432914E+03  0.00000000000E+00 0.  1.
      99926    2    1    2    0    0  0.00000000000E+00  0.00000000000E+00 -0.24812222795E+02  0.45359643549E+03  0.45291729918E+03 0.  0.
      99925    2    3    3    0    0  0.16084565709E+02 -0.10918916372E+03 -0.29692399122E+02  0.28670631911E+03  0.26294084529E+03 0.  0.
         25    1    4    4    0    0 -0.31869069628E+02 -0.59710476450E+02 -0.10554816122E+02  0.14261798919E+03  0.12509000000E+03 0.  0.
         25    1    3    3    0    0 -0.16084565709E+02  0.10918916372E+03  0.48801763273E+01  0.16689011639E+03  0.12509000000E+03 0.  0.
         25    1    4    4    0    0  0.47953635337E+02 -0.49478687265E+02 -0.19137583000E+02  0.14408832992E+03  0.12509000000E+03 0.  0.
<mgrwt>
<rscale>  2 0.45291730E+03</rscale>
<asrwt>0</asrwt>
<pdfrwt beam="1">  1       21 0.31528251E-01 0.45291730E+03</pdfrwt>
<pdfrwt beam="2">  1       21 0.35177107E-01 0.45291730E+03</pdfrwt>
<totfact> 0.69801507E+04</totfact>
</mgrwt>
</event>
<event>
 7    0  0.4732500E-002  0.4618012E+03  0.7546771E-02  0.1024260E+00
         21   -1    0    0  502  501  0.00000000000E+00  0.00000000000E+00  0.39651812611E+02  0.39651812611E+02  0.00000000000E+00 0. -1.
         21   -1    0    0  501  502 -0.00000000000E+00 -0.00000000000E+00 -0.13445815366E+04  0.13445815366E+04  0.00000000000E+00 0. -1.
      99926    2    1    2    0    0  0.00000000000E+00  0.00000000000E+00 -0.13049297240E+04  0.13842333492E+04  0.46180123486E+03 0.  0.
      99925    2    3    3    0    0  0.14678523086E+02 -0.11251216511E+03 -0.70500298332E+03  0.76098857498E+03  0.26305884972E+03 0.  0.
         25    1    4    4    0    0 -0.10464378393E+02 -0.17276531074E+02 -0.28894264872E+03  0.31550490344E+03  0.12509000000E+03 0.  0.
         25    1    4    4    0    0  0.25142901479E+02 -0.95235634041E+02 -0.41606033460E+03  0.44548367154E+03  0.12509000000E+03 0.  0.
         25    1    3    3    0    0 -0.14678523086E+02  0.11251216511E+03 -0.59992674068E+03  0.62324477424E+03  0.12509000000E+03 0.  0.
<mgrwt>
<rscale>  2 0.46180123E+03</rscale>
<asrwt>0</asrwt>
<pdfrwt beam="1">  1       21 0.58311506E-02 0.46180123E+03</pdfrwt>
<pdfrwt beam="2">  1       21 0.19773252E+00 0.46180123E+03</pdfrwt>
<totfact> 0.25386591E+04</totfact>
</mgrwt>
</event>
<event>
 7    0  0.4732500E-002  0.4546089E+03  0.7546771E-02  0.1026356E+00
         21   -1    0    0  502  501  0.00000000000E+00  0.00000000000E+00  0.80457540133E+02  0.80457540133E+02  0.00000000000E+00 0. -1.
         21   -1    0    0  501  502 -0.00000000000E+00 -0.00000000000E+00 -0.64216866642E+03  0.64216866642E+03  0.00000000000E+00 0. -1.
      99926    2    1    2    0    0 -0.14210854715E-13  0.71054273576E-14 -0.56171112629E+03  0.72262620656E+03  0.45460889235E+03 0.  0.
      99925    2    3    3    0    0 -0.91442518235E+02  0.41378938394E+02 -0.27266823527E+03  0.39207023303E+03  0.26324351924E+03 0.  0.
         25    1    4    4    0    0 -0.11659944131E+02 -0.63335361414E+01 -0.11695205622E+03  0.17175959808E+03  0.12509000000E+03 0.  0.
         25    1    4    4    0    0 -0.79782574103E+02  0.47712474535E+02 -0.15571617905E+03  0.22031063495E+03  0.12509000000E+03 0.  0.
         25    1    3    3    0    0  0.91442518235E+02 -0.41378938394E+02 -0.28904289102E+03  0.33055597353E+03  0.12509000000E+03 0.  0.
<mgrwt>
<rscale>  2 0.45460889E+03</rscale>
<asrwt>0</asrwt>
<pdfrwt beam="1">  1       21 0.11831991E-01 0.45460889E+03</pdfrwt>
<pdfrwt beam="2">  1       21 0.94436570E-01 0.45460889E+03</pdfrwt>
<totfact> 0.51851014E+04</totfact>
</mgrwt>
</event>
<event>
 7    0  0.4732500E-002  0.4521835E+03  0.7546771E-02  0.1027073E+00
         21   -1    0    0  502  501  0.00000000000E+00  0.00000000000E+00  0.52313069875E+02  0.52313069875E+02  0.00000000000E+00 0.  1.
         21   -1    0    0  501  502 -0.00000000000E+00 -0.00000000000E+00 -0.97714567972E+03  0.97714567972E+03  0.00000000000E+00 0.  1.
      99926    2    1    2    0    0  0.00000000000E+00  0.71054273576E-14 -0.92483260984E+03  0.10294587496E+04  0.45218354778E+03 0.  0.
      99925    2    3    3    0    0 -0.10147313011E+03 -0.43374631519E+02 -0.57787259769E+03  0.64448224001E+03  0.26313962784E+03 0.  0.
         25    1    4    4    0    0 -0.76160919480E+02  0.60993150137E+01 -0.26172976272E+03  0.29997943945E+03  0.12509000000E+03 0.  0.
         25    1    3    3    0    0  0.10147313011E+03  0.43374631519E+02 -0.34696001215E+03  0.38497650958E+03  0.12509000000E+03 0.  0.
         25    1    4    4    0    0 -0.25312210635E+02 -0.49473946533E+02 -0.31614283498E+03  0.34450280057E+03  0.12509000000E+03 0.  0.
<mgrwt>
<rscale>  2 0.45218355E+03</rscale>
<asrwt>0</asrwt>
<pdfrwt beam="1">  1       21 0.76930992E-02 0.45218355E+03</pdfrwt>
<pdfrwt beam="2">  1       21 0.14369788E+00 0.45218355E+03</pdfrwt>
<totfact> 0.38888325E+04</totfact>
</mgrwt>
</event>
<event>
 7    0  0.4732500E-002  0.4477644E+03  0.7546771E-02  0.1028391E+00
         21   -1    0    0  502  501  0.00000000000E+00  0.00000000000E+00  0.28732242751E+02  0.28732242751E+02  0.00000000000E+00 0.  1.
         21   -1    0    0  501  502 -0.00000000000E+00 -0.00000000000E+00 -0.17444946633E+04  0.17444946633E+04  0.00000000000E+00 0.  1.
      99926    2    1    2    0    0  0.00000000000E+00 -0.17763568394E-14 -0.17157624205E+04  0.17732269060E+04  0.44776442084E+03 0.  0.
      99925    2    3    3    0    0 -0.99785033561E+02  0.95067632438E+01 -0.12260358347E+04  0.12579337192E+04  0.26303220783E+03 0.  0.
         25    1    4    4    0    0 -0.17252867537E+02 -0.14634879934E+02 -0.47530852837E+03  0.49201376646E+03  0.12509000000E+03 0.  0.
         25    1    3    3    0    0  0.99785033561E+02 -0.95067632438E+01 -0.48972658581E+03  0.51529318686E+03  0.12509000000E+03 0.  0.
         25    1    4    4    0    0 -0.82532166023E+02  0.24141643177E+02 -0.75072730633E+03  0.76591995269E+03  0.12509000000E+03 0.  0.
<mgrwt>
<rscale>  2 0.44776442E+03</rscale>
<asrwt>0</asrwt>
<pdfrwt beam="1">  1       21 0.42253292E-02 0.44776442E+03</pdfrwt>
<pdfrwt beam="2">  1       21 0.25654337E+00 0.44776442E+03</pdfrwt>
<totfact> 0.18814482E+04</totfact>
</mgrwt>
</event>
<event>
 7    0  0.4732500E-002  0.4524205E+03  0.7546771E-02  0.1027003E+00
         21   -1    0    0  502  501  0.00000000000E+00  0.00000000000E+00  0.37364044087E+03  0.37364044087E+03  0.00000000000E+00 0.  1.
         21   -1    0    0  501  502 -0.00000000000E+00 -0.00000000000E+00 -0.13695272255E+03  0.13695272255E+03  0.00000000000E+00 0.  1.
      99926    2    1    2    0    0  0.00000000000E+00  0.71054273576E-14  0.23668771832E+03  0.51059316342E+03  0.45242049304E+03 0.  0.
      99925    2    3    3    0    0 -0.80753014890E+02 -0.59212592600E+02  0.95919374942E+02  0.29730834180E+03  0.26299152663E+03 0.  0.
         25    1    4    4    0    0 -0.79657079070E+02 -0.17776356030E+02  0.44453252980E+02  0.15583596786E+03  0.12509000000E+03 0.  0.
         25    1    4    4    0    0 -0.10959358195E+01 -0.41436236570E+02  0.51466121962E+02  0.14147237393E+03  0.12509000000E+03 0.  0.
         25    1    3    3    0    0  0.80753014890E+02  0.59212592600E+02  0.14076834338E+03  0.21328482162E+03  0.12509000000E+03 0.  0.
<mgrwt>
<rscale>  2 0.45242049E+03</rscale>
<asrwt>0</asrwt>
<pdfrwt beam="1">  1       21 0.54947123E-01 0.45242049E+03</pdfrwt>
<pdfrwt beam="2">  1       21 0.20140106E-01 0.45242049E+03</pdfrwt>
<totfact> 0.65870797E+04</totfact>
</mgrwt>
</event>
<event>
 7    0  0.4732500E-002  0.4549626E+03  0.7546771E-02  0.1026252E+00
         21   -1    0    0  502  501  0.00000000000E+00  0.00000000000E+00  0.64752578375E+02  0.64752578375E+02  0.00000000000E+00 0. -1.
         21   -1    0    0  501  502 -0.00000000000E+00 -0.00000000000E+00 -0.79916120865E+03  0.79916120865E+03  0.00000000000E+00 0. -1.
      99926    2    1    2    0    0  0.14210854715E-13  0.14210854715E-13 -0.73440863027E+03  0.86391378702E+03  0.45496263054E+03 0.  0.
      99925    2    3    3    0    0  0.73590295975E+02  0.84171935411E+02 -0.49344899447E+03  0.57029924283E+03  0.26315180004E+03 0.  0.
         25    1    4    4    0    0  0.43469469230E+02  0.83254717528E+02 -0.29216036132E+03  0.33140025282E+03  0.12509000000E+03 0.  0.
         25    1    4    4    0    0  0.30120826745E+02  0.91721788288E+00 -0.20128863315E+03  0.23889899001E+03  0.12509000000E+03 0.  0.
         25    1    3    3    0    0 -0.73590295975E+02 -0.84171935411E+02 -0.24095963580E+03  0.29361454419E+03  0.12509000000E+03 0.  0.
<mgrwt>
<rscale>  2 0.45496263E+03</rscale>
<asrwt>0</asrwt>
<pdfrwt beam="1">  1       21 0.95224378E-02 0.45496263E+03</pdfrwt>
<pdfrwt beam="2">  1       21 0.11752371E+00 0.45496263E+03</pdfrwt>
<totfact> 0.44836307E+04</totfact>
</mgrwt>
</event>
<event>
 7    0  0.4732500E-002  0.4495534E+03  0.7546771E-02  0.1027855E+00
         21   -1    0    0  502  501  0.00000000000E+00  0.00000000000E+00  0.16298248172E+04  0.16298248172E+04  0.00000000000E+00 0. -1.
         21   -1    0    0  501  502 -0.00000000000E+00 -0.00000000000E+00 -0.30999992246E+02  0.30999992246E+02  0.00000000000E+00 0. -1.
      99926    2    1    2    0    0  0.14210854715E-13  0.00000000000E+00  0.15988248249E+04  0.16608248094E+04  0.44955336366E+03 0.  0.
      99925    2    3    3    0    0 -0.75981288756E+02 -0.34142480381E+02  0.12648693747E+04  0.12946109156E+04  0.26302855827E+03 0.  0.
         25    1    4    4    0    0  0.34033761982E+01 -0.76725149475E+01  0.58481267516E+03  0.59810017855E+03  0.12509000000E+03 0.  0.
         25    1    4    4    0    0 -0.79384664954E+02 -0.26469965434E+02  0.68005669956E+03  0.69651073705E+03  0.12509000000E+03 0.  0.
         25    1    3    3    0    0  0.75981288756E+02  0.34142480381E+02  0.33395545022E+03  0.36621389384E+03  0.12509000000E+03 0.  0.
<mgrwt>
<rscale>  2 0.44955336E+03</rscale>
<asrwt>0</asrwt>
<pdfrwt beam="1">  1       21 0.23968006E+00 0.44955336E+03</pdfrwt>
<pdfrwt beam="2">  1       21 0.45588235E-02 0.44955336E+03</pdfrwt>
<totfact> 0.20962140E+04</totfact>
</mgrwt>
</event>
<event>
 7    0  0.4732500E-002  0.4562375E+03  0.7546771E-02  0.1025878E+00
         21   -1    0    0  502  501  0.00000000000E+00  0.00000000000E+00  0.18988067776E+03  0.18988067776E+03  0.00000000000E+00 0. -1.
         21   -1    0    0  501  502 -0.00000000000E+00 -0.00000000000E+00 -0.27405723240E+03  0.27405723240E+03  0.00000000000E+00 0. -1.
      99926    2    1    2    0    0  0.88817841970E-15  0.14210854715E-13 -0.84176554642E+02  0.46393791015E+03  0.45623753915E+03 0.  0.
      99925    2    3    3    0    0 -0.72476937449E+01 -0.84485135722E+02  0.25075921148E+02  0.27746035443E+03  0.26299273609E+03 0.  0.
         25    1    3    3    0    0  0.72476937449E+01  0.84485135722E+02 -0.10925247579E+03  0.18647755572E+03  0.12509000000E+03 0.  0.
         25    1    4    4    0    0 -0.23257430070E+02 -0.12077502895E+02  0.32428609339E+02  0.13185559121E+03  0.12509000000E+03 0.  0.
         25    1    4    4    0    0  0.16009736326E+02 -0.72407632827E+02 -0.73526881914E+01  0.14560476322E+03  0.12509000000E+03 0.  0.
<mgrwt>
<rscale>  2 0.45623754E+03</rscale>
<asrwt>0</asrwt>
<pdfrwt beam="1">  1       21 0.27923629E-01 0.45623754E+03</pdfrwt>
<pdfrwt beam="2">  1       21 0.40302534E-01 0.45623754E+03</pdfrwt>
<totfact> 0.67225286E+04</totfact>
</mgrwt>
</event>
<event>
 7    0  0.4732500E-002  0.4043128E+03  0.7546771E-02  0.1042296E+00
         21   -1    0    0  502  501  0.00000000000E+00  0.00000000000E+00  0.70713442542E+03  0.70713442542E+03  0.00000000000E+00 0.  1.
         21   -1    0    0  501  502 -0.00000000000E+00 -0.00000000000E+00 -0.57792705461E+02  0.57792705461E+02  0.00000000000E+00 0.  1.
      99926    2    1    2    0    0  0.00000000000E+00 -0.71054273576E-14  0.64934171996E+03  0.76492713089E+03  0.40431280746E+03 0.  0.
      99925    2    3    3    0    0  0.40286907848E+02 -0.33854928134E+02  0.41648240106E+03  0.49540874264E+03  0.26306470837E+03 0.  0.
         25    1    4    4    0    0  0.36801501462E+02 -0.49464005825E+02  0.25357489224E+03  0.28939380169E+03  0.12509000000E+03 0.  0.
         25    1    3    3    0    0 -0.40286907848E+02  0.33854928134E+02  0.23285931890E+03  0.26951838824E+03  0.12509000000E+03 0.  0.
         25    1    4    4    0    0  0.34854063859E+01  0.15609077692E+02  0.16290750882E+03  0.20601494095E+03  0.12509000000E+03 0.  0.
<mgrwt>
<rscale>  2 0.40431281E+03</rscale>
<asrwt>0</asrwt>
<pdfrwt beam="1">  1       21 0.10399035E+00 0.40431281E+03</pdfrwt>
<pdfrwt beam="2">  1       21 0.84989277E-02 0.40431281E+03</pdfrwt>
<totfact> 0.75289800E+04</totfact>
</mgrwt>
</event>
<event>
 7    0  0.4732500E-002  0.4384255E+03  0.7546771E-02  0.1031231E+00
         21   -1    0    0  502  501  0.00000000000E+00  0.00000000000E+00  0.39000335218E+03  0.39000335218E+03  0.00000000000E+00 0.  1.
         21   -1    0    0  501  502 -0.00000000000E+00 -0.00000000000E+00 -0.12321493897E+03  0.12321493897E+03  0.00000000000E+00 0.  1.
      99926    2    1    2    0    0  0.14210854715E-13 -0.71054273576E-14  0.26678841321E+03  0.51321829115E+03  0.43842554321E+03 0.  0.
      99925    2    3    3    0    0  0.69069901679E+02 -0.53327453794E+02  0.12147388402E+03  0.30255673998E+03  0.26300229611E+03 0.  0.
         25    1    3    3    0    0 -0.69069901679E+02  0.53327453794E+02  0.14531452919E+03  0.21066155117E+03  0.12509000000E+03 0.  0.
         25    1    4    4    0    0  0.36205017638E+02 -0.18730817813E+02  0.16841692900E+02  0.13263784361E+03  0.12509000000E+03 0.  0.
         25    1    4    4    0    0  0.32864884041E+02 -0.34596635981E+02  0.10463219112E+03  0.16991889637E+03  0.12509000000E+03 0.  0.
<mgrwt>
<rscale>  2 0.43842554E+03</rscale>
<asrwt>0</asrwt>
<pdfrwt beam="1">  1       21 0.57353434E-01 0.43842554E+03</pdfrwt>
<pdfrwt beam="2">  1       21 0.18119844E-01 0.43842554E+03</pdfrwt>
<totfact> 0.73553805E+04</totfact>
</mgrwt>
</event>
<event>
 7    0  0.4732500E-002  0.4513398E+03  0.7546771E-02  0.1027323E+00
         21   -1    0    0  502  501  0.00000000000E+00  0.00000000000E+00  0.59096475774E+02  0.59096475774E+02  0.00000000000E+00 0.  1.
         21   -1    0    0  501  502 -0.00000000000E+00 -0.00000000000E+00 -0.86175864926E+03  0.86175864926E+03  0.00000000000E+00 0.  1.
      99926    2    1    2    0    0  0.00000000000E+00  0.00000000000E+00 -0.80266217349E+03  0.92085512504E+03  0.45133977950E+03 0.  0.
      99925    2    3    3    0    0  0.36620863397E+02  0.46456710366E+02 -0.31709348197E+03  0.41595535690E+03  0.26262381662E+03 0.  0.
         25    1    3    3    0    0 -0.36620863397E+02 -0.46456710366E+02 -0.48556869152E+03  0.50489976813E+03  0.12509000000E+03 0.  0.
         25    1    4    4    0    0  0.57865539946E+02  0.32081785899E+02 -0.16634138101E+03  0.21839099074E+03  0.12509000000E+03 0.  0.
         25    1    4    4    0    0 -0.21244676550E+02  0.14374924467E+02 -0.15075210096E+03  0.19756436617E+03  0.12509000000E+03 0.  0.
<mgrwt>
<rscale>  2 0.45133978E+03</rscale>
<asrwt>0</asrwt>
<pdfrwt beam="1">  1       21 0.86906582E-02 0.45133978E+03</pdfrwt>
<pdfrwt beam="2">  1       21 0.12672921E+00 0.45133978E+03</pdfrwt>
<totfact> 0.43578522E+04</totfact>
</mgrwt>
</event>
<event>
 7    0  0.4732500E-002  0.4548089E+03  0.7546771E-02  0.1026298E+00
         21   -1    0    0  502  501  0.00000000000E+00  0.00000000000E+00  0.35406657302E+03  0.35406657302E+03  0.00000000000E+00 0.  1.
         21   -1    0    0  501  502 -0.00000000000E+00 -0.00000000000E+00 -0.14605384587E+03  0.14605384587E+03  0.00000000000E+00 0.  1.
      99926    2    1    2    0    0  0.17763568394E-14  0.71054273576E-14  0.20801272715E+03  0.50012041889E+03  0.45480890353E+03 0.  0.
      99925    2    3    3    0    0  0.81571325888E+01 -0.57150680111E+02  0.23769280671E+03  0.35919081138E+03  0.26303503487E+03 0.  0.
         25    1    4    4    0    0 -0.26638912726E+02 -0.19245136885E+02  0.82873290270E+02  0.15360825923E+03  0.12509000000E+03 0.  0.
         25    1    3    3    0    0 -0.81571325888E+01  0.57150680111E+02 -0.29680079563E+02  0.14092960751E+03  0.12509000000E+03 0.  0.
         25    1    4    4    0    0  0.34796045315E+02 -0.37905543226E+02  0.15481951644E+03  0.20558255215E+03  0.12509000000E+03 0.  0.
<mgrwt>
<rscale>  2 0.45480890E+03</rscale>
<asrwt>0</asrwt>
<pdfrwt beam="1">  1       21 0.52068614E-01 0.45480890E+03</pdfrwt>
<pdfrwt beam="2">  1       21 0.21478507E-01 0.45480890E+03</pdfrwt>
<totfact> 0.65361294E+04</totfact>
</mgrwt>
</event>
<event>
 7    0  0.4732500E-002  0.4828574E+03  0.7546771E-02  0.1018353E+00
         21   -1    0    0  502  501  0.00000000000E+00  0.00000000000E+00  0.21899628449E+03  0.21899628449E+03  0.00000000000E+00 0. -1.
         21   -1    0    0  501  502 -0.00000000000E+00 -0.00000000000E+00 -0.26615894227E+03  0.26615894227E+03  0.00000000000E+00 0. -1.
      99926    2    1    2    0    0  0.00000000000E+00  0.00000000000E+00 -0.47162657776E+02  0.48515522676E+03  0.48285740935E+03 0.  0.
      99925    2    3    3    0    0 -0.13125939207E+03 -0.20021068965E+02 -0.64916834804E+02  0.30187241221E+03  0.26321642540E+03 0.  0.
         25    1    4    4    0    0 -0.10706862047E+03 -0.17625230585E+02 -0.53075731233E+02  0.17389329943E+03  0.12509000000E+03 0.  0.
         25    1    3    3    0    0  0.13125939207E+03  0.20021068965E+02  0.17754177029E+02  0.18328281455E+03  0.12509000000E+03 0.  0.
         25    1    4    4    0    0 -0.24190771598E+02 -0.23958383805E+01 -0.11841103571E+02  0.12797911277E+03  0.12509000000E+03 0.  0.
<mgrwt>
<rscale>  2 0.48285741E+03</rscale>
<asrwt>0</asrwt>
<pdfrwt beam="1">  1       21 0.32205336E-01 0.48285741E+03</pdfrwt>
<pdfrwt beam="2">  1       21 0.39141021E-01 0.48285741E+03</pdfrwt>
<totfact> 0.53478782E+04</totfact>
</mgrwt>
</event>
<event>
 7    0  0.4732500E-002  0.4625975E+03  0.7546771E-02  0.1024031E+00
         21   -1    0    0  502  501  0.00000000000E+00  0.00000000000E+00  0.27902119938E+04  0.27902119938E+04  0.00000000000E+00 0.  1.
         21   -1    0    0  501  502 -0.00000000000E+00 -0.00000000000E+00 -0.19173855113E+02  0.19173855113E+02  0.00000000000E+00 0.  1.
      99926    2    1    2    0    0  0.00000000000E+00  0.71054273576E-14  0.27710381387E+04  0.28093858490E+04  0.46259753784E+03 0.  0.
      99925    2    3    3    0    0 -0.11118161246E+03  0.43239704258E+02  0.18157339538E+04  0.18385693798E+04  0.26309038431E+03 0.  0.
         25    1    3    3    0    0  0.11118161246E+03 -0.43239704258E+02  0.95530418495E+03  0.97081646920E+03  0.12509000000E+03 0.  0.
         25    1    4    4    0    0 -0.83687504838E+02 -0.53422375687E+01  0.86362411072E+03  0.87665628994E+03  0.12509000000E+03 0.  0.
         25    1    4    4    0    0 -0.27494107627E+02  0.48581941827E+02  0.95210984306E+03  0.96191308982E+03  0.12509000000E+03 0.  0.
<mgrwt>
<rscale>  2 0.46259754E+03</rscale>
<asrwt>0</asrwt>
<pdfrwt beam="1">  1       21 0.41032501E+00 0.46259754E+03</pdfrwt>
<pdfrwt beam="2">  1       21 0.28196865E-02 0.46259754E+03</pdfrwt>
<totfact> 0.42024107E+03</totfact>
</mgrwt>
</event>
<event>
 7    0  0.4732500E-002  0.4549690E+03  0.7546771E-02  0.1026251E+00
         21   -1    0    0  502  501  0.00000000000E+00  0.00000000000E+00  0.21885604393E+03  0.21885604393E+03  0.00000000000E+00 0. -1.
         21   -1    0    0  501  502 -0.00000000000E+00 -0.00000000000E+00 -0.23645309969E+03  0.23645309969E+03  0.00000000000E+00 0. -1.
      99926    2    1    2    0    0  0.00000000000E+00 -0.71054273576E-14 -0.17597055754E+02  0.45530914362E+03  0.45496896586E+03 0.  0.
      99925    2    3    3    0    0  0.37445151895E+02  0.30600567268E+02 -0.11343683316E+03  0.29047193559E+03  0.26299714092E+03 0.  0.
         25    1    4    4    0    0 -0.84002514964E+01 -0.11742360302E+02 -0.37503419258E+02  0.13138668809E+03  0.12509000000E+03 0.  0.
         25    1    4    4    0    0  0.45845403392E+02  0.42342927570E+02 -0.75933413897E+02  0.15908524750E+03  0.12509000000E+03 0.  0.
         25    1    3    3    0    0 -0.37445151895E+02 -0.30600567268E+02  0.95839777402E+02  0.16483720803E+03  0.12509000000E+03 0.  0.
<mgrwt>
<rscale>  2 0.45496897E+03</rscale>
<asrwt>0</asrwt>
<pdfrwt beam="1">  1       21 0.32184712E-01 0.45496897E+03</pdfrwt>
<pdfrwt beam="2">  1       21 0.34772515E-01 0.45496897E+03</pdfrwt>
<totfact> 0.68540139E+04</totfact>
</mgrwt>
</event>
<event>
 7    0  0.4732500E-002  0.4465060E+03  0.7546771E-02  0.1028769E+00
         21   -1    0    0  502  501  0.00000000000E+00  0.00000000000E+00  0.15763757054E+03  0.15763757054E+03  0.00000000000E+00 0. -1.
         21   -1    0    0  501  502 -0.00000000000E+00 -0.00000000000E+00 -0.31618037978E+03  0.31618037978E+03  0.00000000000E+00 0. -1.
      99926    2    1    2    0    0  0.00000000000E+00  0.28865798640E-14 -0.15854280924E+03  0.47381795032E+03  0.44650602201E+03 0.  0.
      99925    2    3    3    0    0  0.10327888019E+03 -0.15235643241E+01 -0.12051838267E+03  0.30719798316E+03  0.26301534548E+03 0.  0.
         25    1    3    3    0    0 -0.10327888019E+03  0.15235643241E+01 -0.38024426569E+02  0.16661996716E+03  0.12509000000E+03 0.  0.
         25    1    4    4    0    0  0.62871074579E+02  0.37840392375E+02 -0.54574413795E+02  0.15495335445E+03  0.12509000000E+03 0.  0.
         25    1    4    4    0    0  0.40407805608E+02 -0.39363956699E+02 -0.65943968875E+02  0.15224462871E+03  0.12509000000E+03 0.  0.
<mgrwt>
<rscale>  2 0.44650602E+03</rscale>
<asrwt>0</asrwt>
<pdfrwt beam="1">  1       21 0.23181996E-01 0.44650602E+03</pdfrwt>
<pdfrwt beam="2">  1       21 0.46497115E-01 0.44650602E+03</pdfrwt>
<totfact> 0.71877871E+04</totfact>
</mgrwt>
</event>
<event>
 7    0  0.4732500E-002  0.4500272E+03  0.7546771E-02  0.1027714E+00
         21   -1    0    0  502  501  0.00000000000E+00  0.00000000000E+00  0.47680596174E+03  0.47680596174E+03  0.00000000000E+00 0. -1.
         21   -1    0    0  501  502 -0.00000000000E+00 -0.00000000000E+00 -0.10618809913E+03  0.10618809913E+03  0.00000000000E+00 0. -1.
      99926    2    1    2    0    0  0.00000000000E+00 -0.71054273576E-14  0.37061786260E+03  0.58299406087E+03  0.45002719354E+03 0.  0.
      99925    2    3    3    0    0  0.50293337584E+02  0.35444702080E+02  0.11844860614E+03  0.29485765443E+03  0.26291674988E+03 0.  0.
         25    1    4    4    0    0 -0.75105394517E+01 -0.45852544873E+01  0.41858789684E+02  0.13220098008E+03  0.12509000000E+03 0.  0.
         25    1    4    4    0    0  0.57803877036E+02  0.40029956568E+02  0.76589816457E+02  0.16265667434E+03  0.12509000000E+03 0.  0.
         25    1    3    3    0    0 -0.50293337584E+02 -0.35444702080E+02  0.25216925646E+03  0.28813640644E+03  0.12509000000E+03 0.  0.
<mgrwt>
<rscale>  2 0.45002719E+03</rscale>
<asrwt>0</asrwt>
<pdfrwt beam="1">  1       21 0.70118523E-01 0.45002719E+03</pdfrwt>
<pdfrwt beam="2">  1       21 0.15615897E-01 0.45002719E+03</pdfrwt>
<totfact> 0.62144517E+04</totfact>
</mgrwt>
</event>
<event>
 7    0  0.4732500E-002  0.4526326E+03  0.7546771E-02  0.1026940E+00
         21   -1    0    0  502  501  0.00000000000E+00  0.00000000000E+00  0.92694835881E+03  0.92694835881E+03  0.00000000000E+00 0. -1.
         21   -1    0    0  501  502 -0.00000000000E+00 -0.00000000000E+00 -0.55255573424E+02  0.55255573424E+02  0.00000000000E+00 0. -1.
      99926    2    1    2    0    0  0.71054273576E-14  0.00000000000E+00  0.87169278538E+03  0.98220393223E+03  0.45263257992E+03 0.  0.
      99925    2    3    3    0    0  0.63321477855E+02 -0.12354419290E+02  0.74548564918E+03  0.79315898900E+03  0.26304008718E+03 0.  0.
         25    1    4    4    0    0  0.65544666705E+02 -0.11315851432E+01  0.46169064850E+03  0.48280756708E+03  0.12509000000E+03 0.  0.
         25    1    4    4    0    0 -0.22231888505E+01 -0.11222834146E+02  0.28379500068E+03  0.31035142191E+03  0.12509000000E+03 0.  0.
         25    1    3    3    0    0 -0.63321477855E+02  0.12354419290E+02  0.12620713621E+03  0.18904494324E+03  0.12509000000E+03 0.  0.
<mgrwt>
<rscale>  2 0.45263258E+03</rscale>
<asrwt>0</asrwt>
<pdfrwt beam="1">  1       21 0.13631592E+00 0.45263258E+03</pdfrwt>
<pdfrwt beam="2">  1       21 0.81258202E-02 0.45263258E+03</pdfrwt>
<totfact> 0.40609666E+04</totfact>
</mgrwt>
</event>
<event>
 7    0  0.4732500E-002  0.4539571E+03  0.7546771E-02  0.1026549E+00
         21   -1    0    0  502  501  0.00000000000E+00  0.00000000000E+00  0.20257679028E+03  0.20257679028E+03  0.00000000000E+00 0. -1.
         21   -1    0    0  501  502 -0.00000000000E+00 -0.00000000000E+00 -0.25431971827E+03  0.25431971827E+03  0.00000000000E+00 0. -1.
      99926    2    1    2    0    0  0.00000000000E+00  0.00000000000E+00 -0.51742927991E+02  0.45689650855E+03  0.45395714437E+03 0.  0.
      99925    2    3    3    0    0 -0.63715570483E+02 -0.52577062964E+02  0.43234784762E+02  0.27943582137E+03  0.26342192426E+03 0.  0.
         25    1    4    4    0    0 -0.17536076736E+02 -0.42500877610E+02 -0.13949657298E+02  0.13399977471E+03  0.12509000000E+03 0.  0.
         25    1    3    3    0    0  0.63715570483E+02  0.52577062964E+02 -0.94977712753E+02  0.17746068717E+03  0.12509000000E+03 0.  0.
         25    1    4    4    0    0 -0.46179493748E+02 -0.10076185354E+02  0.57184442060E+02  0.14543604666E+03  0.12509000000E+03 0.  0.
<mgrwt>
<rscale>  2 0.45395714E+03</rscale>
<asrwt>0</asrwt>
<pdfrwt beam="1">  1       21 0.29790705E-01 0.45395714E+03</pdfrwt>
<pdfrwt beam="2">  1       21 0.37399958E-01 0.45395714E+03</pdfrwt>
<totfact> 0.68979149E+04</totfact>
</mgrwt>
</event>
<event>
 7    0  0.4732500E-002  0.4482249E+03  0.7546771E-02  0.1028253E+00
         21   -1    0    0  502  501  0.00000000000E+00  0.00000000000E+00  0.18979478785E+04  0.18979478785E+04  0.00000000000E+00 0.  1.
         21   -1    0    0  501  502 -0.00000000000E+00 -0.00000000000E+00 -0.26463519629E+02  0.26463519629E+02  0.00000000000E+00 0.  1.
      99926    2    1    2    0    0  0.00000000000E+00  0.00000000000E+00  0.18714843589E+04  0.19244113982E+04  0.44822485848E+03 0.  0.
      99925    2    3    3    0    0  0.10522266826E+02  0.77760173042E+02  0.87456310089E+03  0.91661337009E+03  0.26298686312E+03 0.  0.
         25    1    3    3    0    0 -0.10522266826E+02 -0.77760173042E+02  0.99692125802E+03  0.10077980281E+04  0.12509000000E+03 0.  0.
         25    1    4    4    0    0 -0.16694310055E+01  0.45521547871E+02  0.31079193727E+03  0.33810373363E+03  0.12509000000E+03 0.  0.
         25    1    4    4    0    0  0.12191697832E+02  0.32238625171E+02  0.56377116363E+03  0.57850963647E+03  0.12509000000E+03 0.  0.
<mgrwt>
<rscale>  2 0.44822486E+03</rscale>
<asrwt>0</asrwt>
<pdfrwt beam="1">  1       21 0.27910989E+00 0.44822486E+03</pdfrwt>
<pdfrwt beam="2">  1       21 0.38916953E-02 0.44822486E+03</pdfrwt>
<totfact> 0.15797899E+04</totfact>
</mgrwt>
</event>
<event>
 7    0  0.4732500E-002  0.4522208E+03  0.7546771E-02  0.1027062E+00
         21   -1    0    0  502  501  0.00000000000E+00  0.00000000000E+00  0.41346408378E+03  0.41346408378E+03  0.00000000000E+00 0.  1.
         21   -1    0    0  501  502 -0.00000000000E+00 -0.00000000000E+00 -0.12365259023E+03  0.12365259023E+03  0.00000000000E+00 0.  1.
      99926    2    1    2    0    0  0.00000000000E+00  0.00000000000E+00  0.28981149355E+03  0.53711667401E+03  0.45222076435E+03 0.  0.
      99925    2    3    3    0    0  0.72079967142E+02 -0.64979967650E+02  0.24614687310E+03  0.37288505392E+03  0.26274904841E+03 0.  0.
         25    1    3    3    0    0 -0.72079967142E+02  0.64979967650E+02  0.43664620447E+02  0.16423162009E+03  0.12509000000E+03 0.  0.
         25    1    4    4    0    0  0.56791372362E+02 -0.48298650996E+02  0.88631505720E+02  0.17047308165E+03  0.12509000000E+03 0.  0.
         25    1    4    4    0    0  0.15288594779E+02 -0.16681316654E+02  0.15751536738E+03  0.20241197227E+03  0.12509000000E+03 0.  0.
<mgrwt>
<rscale>  2 0.45222076E+03</rscale>
<asrwt>0</asrwt>
<pdfrwt beam="1">  1       21 0.60803541E-01 0.45222076E+03</pdfrwt>
<pdfrwt beam="2">  1       21 0.18184205E-01 0.45222076E+03</pdfrwt>
<totfact> 0.64124868E+04</totfact>
</mgrwt>
</event>
<event>
 7    0  0.4732500E-002  0.4513080E+03  0.7546771E-02  0.1027333E+00
         21   -1    0    0  502  501  0.00000000000E+00  0.00000000000E+00  0.69470761338E+03  0.69470761338E+03  0.00000000000E+00 0.  1.
         21   -1    0    0  501  502 -0.00000000000E+00 -0.00000000000E+00 -0.73296646536E+02  0.73296646536E+02  0.00000000000E+00 0.  1.
      99926    2    1    2    0    0  0.00000000000E+00  0.71054273576E-14  0.62141096684E+03  0.76800425992E+03  0.45130804727E+03 0.  0.
      99925    2    3    3    0    0 -0.50573993800E+02 -0.32577786196E+02  0.54840743756E+03  0.61117293527E+03  0.26298782906E+03 0.  0.
         25    1    3    3    0    0  0.50573993800E+02  0.32577786196E+02  0.73003529281E+02  0.15683132464E+03  0.12509000000E+03 0.  0.
         25    1    4    4    0    0 -0.16118746799E+02 -0.55540107146E+01  0.18172198059E+03  0.22127143368E+03  0.12509000000E+03 0.  0.
         25    1    4    4    0    0 -0.34455247001E+02 -0.27023775481E+02  0.36668545697E+03  0.38990150159E+03  0.12509000000E+03 0.  0.
<mgrwt>
<rscale>  2 0.45130805E+03</rscale>
<asrwt>0</asrwt>
<pdfrwt beam="1">  1       21 0.10216288E+00 0.45130805E+03</pdfrwt>
<pdfrwt beam="2">  1       21 0.10778919E-01 0.45130805E+03</pdfrwt>
<totfact> 0.50807894E+04</totfact>
</mgrwt>
</event>
<event>
 7    0  0.4732500E-002  0.4605142E+03  0.7546771E-02  0.1024632E+00
         21   -1    0    0  502  501  0.00000000000E+00  0.00000000000E+00  0.16481684522E+04  0.16481684522E+04  0.00000000000E+00 0.  1.
         21   -1    0    0  501  502 -0.00000000000E+00 -0.00000000000E+00 -0.32168034567E+02  0.32168034567E+02  0.00000000000E+00 0.  1.
      99926    2    1    2    0    0  0.00000000000E+00  0.00000000000E+00  0.16160004176E+04  0.16803364868E+04  0.46051423319E+03 0.  0.
      99925    2    3    3    0    0  0.51933786291E+02 -0.45564937261E+02  0.13621712008E+04  0.13890461486E+04  0.26299342409E+03 0.  0.
         25    1    4    4    0    0  0.50832243821E+02 -0.56415937518E+02  0.72548168822E+03  0.74009314486E+03  0.12509000000E+03 0.  0.
         25    1    3    3    0    0 -0.51933786291E+02  0.45564937261E+02  0.25382921687E+03  0.29129033816E+03  0.12509000000E+03 0.  0.
         25    1    4    4    0    0  0.11015424695E+01  0.10851000257E+02  0.63668951253E+03  0.64895300374E+03  0.12509000000E+03 0.  0.
<mgrwt>
<rscale>  2 0.46051423E+03</rscale>
<asrwt>0</asrwt>
<pdfrwt beam="1">  1       21 0.24237766E+00 0.46051423E+03</pdfrwt>
<pdfrwt beam="2">  1       21 0.47305944E-02 0.46051423E+03</pdfrwt>
<totfact> 0.18853659E+04</totfact>
</mgrwt>
</event>
<event>
 7    0  0.4732500E-002  0.4492007E+03  0.7546771E-02  0.1027961E+00
         21   -1    0    0  502  501  0.00000000000E+00  0.00000000000E+00  0.23580960958E+03  0.23580960958E+03  0.00000000000E+00 0.  1.
         21   -1    0    0  501  502 -0.00000000000E+00 -0.00000000000E+00 -0.21392391334E+03  0.21392391334E+03  0.00000000000E+00 0.  1.
      99926    2    1    2    0    0  0.00000000000E+00  0.00000000000E+00  0.21885696242E+02  0.44973352292E+03  0.44920068782E+03 0.  0.
      99925    2    3    3    0    0  0.18072645424E+02  0.69394266088E+02 -0.66464885898E+02  0.28063142908E+03  0.26304796758E+03 0.  0.
         25    1    4    4    0    0  0.59001107906E+01  0.76327925785E+02 -0.39882201357E+02  0.15198309658E+03  0.12509000000E+03 0.  0.
         25    1    3    3    0    0 -0.18072645424E+02 -0.69394266088E+02  0.88350582141E+02  0.16910209385E+03  0.12509000000E+03 0.  0.
         25    1    4    4    0    0  0.12172534633E+02 -0.69336596971E+01 -0.26582684542E+02  0.12864833249E+03  0.12509000000E+03 0.  0.
<mgrwt>
<rscale>  2 0.44920069E+03</rscale>
<asrwt>0</asrwt>
<pdfrwt beam="1">  1       21 0.34677884E-01 0.44920069E+03</pdfrwt>
<pdfrwt beam="2">  1       21 0.31459399E-01 0.44920069E+03</pdfrwt>
<totfact> 0.72217614E+04</totfact>
</mgrwt>
</event>
<event>
 7    0  0.4732500E-002  0.4541502E+03  0.7546771E-02  0.1026492E+00
         21   -1    0    0  502  501  0.00000000000E+00  0.00000000000E+00  0.56696833398E+03  0.56696833398E+03  0.00000000000E+00 0.  1.
         21   -1    0    0  501  502 -0.00000000000E+00 -0.00000000000E+00 -0.90945276650E+02  0.90945276650E+02  0.00000000000E+00 0.  1.
      99926    2    1    2    0    0 -0.14210854715E-13 -0.35527136788E-14  0.47602305733E+03  0.65791361063E+03  0.45415016013E+03 0.  0.
      99925    2    3    3    0    0 -0.10042305392E+03  0.27628125560E+02  0.23876616497E+03  0.37018727511E+03  0.26302325760E+03 0.  0.
         25    1    3    3    0    0  0.10042305392E+03 -0.27628125560E+02  0.23725689236E+03  0.28772633552E+03  0.12509000000E+03 0.  0.
         25    1    4    4    0    0 -0.40832580160E+02  0.37531676116E+02  0.15987423221E+03  0.21043574920E+03  0.12509000000E+03 0.  0.
         25    1    4    4    0    0 -0.59590473761E+02 -0.99035505561E+01  0.78891932757E+02  0.15975152591E+03  0.12509000000E+03 0.  0.
<mgrwt>
<rscale>  2 0.45415016E+03</rscale>
<asrwt>0</asrwt>
<pdfrwt beam="1">  1       21 0.83377695E-01 0.45415016E+03</pdfrwt>
<pdfrwt beam="2">  1       21 0.13374306E-01 0.45415016E+03</pdfrwt>
<totfact> 0.55619505E+04</totfact>
</mgrwt>
</event>
<event>
 7    0  0.4732500E-002  0.4407373E+03  0.7546771E-02  0.1030521E+00
         21   -1    0    0  502  501  0.00000000000E+00  0.00000000000E+00  0.52125962633E+02  0.52125962633E+02  0.00000000000E+00 0.  1.
         21   -1    0    0  501  502 -0.00000000000E+00 -0.00000000000E+00 -0.93163450126E+03  0.93163450126E+03  0.00000000000E+00 0.  1.
      99926    2    1    2    0    0 -0.35527136788E-14  0.00000000000E+00 -0.87950853862E+03  0.98376046389E+03  0.44073731496E+03 0.  0.
      99925    2    3    3    0    0 -0.16931454301E+02  0.35778102612E+02 -0.35776476748E+03  0.44577271533E+03  0.26296565957E+03 0.  0.
         25    1    4    4    0    0  0.31406926267E+02  0.12554808463E+02 -0.18406480244E+03  0.22510303825E+03  0.12509000000E+03 0.  0.
         25    1    4    4    0    0 -0.48338380568E+02  0.23223294148E+02 -0.17369996503E+03  0.22066967707E+03  0.12509000000E+03 0.  0.
         25    1    3    3    0    0  0.16931454301E+02 -0.35778102612E+02 -0.52174377115E+03  0.53798774856E+03  0.12509000000E+03 0.  0.
<mgrwt>
<rscale>  2 0.44073731E+03</rscale>
<asrwt>0</asrwt>
<pdfrwt beam="1">  1       21 0.76655830E-02 0.44073731E+03</pdfrwt>
<pdfrwt beam="2">  1       21 0.13700507E+00 0.44073731E+03</pdfrwt>
<totfact> 0.44566279E+04</totfact>
</mgrwt>
</event>
<event>
 7    0  0.4732500E-002  0.4631404E+03  0.7546771E-02  0.1023874E+00
         21   -1    0    0  502  501  0.00000000000E+00  0.00000000000E+00  0.38793507667E+03  0.38793507667E+03  0.00000000000E+00 0.  1.
         21   -1    0    0  501  502 -0.00000000000E+00 -0.00000000000E+00 -0.13823125488E+03  0.13823125488E+03  0.00000000000E+00 0.  1.
      99926    2    1    2    0    0  0.00000000000E+00  0.00000000000E+00  0.24970382179E+03  0.52616633155E+03  0.46314037811E+03 0.  0.
      99925    2    3    3    0    0 -0.91099700091E+02 -0.13011046777E+02  0.67439827562E+02  0.28671672435E+03  0.26303974412E+03 0.  0.
         25    1    3    3    0    0  0.91099700091E+02  0.13011046777E+02  0.18226399423E+03  0.23944960720E+03  0.12509000000E+03 0.  0.
         25    1    4    4    0    0 -0.44731779062E+02 -0.12584995046E+02 -0.75891603215E+01  0.13365783783E+03  0.12509000000E+03 0.  0.
         25    1    4    4    0    0 -0.46367921029E+02 -0.42605173044E+00  0.75028987883E+02  0.15305888652E+03  0.12509000000E+03 0.  0.
<mgrwt>
<rscale>  2 0.46314038E+03</rscale>
<asrwt>0</asrwt>
<pdfrwt beam="1">  1       21 0.57049276E-01 0.46314038E+03</pdfrwt>
<pdfrwt beam="2">  1       21 0.20328126E-01 0.46314038E+03</pdfrwt>
<totfact> 0.59530562E+04</totfact>
</mgrwt>
</event>
<event>
 7    0  0.4732500E-002  0.4562841E+03  0.7546771E-02  0.1025864E+00
         21   -1    0    0  502  501  0.00000000000E+00  0.00000000000E+00  0.55059883069E+02  0.55059883069E+02  0.00000000000E+00 0. -1.
         21   -1    0    0  501  502 -0.00000000000E+00 -0.00000000000E+00 -0.94531241520E+03  0.94531241520E+03  0.00000000000E+00 0. -1.
      99926    2    1    2    0    0  0.00000000000E+00  0.00000000000E+00 -0.89025253213E+03  0.10003722983E+04  0.45628408276E+03 0.  0.
      99925    2    3    3    0    0 -0.58582234364E+02  0.80302465806E+02 -0.68398066538E+03  0.73945860504E+03  0.26284808116E+03 0.  0.
         25    1    4    4    0    0 -0.43719450738E+02  0.16518696298E+02 -0.41058361290E+03  0.43175301849E+03  0.12509000000E+03 0.  0.
         25    1    4    4    0    0 -0.14862783626E+02  0.63783769508E+02 -0.27339705248E+03  0.30770558655E+03  0.12509000000E+03 0.  0.
         25    1    3    3    0    0  0.58582234364E+02 -0.80302465806E+02 -0.20627186675E+03  0.26091369322E+03  0.12509000000E+03 0.  0.
<mgrwt>
<rscale>  2 0.45628408E+03</rscale>
<asrwt>0</asrwt>
<pdfrwt beam="1">  1       21 0.80970416E-02 0.45628408E+03</pdfrwt>
<pdfrwt beam="2">  1       21 0.13901653E+00 0.45628408E+03</pdfrwt>
<totfact> 0.38762137E+04</totfact>
</mgrwt>
</event>
<event>
 7    0  0.4732500E-002  0.4452208E+03  0.7546771E-02  0.1029157E+00
         21   -1    0    0  502  501  0.00000000000E+00  0.00000000000E+00  0.95895038944E+03  0.95895038944E+03  0.00000000000E+00 0. -1.
         21   -1    0    0  501  502 -0.00000000000E+00 -0.00000000000E+00 -0.51676700308E+02  0.51676700308E+02  0.00000000000E+00 0. -1.
      99926    2    1    2    0    0  0.35527136788E-14  0.00000000000E+00  0.90727368913E+03  0.10106270897E+04  0.44522080762E+03 0.  0.
      99925    2    3    3    0    0 -0.24397849203E+02 -0.97674943305E+02  0.51990169868E+03  0.59129402799E+03  0.26304980831E+03 0.  0.
         25    1    3    3    0    0  0.24397849203E+02  0.97674943305E+02  0.38737199045E+03  0.41933306176E+03  0.12509000000E+03 0.  0.
         25    1    4    4    0    0 -0.20261667732E+02 -0.64025022967E+02  0.34926488836E+03  0.37701884447E+03  0.12509000000E+03 0.  0.
         25    1    4    4    0    0 -0.41361814708E+01 -0.33649920338E+02  0.17063681032E+03  0.21427518352E+03  0.12509000000E+03 0.  0.
<mgrwt>
<rscale>  2 0.44522081E+03</rscale>
<asrwt>0</asrwt>
<pdfrwt beam="1">  1       21 0.14102210E+00 0.44522081E+03</pdfrwt>
<pdfrwt beam="2">  1       21 0.75995154E-02 0.44522081E+03</pdfrwt>
<totfact> 0.41862471E+04</totfact>
</mgrwt>
</event>
<event>
 7    0  0.4732500E-002  0.3935536E+03  0.7546771E-02  0.1046035E+00
         21   -1    0    0  502  501  0.00000000000E+00  0.00000000000E+00  0.30133884880E+03  0.30133884880E+03  0.00000000000E+00 0.  1.
         21   -1    0    0  501  502 -0.00000000000E+00 -0.00000000000E+00 -0.12849692845E+03  0.12849692845E+03  0.00000000000E+00 0.  1.
      99926    2    1    2    0    0  0.00000000000E+00  0.00000000000E+00  0.17284192035E+03  0.42983577725E+03  0.39355363799E+03 0.  0.
      99925    2    3    3    0    0  0.17808994790E+02  0.10662138756E+02  0.91403732282E+02  0.27913565093E+03  0.26292818002E+03 0.  0.
         25    1    4    4    0    0  0.34010638642E+01  0.21741461341E+01  0.87800527157E+02  0.15288144039E+03  0.12509000000E+03 0.  0.
         25    1    3    3    0    0 -0.17808994790E+02 -0.10662138756E+02  0.81438188064E+02  0.15070012632E+03  0.12509000000E+03 0.  0.
         25    1    4    4    0    0  0.14407930925E+02  0.84879926218E+01  0.36032051250E+01  0.12625421054E+03  0.12509000000E+03 0.  0.
<mgrwt>
<rscale>  2 0.39355364E+03</rscale>
<asrwt>0</asrwt>
<pdfrwt beam="1">  1       21 0.44314537E-01 0.39355364E+03</pdfrwt>
<pdfrwt beam="2">  1       21 0.18896607E-01 0.39355364E+03</pdfrwt>
<totfact> 0.11869266E+05</totfact>
</mgrwt>
</event>
<event>
 7    0  0.4732500E-002  0.4611568E+03  0.7546771E-02  0.1024446E+00
         21   -1    0    0  502  501  0.00000000000E+00  0.00000000000E+00  0.51705237451E+03  0.51705237451E+03  0.00000000000E+00 0.  1.
         21   -1    0    0  501  502 -0.00000000000E+00 -0.00000000000E+00 -0.10282595245E+03  0.10282595245E+03  0.00000000000E+00 0.  1.
      99926    2    1    2    0    0  0.14210854715E-13  0.00000000000E+00  0.41422642206E+03  0.61987832696E+03  0.46115681878E+03 0.  0.
      99925    2    3    3    0    0  0.76208988534E+02  0.82106490819E+02  0.31298123713E+03  0.42379828886E+03  0.26286583856E+03 0.  0.
         25    1    4    4    0    0  0.59912379295E+02  0.17003756559E+02  0.11974765656E+03  0.18402616738E+03  0.12509000000E+03 0.  0.
         25    1    3    3    0    0 -0.76208988534E+02 -0.82106490819E+02  0.10124518493E+03  0.19608003810E+03  0.12509000000E+03 0.  0.
         25    1    4    4    0    0  0.16296609238E+02  0.65102734260E+02  0.19323358057E+03  0.23977212148E+03  0.12509000000E+03 0.  0.
<mgrwt>
<rscale>  2 0.46115682E+03</rscale>
<asrwt>0</asrwt>
<pdfrwt beam="1">  1       21 0.76037113E-01 0.46115682E+03</pdfrwt>
<pdfrwt beam="2">  1       21 0.15121464E-01 0.46115682E+03</pdfrwt>
<totfact> 0.54759733E+04</totfact>
</mgrwt>
</event>
<event>
 7    0  0.4732500E-002  0.4320760E+03  0.7546771E-02  0.1033206E+00
         21   -1    0    0  502  501  0.00000000000E+00  0.00000000000E+00  0.56189386546E+03  0.56189386546E+03  0.00000000000E+00 0. -1.
         21   -1    0    0  501  502 -0.00000000000E+00 -0.00000000000E+00 -0.83062691283E+02  0.83062691283E+02  0.00000000000E+00 0. -1.
      99926    2    1    2    0    0  0.00000000000E+00  0.71054273576E-14  0.47883117418E+03  0.64495655675E+03  0.43207599647E+03 0.  0.
      99925    2    3    3    0    0  0.32015901754E+02 -0.45268895605E+02  0.41377372826E+03  0.49344988942E+03  0.26307756327E+03 0.  0.
         25    1    4    4    0    0  0.15582846970E+02  0.41600861179E+01  0.14306932808E+03  0.19072617065E+03  0.12509000000E+03 0.  0.
         25    1    4    4    0    0  0.16433054784E+02 -0.49428981722E+02  0.27070440019E+03  0.30272371877E+03  0.12509000000E+03 0.  0.
         25    1    3    3    0    0 -0.32015901754E+02  0.45268895605E+02  0.65057445915E+02  0.15150666732E+03  0.12509000000E+03 0.  0.
<mgrwt>
<rscale>  2 0.43207600E+03</rscale>
<asrwt>0</asrwt>
<pdfrwt beam="1">  1       21 0.82631449E-01 0.43207600E+03</pdfrwt>
<pdfrwt beam="2">  1       21 0.12215102E-01 0.43207600E+03</pdfrwt>
<totfact> 0.67371018E+04</totfact>
</mgrwt>
</event>
<event>
 7    0  0.4732500E-002  0.4336164E+03  0.7546771E-02  0.1032724E+00
         21   -1    0    0  502  501  0.00000000000E+00  0.00000000000E+00  0.77395408676E+03  0.77395408676E+03  0.00000000000E+00 0. -1.
         21   -1    0    0  501  502 -0.00000000000E+00 -0.00000000000E+00 -0.60734608742E+02  0.60734608742E+02  0.00000000000E+00 0. -1.
      99926    2    1    2    0    0  0.00000000000E+00  0.00000000000E+00  0.71321947801E+03  0.83468869550E+03  0.43361641410E+03 0.  0.
      99925    2    3    3    0    0 -0.27109693334E+02 -0.87466115207E+02  0.45125761535E+03  0.53029292948E+03  0.26304353035E+03 0.  0.
         25    1    4    4    0    0 -0.17958024492E+02 -0.75379785824E+02  0.29411262579E+03  0.32886828291E+03  0.12509000000E+03 0.  0.
         25    1    4    4    0    0 -0.91516688419E+01 -0.12086329383E+02  0.15714498956E+03  0.20142464656E+03  0.12509000000E+03 0.  0.
         25    1    3    3    0    0  0.27109693334E+02  0.87466115207E+02  0.26196186266E+03  0.30439576602E+03  0.12509000000E+03 0.  0.
<mgrwt>
<rscale>  2 0.43361641E+03</rscale>
<asrwt>0</asrwt>
<pdfrwt beam="1">  1       21 0.11381677E+00 0.43361641E+03</pdfrwt>
<pdfrwt beam="2">  1       21 0.89315606E-02 0.43361641E+03</pdfrwt>
<totfact> 0.54756659E+04</totfact>
</mgrwt>
</event>
<event>
 7    0  0.4732500E-002  0.4029369E+03  0.7546771E-02  0.1042767E+00
         21   -1    0    0  502  501  0.00000000000E+00  0.00000000000E+00  0.28768449594E+02  0.28768449594E+02  0.00000000000E+00 0.  1.
         21   -1    0    0  501  502 -0.00000000000E+00 -0.00000000000E+00 -0.14109044406E+04  0.14109044406E+04  0.00000000000E+00 0.  1.
      99926    2    1    2    0    0  0.00000000000E+00  0.00000000000E+00 -0.13821359910E+04  0.14396728902E+04  0.40293688480E+03 0.  0.
      99925    2    3    3    0    0  0.16056554769E+02  0.19692627425E+02 -0.10794921421E+04  0.11112122078E+04  0.26238077920E+03 0.  0.
         25    1    3    3    0    0 -0.16056554769E+02 -0.19692627425E+02 -0.30264384894E+03  0.32846068247E+03  0.12509000000E+03 0.  0.
         25    1    4    4    0    0  0.26143057205E+02  0.20008916742E+02 -0.40532933137E+03  0.42546820229E+03  0.12509000000E+03 0.  0.
         25    1    4    4    0    0 -0.10086502435E+02 -0.31628931715E+00 -0.67416281072E+03  0.68574400546E+03  0.12509000000E+03 0.  0.
<mgrwt>
<rscale>  2 0.40293688E+03</rscale>
<asrwt>0</asrwt>
<pdfrwt beam="1">  1       21 0.42306528E-02 0.40293688E+03</pdfrwt>
<pdfrwt beam="2">  1       21 0.20748603E+00 0.40293688E+03</pdfrwt>
<totfact> 0.38763690E+04</totfact>
</mgrwt>
</event>
<event>
 7    0  0.4732500E-002  0.4566571E+03  0.7546771E-02  0.1025755E+00
         21   -1    0    0  502  501  0.00000000000E+00  0.00000000000E+00  0.41758774976E+03  0.41758774976E+03  0.00000000000E+00 0.  1.
         21   -1    0    0  501  502 -0.00000000000E+00 -0.00000000000E+00 -0.12484545208E+03  0.12484545208E+03  0.00000000000E+00 0.  1.
      99926    2    1    2    0    0  0.17763568394E-14  0.71054273576E-14  0.29274229769E+03  0.54243320184E+03  0.45665712039E+03 0.  0.
      99925    2    3    3    0    0 -0.14792138535E+02 -0.49847752267E+02  0.30532154287E+03  0.40638412512E+03  0.26310303464E+03 0.  0.
         25    1    4    4    0    0  0.15874843770E+02 -0.44554784520E+02  0.19648915766E+03  0.23768179708E+03  0.12509000000E+03 0.  0.
         25    1    4    4    0    0 -0.30666982305E+02 -0.52929677470E+01  0.10883238522E+03  0.16870232803E+03  0.12509000000E+03 0.  0.
         25    1    3    3    0    0  0.14792138535E+02  0.49847752267E+02 -0.12579245188E+02  0.13604907673E+03  0.12509000000E+03 0.  0.
<mgrwt>
<rscale>  2 0.45665712E+03</rscale>
<asrwt>0</asrwt>
<pdfrwt beam="1">  1       21 0.61409963E-01 0.45665712E+03</pdfrwt>
<pdfrwt beam="2">  1       21 0.18359625E-01 0.45665712E+03</pdfrwt>
<totfact> 0.61558093E+04</totfact>
</mgrwt>
</event>
<event>
 7    0  0.4732500E-002  0.4487518E+03  0.7546771E-02  0.1028095E+00
         21   -1    0    0  502  501  0.00000000000E+00  0.00000000000E+00  0.45938742304E+02  0.45938742304E+02  0.00000000000E+00 0.  1.
         21   -1    0    0  501  502 -0.00000000000E+00 -0.00000000000E+00 -0.10959061544E+04  0.10959061544E+04  0.00000000000E+00 0.  1.
      99926    2    1    2    0    0  0.14210854715E-13  0.00000000000E+00 -0.10499674121E+04  0.11418448967E+04  0.44875182637E+03 0.  0.
      99925    2    3    3    0    0  0.87768942432E+02  0.35842741439E+02 -0.79213742119E+03  0.83999741589E+03  0.26291800105E+03 0.  0.
         25    1    4    4    0    0  0.54918867592E+01  0.50066803199E+01 -0.39766273092E+03  0.41693930414E+03  0.12509000000E+03 0.  0.
         25    1    4    4    0    0  0.82277055673E+02  0.30836061119E+02 -0.39447469027E+03  0.42305811175E+03  0.12509000000E+03 0.  0.
         25    1    3    3    0    0 -0.87768942432E+02 -0.35842741439E+02 -0.25782999094E+03  0.30184748085E+03  0.12509000000E+03 0.  0.
<mgrwt>
<rscale>  2 0.44875183E+03</rscale>
<asrwt>0</asrwt>
<pdfrwt beam="1">  1       21 0.67556985E-02 0.44875183E+03</pdfrwt>
<pdfrwt beam="2">  1       21 0.16116264E+00 0.44875183E+03</pdfrwt>
<totfact> 0.35766153E+04</totfact>
</mgrwt>
</event>
<event>
 7    0  0.4732500E-002  0.4036433E+03  0.7546771E-02  0.1042525E+00
         21   -1    0    0  502  501  0.00000000000E+00  0.00000000000E+00  0.12818687982E+04  0.12818687982E+04  0.00000000000E+00 0. -1.
         21   -1    0    0  501  502 -0.00000000000E+00 -0.00000000000E+00 -0.31775466624E+02  0.31775466624E+02  0.00000000000E+00 0. -1.
      99926    2    1    2    0    0  0.00000000000E+00 -0.88817841970E-15  0.12500933315E+04  0.13136442648E+04  0.40364330398E+03 0.  0.
      99925    2    3    3    0    0  0.34911686435E+02 -0.64509587481E+01  0.70560706364E+03  0.75384676144E+03  0.26295089040E+03 0.  0.
         25    1    3    3    0    0 -0.34911686435E+02  0.64509587481E+01  0.54448626790E+03  0.55979750334E+03  0.12509000000E+03 0.  0.
         25    1    4    4    0    0  0.52627344134E+02 -0.22100019372E+02  0.39024861660E+03  0.41376266030E+03  0.12509000000E+03 0.  0.
         25    1    4    4    0    0 -0.17715657699E+02  0.15649060624E+02  0.31535844704E+03  0.34008410114E+03  0.12509000000E+03 0.  0.
<mgrwt>
<rscale>  2 0.40364330E+03</rscale>
<asrwt>0</asrwt>
<pdfrwt beam="1">  1       21 0.18851008E+00 0.40364330E+03</pdfrwt>
<pdfrwt beam="2">  1       21 0.46728636E-02 0.40364330E+03</pdfrwt>
<totfact> 0.43761661E+04</totfact>
</mgrwt>
</event>
<event>
 7    0  0.4732500E-002  0.4564599E+03  0.7546771E-02  0.1025813E+00
         21   -1    0    0  502  501  0.00000000000E+00  0.00000000000E+00  0.78345722704E+03  0.78345722704E+03  0.00000000000E+00 0. -1.
         21   -1    0    0  501  502 -0.00000000000E+00 -0.00000000000E+00 -0.66485961043E+02  0.66485961043E+02  0.00000000000E+00 0. -1.
      99926    2    1    2    0    0  0.00000000000E+00  0.14210854715E-13  0.71697126599E+03  0.84994318808E+03  0.45645988510E+03 0.  0.
      99925    2    3    3    0    0 -0.39884869496E+02  0.10723292059E+03  0.44442378595E+03  0.52897692965E+03  0.26308627578E+03 0.  0.
         25    1    4    4    0    0  0.62912441340E+01  0.27060478480E+02  0.24016408105E+03  0.27220974115E+03  0.12509000000E+03 0.  0.
         25    1    3    3    0    0  0.39884869496E+02 -0.10723292059E+03  0.27254748004E+03  0.32096625843E+03  0.12509000000E+03 0.  0.
         25    1    4    4    0    0 -0.46176113630E+02  0.80172442115E+02  0.20425970490E+03  0.25676718850E+03  0.12509000000E+03 0.  0.
<mgrwt>
<rscale>  2 0.45645989E+03</rscale>
<asrwt>0</asrwt>
<pdfrwt beam="1">  1       21 0.11521429E+00 0.45645989E+03</pdfrwt>
<pdfrwt beam="2">  1       21 0.97773477E-02 0.45645989E+03</pdfrwt>
<totfact> 0.44925214E+04</totfact>
</mgrwt>
</event>
<event>
 7    0  0.4732500E-002  0.4526620E+03  0.7546771E-02  0.1026931E+00
         21   -1    0    0  502  501  0.00000000000E+00  0.00000000000E+00  0.20792577687E+04  0.20792577687E+04  0.00000000000E+00 0. -1.
         21   -1    0    0  501  502 -0.00000000000E+00 -0.00000000000E+00 -0.24636541397E+02  0.24636541397E+02  0.00000000000E+00 0. -1.
      99926    2    1    2    0    0  0.88817841970E-15  0.00000000000E+00  0.20546212273E+04  0.21038943101E+04  0.45266199351E+03 0.  0.
      99925    2    3    3    0    0 -0.31930192068E+01 -0.34555572735E+02  0.17856442784E+04  0.18052299666E+04  0.26291721142E+03 0.  0.
         25    1    3    3    0    0  0.31930192068E+01  0.34555572735E+02  0.26897694882E+03  0.29866434349E+03  0.12509000000E+03 0.  0.
         25    1    4    4    0    0  0.11153801338E+02 -0.43863870007E+02  0.11046681016E+04  0.11126488975E+04  0.12509000000E+03 0.  0.
         25    1    4    4    0    0 -0.14346820545E+02  0.93082972717E+01  0.68097617684E+03  0.69258106903E+03  0.12509000000E+03 0.  0.
<mgrwt>
<rscale>  2 0.45266199E+03</rscale>
<asrwt>0</asrwt>
<pdfrwt beam="1">  1       21 0.30577308E+00 0.45266199E+03</pdfrwt>
<pdfrwt beam="2">  1       21 0.36230222E-02 0.45266199E+03</pdfrwt>
<totfact> 0.12308592E+04</totfact>
</mgrwt>
</event>
<event>
 7    0  0.4732500E-002  0.4588835E+03  0.7546771E-02  0.1025106E+00
         21   -1    0    0  502  501  0.00000000000E+00  0.00000000000E+00  0.16998214947E+03  0.16998214947E+03  0.00000000000E+00 0.  1.
         21   -1    0    0  501  502 -0.00000000000E+00 -0.00000000000E+00 -0.30970032031E+03  0.30970032031E+03  0.00000000000E+00 0.  1.
      99926    2    1    2    0    0  0.00000000000E+00  0.00000000000E+00 -0.13971817084E+03  0.47968246978E+03  0.45888354139E+03 0.  0.
      99925    2    3    3    0    0 -0.11097726193E+03  0.34584350876E+02 -0.89231496226E+02  0.30161382458E+03  0.26362209556E+03 0.  0.
         25    1    4    4    0    0 -0.18434436046E+02  0.37606042074E+02 -0.31526980503E+02  0.13563001671E+03  0.12509000000E+03 0.  0.
         25    1    3    3    0    0  0.11097726193E+03 -0.34584350876E+02 -0.50486674609E+02  0.17806864520E+03  0.12509000000E+03 0.  0.
         25    1    4    4    0    0 -0.92542825887E+02 -0.30216911976E+01 -0.57704515723E+02  0.16598380787E+03  0.12509000000E+03 0.  0.
<mgrwt>
<rscale>  2 0.45888354E+03</rscale>
<asrwt>0</asrwt>
<pdfrwt beam="1">  1       21 0.24997375E-01 0.45888354E+03</pdfrwt>
<pdfrwt beam="2">  1       21 0.45544165E-01 0.45888354E+03</pdfrwt>
<totfact> 0.64705710E+04</totfact>
</mgrwt>
</event>
<event>
 7    0  0.4732500E-002  0.4438451E+03  0.7546771E-02  0.1029574E+00
         21   -1    0    0  502  501  0.00000000000E+00  0.00000000000E+00  0.13290377015E+04  0.13290377015E+04  0.00000000000E+00 0. -1.
         21   -1    0    0  501  502 -0.00000000000E+00 -0.00000000000E+00 -0.37056597453E+02  0.37056597453E+02  0.00000000000E+00 0. -1.
      99926    2    1    2    0    0  0.00000000000E+00  0.00000000000E+00  0.12919811040E+04  0.13660942989E+04  0.44384508605E+03 0.  0.
      99925    2    3    3    0    0 -0.59721887846E+02 -0.67956812567E+02  0.96906835449E+03  0.10081767328E+04  0.26294869565E+03 0.  0.
         25    1    3    3    0    0  0.59721887846E+02  0.67956812567E+02  0.32291274955E+03  0.35791756618E+03  0.12509000000E+03 0.  0.
         25    1    4    4    0    0 -0.14324510587E+02  0.46325221028E+01  0.40991873326E+03  0.42884440983E+03  0.12509000000E+03 0.  0.
         25    1    4    4    0    0 -0.45397377259E+02 -0.72589334670E+02  0.55914962122E+03  0.57933232292E+03  0.12509000000E+03 0.  0.
<mgrwt>
<rscale>  2 0.44384509E+03</rscale>
<asrwt>0</asrwt>
<pdfrwt beam="1">  1       21 0.19544669E+00 0.44384509E+03</pdfrwt>
<pdfrwt beam="2">  1       21 0.54495005E-02 0.44384509E+03</pdfrwt>
<totfact> 0.29746447E+04</totfact>
</mgrwt>
</event>
<event>
 7    0  0.4732500E-002  0.4528114E+03  0.7546771E-02  0.1026887E+00
         21   -1    0    0  502  501  0.00000000000E+00  0.00000000000E+00  0.12658930832E+03  0.12658930832E+03  0.00000000000E+00 0. -1.
         21   -1    0    0  501  502 -0.00000000000E+00 -0.00000000000E+00 -0.40492795651E+03  0.40492795651E+03  0.00000000000E+00 0. -1.
      99926    2    1    2    0    0  0.00000000000E+00 -0.71054273576E-14 -0.27833864819E+03  0.53151726483E+03  0.45281143949E+03 0.  0.
      99925    2    3    3    0    0 -0.10255881271E+03 -0.42451259033E+02 -0.18127283452E+03  0.33815310129E+03  0.26299669184E+03 0.  0.
         25    1    4    4    0    0 -0.29589905097E+02 -0.51053406896E+02 -0.10886608410E+03  0.17601518459E+03  0.12509000000E+03 0.  0.
         25    1    4    4    0    0 -0.72968907610E+02  0.86021478636E+01 -0.72406750421E+02  0.16213791670E+03  0.12509000000E+03 0.  0.
         25    1    3    3    0    0  0.10255881271E+03  0.42451259033E+02 -0.97065813672E+02  0.19336416354E+03  0.12509000000E+03 0.  0.
<mgrwt>
<rscale>  2 0.45281144E+03</rscale>
<asrwt>0</asrwt>
<pdfrwt beam="1">  1       21 0.18616075E-01 0.45281144E+03</pdfrwt>
<pdfrwt beam="2">  1       21 0.59548229E-01 0.45281144E+03</pdfrwt>
<totfact> 0.64209782E+04</totfact>
</mgrwt>
</event>
<event>
 7    0  0.4732500E-002  0.4528214E+03  0.7546771E-02  0.1026884E+00
         21   -1    0    0  502  501  0.00000000000E+00  0.00000000000E+00  0.70165331494E+02  0.70165331494E+02  0.00000000000E+00 0. -1.
         21   -1    0    0  501  502 -0.00000000000E+00 -0.00000000000E+00 -0.73058598841E+03  0.73058598841E+03  0.00000000000E+00 0. -1.
      99926    2    1    2    0    0  0.00000000000E+00  0.35527136788E-14 -0.66042065692E+03  0.80075131990E+03  0.45282141319E+03 0.  0.
      99925    2    3    3    0    0 -0.10964990994E+03  0.17464727637E+02 -0.42385184989E+03  0.51102657464E+03  0.26300123550E+03 0.  0.
         25    1    4    4    0    0 -0.49932902425E+02 -0.20746810064E+02 -0.15693106998E+03  0.20784271384E+03  0.12509000000E+03 0.  0.
         25    1    3    3    0    0  0.10964990994E+03 -0.17464727637E+02 -0.23656880703E+03  0.28972474526E+03  0.12509000000E+03 0.  0.
         25    1    4    4    0    0 -0.59717007511E+02  0.38211537702E+02 -0.26692077991E+03  0.30318386080E+03  0.12509000000E+03 0.  0.
<mgrwt>
<rscale>  2 0.45282141E+03</rscale>
<asrwt>0</asrwt>
<pdfrwt beam="1">  1       21 0.10318430E-01 0.45282141E+03</pdfrwt>
<pdfrwt beam="2">  1       21 0.10743912E+00 0.45282141E+03</pdfrwt>
<totfact> 0.48553297E+04</totfact>
</mgrwt>
</event>
<event>
 7    0  0.4732500E-002  0.4550948E+03  0.7546771E-02  0.1026214E+00
         21   -1    0    0  502  501  0.00000000000E+00  0.00000000000E+00  0.69630667819E+03  0.69630667819E+03  0.00000000000E+00 0.  1.
         21   -1    0    0  501  502 -0.00000000000E+00 -0.00000000000E+00 -0.74360642888E+02  0.74360642888E+02  0.00000000000E+00 0.  1.
      99926    2    1    2    0    0  0.00000000000E+00  0.00000000000E+00  0.62194603530E+03  0.77066732108E+03  0.45509476920E+03 0.  0.
      99925    2    3    3    0    0 -0.68655871174E+02 -0.52445046397E+02  0.51523032024E+03  0.58492593237E+03  0.26308164498E+03 0.  0.
         25    1    4    4    0    0 -0.72425723532E+02 -0.41957174942E+02  0.25849422281E+03  0.29911981092E+03  0.12509000000E+03 0.  0.
         25    1    4    4    0    0  0.37698523580E+01 -0.10487871455E+02  0.25673609743E+03  0.28580612145E+03  0.12509000000E+03 0.  0.
         25    1    3    3    0    0  0.68655871174E+02  0.52445046397E+02  0.10671571506E+03  0.18574138871E+03  0.12509000000E+03 0.  0.
<mgrwt>
<rscale>  2 0.45509477E+03</rscale>
<asrwt>0</asrwt>
<pdfrwt beam="1">  1       21 0.10239804E+00 0.45509477E+03</pdfrwt>
<pdfrwt beam="2">  1       21 0.10935389E-01 0.45509477E+03</pdfrwt>
<totfact> 0.49179683E+04</totfact>
</mgrwt>
</event>
<event>
 7    0  0.4732500E-002  0.4513230E+03  0.7546771E-02  0.1027328E+00
         21   -1    0    0  502  501  0.00000000000E+00  0.00000000000E+00  0.38319802561E+03  0.38319802561E+03  0.00000000000E+00 0. -1.
         21   -1    0    0  501  502 -0.00000000000E+00 -0.00000000000E+00 -0.13288981258E+03  0.13288981258E+03  0.00000000000E+00 0. -1.
      99926    2    1    2    0    0 -0.35527136788E-14  0.00000000000E+00  0.25030821303E+03  0.51608783819E+03  0.45132300541E+03 0.  0.
      99925    2    3    3    0    0 -0.27201539666E+02 -0.97740886616E+02  0.10991711496E+03  0.30242835865E+03  0.26284583938E+03 0.  0.
         25    1    3    3    0    0  0.27201539666E+02  0.97740886616E+02  0.14039109807E+03  0.21365947953E+03  0.12509000000E+03 0.  0.
         25    1    4    4    0    0  0.23158512154E+02 -0.45873232179E+02  0.35037530836E+02  0.13969898633E+03  0.12509000000E+03 0.  0.
         25    1    4    4    0    0 -0.50360051820E+02 -0.51867654437E+02  0.74879584125E+02  0.16272937232E+03  0.12509000000E+03 0.  0.
<mgrwt>
<rscale>  2 0.45132301E+03</rscale>
<asrwt>0</asrwt>
<pdfrwt beam="1">  1       21 0.56352650E-01 0.45132301E+03</pdfrwt>
<pdfrwt beam="2">  1       21 0.19542620E-01 0.45132301E+03</pdfrwt>
<totfact> 0.66060928E+04</totfact>
</mgrwt>
</event>
<event>
 7    0  0.4732500E-002  0.4556472E+03  0.7546771E-02  0.1026051E+00
         21   -1    0    0  502  501  0.00000000000E+00  0.00000000000E+00  0.39977154596E+02  0.39977154596E+02  0.00000000000E+00 0. -1.
         21   -1    0    0  501  502 -0.00000000000E+00 -0.00000000000E+00 -0.12983314842E+04  0.12983314842E+04  0.00000000000E+00 0. -1.
      99926    2    1    2    0    0  0.00000000000E+00  0.00000000000E+00 -0.12583543297E+04  0.13383086388E+04  0.45564722522E+03 0.  0.
      99925    2    3    3    0    0  0.61500566287E+02 -0.75491748305E+02 -0.61939553190E+03  0.67997955925E+03  0.26313504583E+03 0.  0.
         25    1    4    4    0    0  0.59036138326E+02 -0.62564161470E+02 -0.38733761606E+03  0.41602581271E+03  0.12509000000E+03 0.  0.
         25    1    3    3    0    0 -0.61500566287E+02  0.75491748305E+02 -0.63895879775E+03  0.65832907959E+03  0.12509000000E+03 0.  0.
         25    1    4    4    0    0  0.24644279611E+01 -0.12927586835E+02 -0.23205791584E+03  0.26395374654E+03  0.12509000000E+03 0.  0.
<mgrwt>
<rscale>  2 0.45564723E+03</rscale>
<asrwt>0</asrwt>
<pdfrwt beam="1">  1       21 0.58789930E-02 0.45564723E+03</pdfrwt>
<pdfrwt beam="2">  1       21 0.19093111E+00 0.45564723E+03</pdfrwt>
<totfact> 0.27881594E+04</totfact>
</mgrwt>
</event>
<event>
 7    0  0.4732500E-002  0.4520377E+03  0.7546771E-02  0.1027116E+00
         21   -1    0    0  502  501  0.00000000000E+00  0.00000000000E+00  0.25492359953E+03  0.25492359953E+03  0.00000000000E+00 0. -1.
         21   -1    0    0  501  502 -0.00000000000E+00 -0.00000000000E+00 -0.20039152643E+03  0.20039152643E+03  0.00000000000E+00 0. -1.
      99926    2    1    2    0    0  0.26645352591E-14  0.00000000000E+00  0.54532073101E+02  0.45531512597E+03  0.45203773840E+03 0.  0.
      99925    2    3    3    0    0  0.41658145651E+01  0.97451616023E+02  0.86305834793E+02  0.29353981416E+03  0.26306416309E+03 0.  0.
         25    1    3    3    0    0 -0.41658145651E+01 -0.97451616023E+02 -0.31773761692E+02  0.16177531180E+03  0.12509000000E+03 0.  0.
         25    1    4    4    0    0 -0.16380926125E+02  0.47522754415E+02  0.50536042041E+01  0.13490661193E+03  0.12509000000E+03 0.  0.
         25    1    4    4    0    0  0.20546740690E+02  0.49928861608E+02  0.81252230589E+02  0.15863320223E+03  0.12509000000E+03 0.  0.
<mgrwt>
<rscale>  2 0.45203774E+03</rscale>
<asrwt>0</asrwt>
<pdfrwt beam="1">  1       21 0.37488765E-01 0.45203774E+03</pdfrwt>
<pdfrwt beam="2">  1       21 0.29469342E-01 0.45203774E+03</pdfrwt>
<totfact> 0.70166297E+04</totfact>
</mgrwt>
</event>
<event>
 7    0  0.4732500E-002  0.4552975E+03  0.7546771E-02  0.1026154E+00
         21   -1    0    0  502  501  0.00000000000E+00  0.00000000000E+00  0.35506601764E+03  0.35506601764E+03  0.00000000000E+00 0. -1.
         21   -1    0    0  501  502 -0.00000000000E+00 -0.00000000000E+00 -0.14595583503E+03  0.14595583503E+03  0.00000000000E+00 0. -1.
      99926    2    1    2    0    0 -0.66613381478E-15  0.00000000000E+00  0.20911018261E+03  0.50102185266E+03  0.45529751633E+03 0.  0.
      99925    2    3    3    0    0 -0.11921088253E+01 -0.66935493843E+02  0.30701624085E+02  0.27307689590E+03  0.26295744882E+03 0.  0.
         25    1    4    4    0    0  0.36928326754E+02 -0.19673451508E+02  0.75852079327E+01  0.13212035986E+03  0.12509000000E+03 0.  0.
         25    1    3    3    0    0  0.11921088253E+01  0.66935493843E+02  0.17840855853E+03  0.22794495677E+03  0.12509000000E+03 0.  0.
         25    1    4    4    0    0 -0.38120435580E+02 -0.47262042335E+02  0.23116416152E+02  0.14095653603E+03  0.12509000000E+03 0.  0.
<mgrwt>
<rscale>  2 0.45529752E+03</rscale>
<asrwt>0</asrwt>
<pdfrwt beam="1">  1       21 0.52215591E-01 0.45529752E+03</pdfrwt>
<pdfrwt beam="2">  1       21 0.21464093E-01 0.45529752E+03</pdfrwt>
<totfact> 0.65045182E+04</totfact>
</mgrwt>
</event>
<event>
 7    0  0.4732500E-002  0.4526018E+03  0.7546771E-02  0.1026949E+00
         21   -1    0    0  502  501  0.00000000000E+00  0.00000000000E+00  0.37533554063E+03  0.37533554063E+03  0.00000000000E+00 0. -1.
         21   -1    0    0  501  502 -0.00000000000E+00 -0.00000000000E+00 -0.13644349149E+03  0.13644349149E+03  0.00000000000E+00 0. -1.
      99926    2    1    2    0    0  0.00000000000E+00  0.00000000000E+00  0.23889204914E+03  0.51177903212E+03  0.45260177483E+03 0.  0.
      99925    2    3    3    0    0 -0.60046385805E+02 -0.49539078618E+02  0.23967514593E+03  0.36444332668E+03  0.26327756080E+03 0.  0.
         25    1    3    3    0    0  0.60046385805E+02  0.49539078618E+02 -0.78309679339E+00  0.14733570545E+03  0.12509000000E+03 0.  0.
         25    1    4    4    0    0 -0.99346555609E+01 -0.35412867142E+02  0.72262286569E+02  0.14907083786E+03  0.12509000000E+03 0.  0.
         25    1    4    4    0    0 -0.50111730244E+02 -0.14126211475E+02  0.16741285936E+03  0.21537248882E+03  0.12509000000E+03 0.  0.
<mgrwt>
<rscale>  2 0.45260177E+03</rscale>
<asrwt>0</asrwt>
<pdfrwt beam="1">  1       21 0.55196403E-01 0.45260177E+03</pdfrwt>
<pdfrwt beam="2">  1       21 0.20065219E-01 0.45260177E+03</pdfrwt>
<totfact> 0.65692148E+04</totfact>
</mgrwt>
</event>
<event>
 7    0  0.4732500E-002  0.4498224E+03  0.7546771E-02  0.1027775E+00
         21   -1    0    0  502  501  0.00000000000E+00  0.00000000000E+00  0.46409863707E+03  0.46409863707E+03  0.00000000000E+00 0. -1.
         21   -1    0    0  501  502 -0.00000000000E+00 -0.00000000000E+00 -0.10899634443E+03  0.10899634443E+03  0.00000000000E+00 0. -1.
      99926    2    1    2    0    0  0.00000000000E+00 -0.71054273576E-14  0.35510229265E+03  0.57309498150E+03  0.44982243116E+03 0.  0.
      99925    2    3    3    0    0 -0.39093396250E+02 -0.49033886313E+02  0.33690608692E+03  0.43198783909E+03  0.26301172232E+03 0.  0.
         25    1    4    4    0    0 -0.29623999333E+02  0.13896696823E+02  0.17752322211E+03  0.21961944816E+03  0.12509000000E+03 0.  0.
         25    1    4    4    0    0 -0.94693969173E+01 -0.62930583136E+02  0.15938286481E+03  0.21236839093E+03  0.12509000000E+03 0.  0.
         25    1    3    3    0    0  0.39093396250E+02  0.49033886313E+02  0.18196205725E+02  0.14110714241E+03  0.12509000000E+03 0.  0.
<mgrwt>
<rscale>  2 0.44982243E+03</rscale>
<asrwt>0</asrwt>
<pdfrwt beam="1">  1       21 0.68249799E-01 0.44982243E+03</pdfrwt>
<pdfrwt beam="2">  1       21 0.16028874E-01 0.44982243E+03</pdfrwt>
<totfact> 0.62901545E+04</totfact>
</mgrwt>
</event>
<event>
 7    0  0.4732500E-002  0.4550406E+03  0.7546771E-02  0.1026229E+00
         21   -1    0    0  502  501  0.00000000000E+00  0.00000000000E+00  0.17986741222E+03  0.17986741222E+03  0.00000000000E+00 0. -1.
         21   -1    0    0  501  502 -0.00000000000E+00 -0.00000000000E+00 -0.28779799030E+03  0.28779799030E+03  0.00000000000E+00 0. -1.
      99926    2    1    2    0    0  0.35527136788E-14  0.17763568394E-14 -0.10793057808E+03  0.46766540251E+03  0.45504056855E+03 0.  0.
      99925    2    3    3    0    0  0.27074651055E+02 -0.77971771209E+01  0.44746718946E+02  0.26828712429E+03  0.26302448461E+03 0.  0.
         25    1    4    4    0    0  0.27587681821E+02 -0.36079326892E+02  0.43578065748E+02  0.14003340291E+03  0.12509000000E+03 0.  0.
         25    1    3    3    0    0 -0.27074651055E+02  0.77971771209E+01 -0.15267729703E+03  0.19937827823E+03  0.12509000000E+03 0.  0.
         25    1    4    4    0    0 -0.51303076661E+00  0.28282149771E+02  0.11686531976E+01  0.12825372138E+03  0.12509000000E+03 0.  0.
<mgrwt>
<rscale>  2 0.45504057E+03</rscale>
<asrwt>0</asrwt>
<pdfrwt beam="1">  1       21 0.26451090E-01 0.45504057E+03</pdfrwt>
<pdfrwt beam="2">  1       21 0.42323233E-01 0.45504057E+03</pdfrwt>
<totfact> 0.67588156E+04</totfact>
</mgrwt>
</event>
<event>
 7    0  0.4732500E-002  0.4542640E+03  0.7546771E-02  0.1026458E+00
         21   -1    0    0  502  501  0.00000000000E+00  0.00000000000E+00  0.52058110569E+02  0.52058110569E+02  0.00000000000E+00 0.  1.
         21   -1    0    0  501  502 -0.00000000000E+00 -0.00000000000E+00 -0.99098760295E+03  0.99098760295E+03  0.00000000000E+00 0.  1.
      99926    2    1    2    0    0 -0.14210854715E-13  0.00000000000E+00 -0.93892949238E+03  0.10430457135E+04  0.45426398583E+03 0.  0.
      99925    2    3    3    0    0  0.75895203380E+02 -0.83083160096E+02 -0.59595026638E+03  0.66101803003E+03  0.26291675989E+03 0.  0.
         25    1    4    4    0    0  0.20964555803E+01 -0.58505746481E+02 -0.26752183225E+03  0.30106935468E+03  0.12509000000E+03 0.  0.
         25    1    3    3    0    0 -0.75895203380E+02  0.83083160096E+02 -0.34297922600E+03  0.38202768350E+03  0.12509000000E+03 0.  0.
         25    1    4    4    0    0  0.73798747800E+02 -0.24577413615E+02 -0.32842843413E+03  0.35994867534E+03  0.12509000000E+03 0.  0.
<mgrwt>
<rscale>  2 0.45426399E+03</rscale>
<asrwt>0</asrwt>
<pdfrwt beam="1">  1       21 0.76556052E-02 0.45426399E+03</pdfrwt>
<pdfrwt beam="2">  1       21 0.14573346E+00 0.45426399E+03</pdfrwt>
<totfact> 0.37750020E+04</totfact>
</mgrwt>
</event>
<event>
 7    0  0.4732500E-002  0.4574868E+03  0.7546771E-02  0.1025513E+00
         21   -1    0    0  502  501  0.00000000000E+00  0.00000000000E+00  0.12096720609E+03  0.12096720609E+03  0.00000000000E+00 0.  1.
         21   -1    0    0  501  502 -0.00000000000E+00 -0.00000000000E+00 -0.43254315702E+03  0.43254315702E+03  0.00000000000E+00 0.  1.
      99926    2    1    2    0    0  0.00000000000E+00 -0.71054273576E-14 -0.31157595093E+03  0.55351036311E+03  0.45748677454E+03 0.  0.
      99925    2    3    3    0    0  0.10463713652E+03 -0.48049643435E+02 -0.18240248840E+03  0.33998989548E+03  0.26280175548E+03 0.  0.
         25    1    4    4    0    0  0.85488422467E+02 -0.42966063614E+02 -0.77422666333E+02  0.17548826274E+03  0.12509000000E+03 0.  0.
         25    1    4    4    0    0  0.19148714056E+02 -0.50835798203E+01 -0.10497982206E+03  0.16450163274E+03  0.12509000000E+03 0.  0.
         25    1    3    3    0    0 -0.10463713652E+03  0.48049643435E+02 -0.12917346253E+03  0.21352046763E+03  0.12509000000E+03 0.  0.
<mgrwt>
<rscale>  2 0.45748677E+03</rscale>
<asrwt>0</asrwt>
<pdfrwt beam="1">  1       21 0.17789295E-01 0.45748677E+03</pdfrwt>
<pdfrwt beam="2">  1       21 0.63609287E-01 0.45748677E+03</pdfrwt>
<totfact> 0.60437322E+04</totfact>
</mgrwt>
</event>
<event>
 7    0  0.4732500E-002  0.4548917E+03  0.7546771E-02  0.1026273E+00
         21   -1    0    0  502  501  0.00000000000E+00  0.00000000000E+00  0.33226445113E+03  0.33226445113E+03  0.00000000000E+00 0.  1.
         21   -1    0    0  501  502 -0.00000000000E+00 -0.00000000000E+00 -0.15569413071E+03  0.15569413071E+03  0.00000000000E+00 0.  1.
      99926    2    1    2    0    0  0.00000000000E+00  0.00000000000E+00  0.17657032042E+03  0.48795858184E+03  0.45489174486E+03 0.  0.
      99925    2    3    3    0    0 -0.53200744048E+02 -0.78342983145E+02  0.17726575754E+03  0.33106392320E+03  0.26308217400E+03 0.  0.
         25    1    4    4    0    0 -0.60704510052E+02 -0.22982145265E+02  0.71751953254E+02  0.15814255416E+03  0.12509000000E+03 0.  0.
         25    1    4    4    0    0  0.75037660041E+01 -0.55360837880E+02  0.10551380429E+03  0.17292136904E+03  0.12509000000E+03 0.  0.
         25    1    3    3    0    0  0.53200744048E+02  0.78342983145E+02 -0.69543712768E+00  0.15689465863E+03  0.12509000000E+03 0.  0.
<mgrwt>
<rscale>  2 0.45489174E+03</rscale>
<asrwt>0</asrwt>
<pdfrwt beam="1">  1       21 0.48862419E-01 0.45489174E+03</pdfrwt>
<pdfrwt beam="2">  1       21 0.22896196E-01 0.45489174E+03</pdfrwt>
<totfact> 0.66182038E+04</totfact>
</mgrwt>
</event>
<event>
 6    0  0.4732500E-002  0.4406931E+03  0.7546771E-02  0.1030534E+00
         21   -1    0    0  502  501  0.00000000000E+00  0.00000000000E+00  0.64896722226E+03  0.64896722226E+03  0.00000000000E+00 0. -1.
         21   -1    0    0  501  502 -0.00000000000E+00 -0.00000000000E+00 -0.74815183286E+02  0.74815183286E+02  0.00000000000E+00 0. -1.
      99926    2    1    2    0    0  0.00000000000E+00  0.00000000000E+00  0.57415203897E+03  0.72378240555E+03  0.44069309811E+03 0.  0.
         25    1    3    3    0    0 -0.49878386662E+01 -0.30624738211E+02  0.10854835319E+03  0.16850224392E+03  0.12509000000E+03 0.  0.
         25    1    3    3    0    0  0.73619721387E+02  0.59174210407E+02  0.22873977812E+03  0.27729198465E+03  0.12509000000E+03 0.  0.
         25    1    3    3    0    0 -0.68631882720E+02 -0.28549472197E+02  0.23686390766E+03  0.27798817698E+03  0.12509000000E+03 0.  0.
<mgrwt>
<rscale>  2 0.44069310E+03</rscale>
<asrwt>0</asrwt>
<pdfrwt beam="1">  1       21 0.95436353E-01 0.44069310E+03</pdfrwt>
<pdfrwt beam="2">  1       21 0.11002233E-01 0.44069310E+03</pdfrwt>
<totfact> 0.57872772E+04</totfact>
</mgrwt>
</event>
<event>
 7    0  0.4732500E-002  0.4441333E+03  0.7546771E-02  0.1029486E+00
         21   -1    0    0  502  501  0.00000000000E+00  0.00000000000E+00  0.52039087361E+02  0.52039087361E+02  0.00000000000E+00 0.  1.
         21   -1    0    0  501  502 -0.00000000000E+00 -0.00000000000E+00 -0.94762621321E+03  0.94762621321E+03  0.00000000000E+00 0.  1.
      99926    2    1    2    0    0  0.00000000000E+00 -0.14210854715E-13 -0.89558712585E+03  0.99966530057E+03  0.44413332816E+03 0.  0.
      99925    2    3    3    0    0  0.49419797117E+02 -0.76068373127E+02 -0.46105329095E+03  0.53847566982E+03  0.26297755828E+03 0.  0.
         25    1    4    4    0    0  0.10846997729E+02 -0.30737928995E+02 -0.29598408456E+03  0.32298074873E+03  0.12509000000E+03 0.  0.
         25    1    4    4    0    0  0.38572799388E+02 -0.45330444132E+02 -0.16506920639E+03  0.21549492109E+03  0.12509000000E+03 0.  0.
         25    1    3    3    0    0 -0.49419797117E+02  0.76068373127E+02 -0.43453383490E+03  0.46118963074E+03  0.12509000000E+03 0.  0.
<mgrwt>
<rscale>  2 0.44413333E+03</rscale>
<asrwt>0</asrwt>
<pdfrwt beam="1">  1       21 0.76528076E-02 0.44413333E+03</pdfrwt>
<pdfrwt beam="2">  1       21 0.13935678E+00 0.44413333E+03</pdfrwt>
<totfact> 0.42689224E+04</totfact>
</mgrwt>
</event>
<event>
 7    0  0.4732500E-002  0.4510883E+03  0.7546771E-02  0.1027398E+00
         21   -1    0    0  502  501  0.00000000000E+00  0.00000000000E+00  0.16140681738E+03  0.16140681738E+03  0.00000000000E+00 0.  1.
         21   -1    0    0  501  502 -0.00000000000E+00 -0.00000000000E+00 -0.31516734752E+03  0.31516734752E+03  0.00000000000E+00 0.  1.
      99926    2    1    2    0    0  0.00000000000E+00  0.88817841970E-15 -0.15376053015E+03  0.47657416490E+03  0.45108827741E+03 0.  0.
      99925    2    3    3    0    0  0.56861702503E+02  0.23347472834E+01  0.14218093544E+01  0.26928747731E+03  0.26320148107E+03 0.  0.
         25    1    4    4    0    0  0.53851010932E+02  0.15374791695E+02 -0.28472859505E+02  0.13998045373E+03  0.12509000000E+03 0.  0.
         25    1    4    4    0    0  0.30106915702E+01 -0.13040044411E+02  0.29894668859E+02  0.12930702358E+03  0.12509000000E+03 0.  0.
         25    1    3    3    0    0 -0.56861702503E+02 -0.23347472834E+01 -0.15518233950E+03  0.20728668758E+03  0.12509000000E+03 0.  0.
<mgrwt>
<rscale>  2 0.45108828E+03</rscale>
<asrwt>0</asrwt>
<pdfrwt beam="1">  1       21 0.23736297E-01 0.45108828E+03</pdfrwt>
<pdfrwt beam="2">  1       21 0.46348139E-01 0.45108828E+03</pdfrwt>
<totfact> 0.69070020E+04</totfact>
</mgrwt>
</event>
<event>
 7    0  0.4732500E-002  0.4474014E+03  0.7546771E-02  0.1028500E+00
         21   -1    0    0  502  501  0.00000000000E+00  0.00000000000E+00  0.16512604060E+04  0.16512604060E+04  0.00000000000E+00 0. -1.
         21   -1    0    0  501  502 -0.00000000000E+00 -0.00000000000E+00 -0.30305335597E+02  0.30305335597E+02  0.00000000000E+00 0. -1.
      99926    2    1    2    0    0 -0.14210854715E-13  0.00000000000E+00  0.16209550704E+04  0.16815657416E+04  0.44740138919E+03 0.  0.
      99925    2    3    3    0    0 -0.10469337387E+03 -0.12355078520E+02  0.98798495145E+03  0.10277981758E+04  0.26294766665E+03 0.  0.
         25    1    4    4    0    0 -0.94873591928E+02 -0.10053318250E+02  0.57900959505E+03  0.60000140576E+03  0.12509000000E+03 0.  0.
         25    1    4    4    0    0 -0.98197819401E+01 -0.23017602702E+01  0.40897535640E+03  0.42779677004E+03  0.12509000000E+03 0.  0.
         25    1    3    3    0    0  0.10469337387E+03  0.12355078520E+02  0.63297011898E+03  0.65376756582E+03  0.12509000000E+03 0.  0.
<mgrwt>
<rscale>  2 0.44740139E+03</rscale>
<asrwt>0</asrwt>
<pdfrwt beam="1">  1       21 0.24283235E+00 0.44740139E+03</pdfrwt>
<pdfrwt beam="2">  1       21 0.44566681E-02 0.44740139E+03</pdfrwt>
<totfact> 0.20851208E+04</totfact>
</mgrwt>
</event>
<event>
 7    0  0.4732500E-002  0.4560507E+03  0.7546771E-02  0.1025933E+00
         21   -1    0    0  502  501  0.00000000000E+00  0.00000000000E+00  0.96690904556E+02  0.96690904556E+02  0.00000000000E+00 0. -1.
         21   -1    0    0  501  502 -0.00000000000E+00 -0.00000000000E+00 -0.53775020768E+03  0.53775020768E+03  0.00000000000E+00 0. -1.
      99926    2    1    2    0    0  0.00000000000E+00  0.00000000000E+00 -0.44105930313E+03  0.63444111224E+03  0.45605067265E+03 0.  0.
      99925    2    3    3    0    0  0.89366261119E+02 -0.14115271856E+02 -0.37415773341E+03  0.46618863037E+03  0.26296817314E+03 0.  0.
         25    1    4    4    0    0  0.84777637879E+02  0.18367359747E+01 -0.18634856901E+03  0.23992481897E+03  0.12509000000E+03 0.  0.
         25    1    3    3    0    0 -0.89366261119E+02  0.14115271856E+02 -0.66901569717E+02  0.16825248187E+03  0.12509000000E+03 0.  0.
         25    1    4    4    0    0  0.45886232398E+01 -0.15952007831E+02 -0.18780916440E+03  0.22626381140E+03  0.12509000000E+03 0.  0.
<mgrwt>
<rscale>  2 0.45605067E+03</rscale>
<asrwt>0</asrwt>
<pdfrwt beam="1">  1       21 0.14219251E-01 0.45605067E+03</pdfrwt>
<pdfrwt beam="2">  1       21 0.79080913E-01 0.45605067E+03</pdfrwt>
<totfact> 0.56139842E+04</totfact>
</mgrwt>
</event>
<event>
 7    0  0.4732500E-002  0.4547414E+03  0.7546771E-02  0.1026317E+00
         21   -1    0    0  502  501  0.00000000000E+00  0.00000000000E+00  0.59879089023E+03  0.59879089023E+03  0.00000000000E+00 0. -1.
         21   -1    0    0  501  502 -0.00000000000E+00 -0.00000000000E+00 -0.86336370329E+02  0.86336370329E+02  0.00000000000E+00 0. -1.
      99926    2    1    2    0    0  0.00000000000E+00  0.14210854715E-13  0.51245451990E+03  0.68512726056E+03  0.45474138606E+03 0.  0.
      99925    2    3    3    0    0 -0.61230381158E+02  0.77518621693E+02  0.24007261247E+03  0.36953621525E+03  0.26299022574E+03 0.  0.
         25    1    4    4    0    0 -0.66584838862E+02  0.53311797195E+02  0.10821896206E+03  0.18610357422E+03  0.12509000000E+03 0.  0.
         25    1    3    3    0    0  0.61230381158E+02 -0.77518621693E+02  0.27238190743E+03  0.31559104532E+03  0.12509000000E+03 0.  0.
         25    1    4    4    0    0  0.53544577040E+01  0.24206824498E+02  0.13185365040E+03  0.18343264103E+03  0.12509000000E+03 0.  0.
<mgrwt>
<rscale>  2 0.45474139E+03</rscale>
<asrwt>0</asrwt>
<pdfrwt beam="1">  1       21 0.88057482E-01 0.45474139E+03</pdfrwt>
<pdfrwt beam="2">  1       21 0.12696525E-01 0.45474139E+03</pdfrwt>
<totfact> 0.53827654E+04</totfact>
</mgrwt>
</event>
<event>
 7    0  0.4732500E-002  0.4479679E+03  0.7546771E-02  0.1028330E+00
         21   -1    0    0  502  501  0.00000000000E+00  0.00000000000E+00  0.29488001927E+03  0.29488001927E+03  0.00000000000E+00 0.  1.
         21   -1    0    0  501  502 -0.00000000000E+00 -0.00000000000E+00 -0.17013299537E+03  0.17013299537E+03  0.00000000000E+00 0.  1.
      99926    2    1    2    0    0  0.00000000000E+00  0.00000000000E+00  0.12474702390E+03  0.46501301464E+03  0.44796794953E+03 0.  0.
      99925    2    3    3    0    0  0.35629144648E+02  0.60090991671E+02  0.16242158479E+03  0.31686699253E+03  0.26295162391E+03 0.  0.
         25    1    3    3    0    0 -0.35629144648E+02 -0.60090991671E+02 -0.37674560894E+02  0.14814602211E+03  0.12509000000E+03 0.  0.
         25    1    4    4    0    0  0.35681867370E+02  0.66343059746E+02  0.99546296000E+02  0.17672456078E+03  0.12509000000E+03 0.  0.
         25    1    4    4    0    0 -0.52722722145E-01 -0.62520680754E+01  0.62875288794E+02  0.14014243175E+03  0.12509000000E+03 0.  0.
<mgrwt>
<rscale>  2 0.44796795E+03</rscale>
<asrwt>0</asrwt>
<pdfrwt beam="1">  1       21 0.43364709E-01 0.44796795E+03</pdfrwt>
<pdfrwt beam="2">  1       21 0.25019558E-01 0.44796795E+03</pdfrwt>
<totfact> 0.71727061E+04</totfact>
</mgrwt>
</event>
<event>
 7    0  0.4732500E-002  0.4477322E+03  0.7546771E-02  0.1028400E+00
         21   -1    0    0  502  501  0.00000000000E+00  0.00000000000E+00  0.17509767773E+03  0.17509767773E+03  0.00000000000E+00 0.  1.
         21   -1    0    0  501  502 -0.00000000000E+00 -0.00000000000E+00 -0.28621750982E+03  0.28621750982E+03  0.00000000000E+00 0.  1.
      99926    2    1    2    0    0  0.00000000000E+00  0.00000000000E+00 -0.11111983208E+03  0.46131518755E+03  0.44773215786E+03 0.  0.
      99925    2    3    3    0    0 -0.56030853624E+02  0.14824639319E+02  0.21227032127E+02  0.27020677053E+03  0.26306251245E+03 0.  0.
         25    1    4    4    0    0 -0.15348113740E+02  0.47530767156E+01  0.49155648722E+02  0.13535856912E+03  0.12509000000E+03 0.  0.
         25    1    3    3    0    0  0.56030853624E+02 -0.14824639319E+02 -0.13234686421E+03  0.19110841702E+03  0.12509000000E+03 0.  0.
         25    1    4    4    0    0 -0.40682739884E+02  0.10071562603E+02 -0.27928616595E+02  0.13484820141E+03  0.12509000000E+03 0.  0.
<mgrwt>
<rscale>  2 0.44773216E+03</rscale>
<asrwt>0</asrwt>
<pdfrwt beam="1">  1       21 0.25749659E-01 0.44773216E+03</pdfrwt>
<pdfrwt beam="2">  1       21 0.42090810E-01 0.44773216E+03</pdfrwt>
<totfact> 0.72158335E+04</totfact>
</mgrwt>
</event>
<event>
 7    0  0.4732500E-002  0.4366259E+03  0.7546771E-02  0.1031787E+00
         21   -1    0    0  502  501  0.00000000000E+00  0.00000000000E+00  0.19192048839E+03  0.19192048839E+03  0.00000000000E+00 0. -1.
         21   -1    0    0  501  502 -0.00000000000E+00 -0.00000000000E+00 -0.24833485748E+03  0.24833485748E+03  0.00000000000E+00 0. -1.
      99926    2    1    2    0    0  0.00000000000E+00  0.00000000000E+00 -0.56414369091E+02  0.44025534587E+03  0.43662591371E+03 0.  0.
      99925    2    3    3    0    0  0.85542065859E+02 -0.38169339850E+02 -0.51584619586E+02  0.28390580760E+03  0.26299656096E+03 0.  0.
         25    1    4    4    0    0  0.73302267775E+02 -0.46137962601E+02 -0.15722544187E+02  0.15295960431E+03  0.12509000000E+03 0.  0.
         25    1    3    3    0    0 -0.85542065859E+02  0.38169339850E+02 -0.48297495051E+01  0.15634953827E+03  0.12509000000E+03 0.  0.
         25    1    4    4    0    0  0.12239798084E+02  0.79686227508E+01 -0.35862075399E+02  0.13094620330E+03  0.12509000000E+03 0.  0.
<mgrwt>
<rscale>  2 0.43662591E+03</rscale>
<asrwt>0</asrwt>
<pdfrwt beam="1">  1       21 0.28223602E-01 0.43662591E+03</pdfrwt>
<pdfrwt beam="2">  1       21 0.36519832E-01 0.43662591E+03</pdfrwt>
<totfact> 0.80858506E+04</totfact>
</mgrwt>
</event>
<event>
 7    0  0.4732500E-002  0.4551986E+03  0.7546771E-02  0.1026183E+00
         21   -1    0    0  502  501  0.00000000000E+00  0.00000000000E+00  0.12130131576E+03  0.12130131576E+03  0.00000000000E+00 0. -1.
         21   -1    0    0  501  502 -0.00000000000E+00 -0.00000000000E+00 -0.42704773559E+03  0.42704773559E+03  0.00000000000E+00 0. -1.
      99926    2    1    2    0    0 -0.14210854715E-13 -0.35527136788E-14 -0.30574641983E+03  0.54834905134E+03  0.45519864770E+03 0.  0.
      99925    2    3    3    0    0 -0.11001205628E+03 -0.20914656741E+02 -0.21373782843E+03  0.35689888972E+03  0.26296935712E+03 0.  0.
         25    1    3    3    0    0  0.11001205628E+03  0.20914656741E+02 -0.92008591405E+02  0.19145016163E+03  0.12509000000E+03 0.  0.
         25    1    4    4    0    0 -0.61523303402E+02 -0.60170992847E+00 -0.15663609836E+03  0.20968513139E+03  0.12509000000E+03 0.  0.
         25    1    4    4    0    0 -0.48488752883E+02 -0.20312946813E+02 -0.57101730069E+02  0.14721375833E+03  0.12509000000E+03 0.  0.
<mgrwt>
<rscale>  2 0.45519865E+03</rscale>
<asrwt>0</asrwt>
<pdfrwt beam="1">  1       21 0.17838429E-01 0.45519865E+03</pdfrwt>
<pdfrwt beam="2">  1       21 0.62801138E-01 0.45519865E+03</pdfrwt>
<totfact> 0.61878425E+04</totfact>
</mgrwt>
</event>
<event>
 7    0  0.4732500E-002  0.4519793E+03  0.7546771E-02  0.1027133E+00
         21   -1    0    0  502  501  0.00000000000E+00  0.00000000000E+00  0.86211320882E+03  0.86211320882E+03  0.00000000000E+00 0. -1.
         21   -1    0    0  501  502 -0.00000000000E+00 -0.00000000000E+00 -0.59239680680E+02  0.59239680680E+02  0.00000000000E+00 0. -1.
      99926    2    1    2    0    0  0.00000000000E+00  0.00000000000E+00  0.80287352814E+03  0.92135288950E+03  0.45197925262E+03 0.  0.
      99925    2    3    3    0    0  0.28186771282E+02  0.10135275490E+02  0.29177560742E+03  0.39431796603E+03  0.26354588855E+03 0.  0.
         25    1    4    4    0    0 -0.14317992700E+01  0.85946918280E+01  0.20113072167E+03  0.23701686454E+03  0.12509000000E+03 0.  0.
         25    1    4    4    0    0  0.29618570552E+02  0.15405836621E+01  0.90644885749E+02  0.15730110150E+03  0.12509000000E+03 0.  0.
         25    1    3    3    0    0 -0.28186771282E+02 -0.10135275490E+02  0.51109792073E+03  0.52703492347E+03  0.12509000000E+03 0.  0.
<mgrwt>
<rscale>  2 0.45197925E+03</rscale>
<asrwt>0</asrwt>
<pdfrwt beam="1">  1       21 0.12678135E+00 0.45197925E+03</pdfrwt>
<pdfrwt beam="2">  1       21 0.87117183E-02 0.45197925E+03</pdfrwt>
<totfact> 0.43338195E+04</totfact>
</mgrwt>
</event>
<event>
 7    0  0.4732500E-002  0.4536188E+03  0.7546771E-02  0.1026648E+00
         21   -1    0    0  502  501  0.00000000000E+00  0.00000000000E+00  0.19594021622E+04  0.19594021622E+04  0.00000000000E+00 0. -1.
         21   -1    0    0  501  502 -0.00000000000E+00 -0.00000000000E+00 -0.26254187492E+02  0.26254187492E+02  0.00000000000E+00 0. -1.
      99926    2    1    2    0    0  0.00000000000E+00  0.00000000000E+00  0.19331479748E+04  0.19856563497E+04  0.45361883444E+03 0.  0.
      99925    2    3    3    0    0  0.70150223374E+02 -0.66586386076E+02  0.97112823297E+03  0.10107285102E+04  0.26292066443E+03 0.  0.
         25    1    4    4    0    0  0.48466400379E+02 -0.37745121579E+01  0.38471033798E+03  0.40744667278E+03  0.12509000000E+03 0.  0.
         25    1    3    3    0    0 -0.70150223374E+02  0.66586386076E+02  0.96201974179E+03  0.97492783956E+03  0.12509000000E+03 0.  0.
         25    1    4    4    0    0  0.21683822995E+02 -0.62811873918E+02  0.58641789499E+03  0.60328183741E+03  0.12509000000E+03 0.  0.
<mgrwt>
<rscale>  2 0.45361883E+03</rscale>
<asrwt>0</asrwt>
<pdfrwt beam="1">  1       21 0.28814728E+00 0.45361883E+03</pdfrwt>
<pdfrwt beam="2">  1       21 0.38609113E-02 0.45361883E+03</pdfrwt>
<totfact> 0.14095852E+04</totfact>
</mgrwt>
</event>
<event>
 7    0  0.4732500E-002  0.4479875E+03  0.7546771E-02  0.1028324E+00
         21   -1    0    0  502  501  0.00000000000E+00  0.00000000000E+00  0.24561994287E+03  0.24561994287E+03  0.00000000000E+00 0.  1.
         21   -1    0    0  501  502 -0.00000000000E+00 -0.00000000000E+00 -0.20427165632E+03  0.20427165632E+03  0.00000000000E+00 0.  1.
      99926    2    1    2    0    0  0.00000000000E+00  0.35527136788E-14  0.41348286552E+02  0.44989159920E+03  0.44798746660E+03 0.  0.
      99925    2    3    3    0    0 -0.81776576040E+01  0.26075867804E+02  0.12963884877E+03  0.29436167783E+03  0.26286068800E+03 0.  0.
         25    1    4    4    0    0 -0.15600586094E+02  0.39088135716E+02  0.98225369903E+02  0.16452049122E+03  0.12509000000E+03 0.  0.
         25    1    3    3    0    0  0.81776576040E+01 -0.26075867804E+02 -0.88290562215E+02  0.15552992137E+03  0.12509000000E+03 0.  0.
         25    1    4    4    0    0  0.74229284901E+01 -0.13012267911E+02  0.31413478864E+02  0.12984118660E+03  0.12509000000E+03 0.  0.
<mgrwt>
<rscale>  2 0.44798747E+03</rscale>
<asrwt>0</asrwt>
<pdfrwt beam="1">  1       21 0.36120580E-01 0.44798747E+03</pdfrwt>
<pdfrwt beam="2">  1       21 0.30039949E-01 0.44798747E+03</pdfrwt>
<totfact> 0.72916782E+04</totfact>
</mgrwt>
</event>
<event>
 7    0  0.4732500E-002  0.4568140E+03  0.7546771E-02  0.1025709E+00
         21   -1    0    0  502  501  0.00000000000E+00  0.00000000000E+00  0.21585173663E+03  0.21585173663E+03  0.00000000000E+00 0.  1.
         21   -1    0    0  501  502 -0.00000000000E+00 -0.00000000000E+00 -0.24169260556E+03  0.24169260556E+03  0.00000000000E+00 0.  1.
      99926    2    1    2    0    0  0.00000000000E+00 -0.35527136788E-14 -0.25840868930E+02  0.45754434219E+03  0.45681404812E+03 0.  0.
      99925    2    3    3    0    0  0.10693268257E+03 -0.19108888148E+02 -0.53596654647E+02  0.28956327198E+03  0.26301052998E+03 0.  0.
         25    1    4    4    0    0  0.11203331028E+02 -0.22100029206E+01 -0.32477247668E+02  0.12974081260E+03  0.12509000000E+03 0.  0.
         25    1    4    4    0    0  0.95729351545E+02 -0.16898885228E+02 -0.21119406979E+02  0.15982245937E+03  0.12509000000E+03 0.  0.
         25    1    3    3    0    0 -0.10693268257E+03  0.19108888148E+02  0.27755785717E+02  0.16798107021E+03  0.12509000000E+03 0.  0.
<mgrwt>
<rscale>  2 0.45681405E+03</rscale>
<asrwt>0</asrwt>
<pdfrwt beam="1">  1       21 0.31742902E-01 0.45681405E+03</pdfrwt>
<pdfrwt beam="2">  1       21 0.35543030E-01 0.45681405E+03</pdfrwt>
<totfact> 0.67379288E+04</totfact>
</mgrwt>
</event>
<event>
 7    0  0.4732500E-002  0.4041695E+03  0.7546771E-02  0.1042345E+00
         21   -1    0    0  502  501  0.00000000000E+00  0.00000000000E+00  0.16377143642E+04  0.16377143642E+04  0.00000000000E+00 0. -1.
         21   -1    0    0  501  502 -0.00000000000E+00 -0.00000000000E+00 -0.24936126093E+02  0.24936126093E+02  0.00000000000E+00 0. -1.
      99926    2    1    2    0    0  0.00000000000E+00  0.00000000000E+00  0.16127782381E+04  0.16626504903E+04  0.40416952825E+03 0.  0.
      99925    2    3    3    0    0  0.31986028054E+02  0.39422159230E+02  0.10024612591E+04  0.10375812657E+04  0.26280999640E+03 0.  0.
         25    1    4    4    0    0  0.49164446702E+02  0.42261540060E+02  0.55951897361E+03  0.57698541620E+03  0.12509000000E+03 0.  0.
         25    1    4    4    0    0 -0.17178418649E+02 -0.28393808299E+01  0.44294228554E+03  0.46059584950E+03  0.12509000000E+03 0.  0.
         25    1    3    3    0    0 -0.31986028054E+02 -0.39422159230E+02  0.61031697897E+03  0.62506922460E+03  0.12509000000E+03 0.  0.
<mgrwt>
<rscale>  2 0.40416953E+03</rscale>
<asrwt>0</asrwt>
<pdfrwt beam="1">  1       21 0.24084027E+00 0.40416953E+03</pdfrwt>
<pdfrwt beam="2">  1       21 0.36670785E-02 0.40416953E+03</pdfrwt>
<totfact> 0.30390097E+04</totfact>
</mgrwt>
</event>
<event>
 6    0  0.4732500E-002  0.4431088E+03  0.7546771E-02  0.1029797E+00
         21   -1    0    0  502  501  0.00000000000E+00  0.00000000000E+00  0.39924924729E+02  0.39924924729E+02  0.00000000000E+00 0.  1.
         21   -1    0    0  501  502 -0.00000000000E+00 -0.00000000000E+00 -0.12294666185E+04  0.12294666185E+04  0.00000000000E+00 0.  1.
      99926    2    1    2    0    0  0.71054273576E-14 -0.71054273576E-14 -0.11895416938E+04  0.12693915433E+04  0.44310884533E+03 0.  0.
         25    1    3    3    0    0  0.12303389727E+02 -0.52034076222E+01 -0.50771602473E+03  0.52306932496E+03  0.12509000000E+03 0.  0.
         25    1    3    3    0    0 -0.50193939757E+02  0.65438389130E+02 -0.44116222612E+03  0.46591118490E+03  0.12509000000E+03 0.  0.
         25    1    3    3    0    0  0.37890550030E+02 -0.60234981508E+02 -0.24066344298E+03  0.28041103342E+03  0.12509000000E+03 0.  0.
<mgrwt>
<rscale>  2 0.44310885E+03</rscale>
<asrwt>0</asrwt>
<pdfrwt beam="1">  1       21 0.58713118E-02 0.44310885E+03</pdfrwt>
<pdfrwt beam="2">  1       21 0.18080393E+00 0.44310885E+03</pdfrwt>
<totfact> 0.32962181E+04</totfact>
</mgrwt>
</event>
<event>
 7    0  0.4732500E-002  0.4547671E+03  0.7546771E-02  0.1026310E+00
         21   -1    0    0  502  501  0.00000000000E+00  0.00000000000E+00  0.48132656946E+02  0.48132656946E+02  0.00000000000E+00 0. -1.
         21   -1    0    0  501  502 -0.00000000000E+00 -0.00000000000E+00 -0.10741829778E+04  0.10741829778E+04  0.00000000000E+00 0. -1.
      99926    2    1    2    0    0  0.35527136788E-14  0.00000000000E+00 -0.10260503208E+04  0.11223156347E+04  0.45476710860E+03 0.  0.
      99925    2    3    3    0    0  0.11785974750E+02 -0.10893359732E+03 -0.57864212502E+03  0.64500332647E+03  0.26305350119E+03 0.  0.
         25    1    3    3    0    0 -0.11785974750E+02  0.10893359732E+03 -0.44740819580E+03  0.47731230824E+03  0.12509000000E+03 0.  0.
         25    1    4    4    0    0 -0.31967501916E+02 -0.55308955957E+02 -0.25328330933E+03  0.28962207214E+03  0.12509000000E+03 0.  0.
         25    1    4    4    0    0  0.43753476666E+02 -0.53624641366E+02 -0.32535881569E+03  0.35538125433E+03  0.12509000000E+03 0.  0.
<mgrwt>
<rscale>  2 0.45476711E+03</rscale>
<asrwt>0</asrwt>
<pdfrwt beam="1">  1       21 0.70783328E-02 0.45476711E+03</pdfrwt>
<pdfrwt beam="2">  1       21 0.15796807E+00 0.45476711E+03</pdfrwt>
<totfact> 0.34783351E+04</totfact>
</mgrwt>
</event>
<event>
 7    0  0.4732500E-002  0.4531153E+03  0.7546771E-02  0.1026797E+00
         21   -1    0    0  502  501  0.00000000000E+00  0.00000000000E+00  0.18258338183E+03  0.18258338183E+03  0.00000000000E+00 0. -1.
         21   -1    0    0  501  502 -0.00000000000E+00 -0.00000000000E+00 -0.28112284152E+03  0.28112284152E+03  0.00000000000E+00 0. -1.
      99926    2    1    2    0    0  0.00000000000E+00  0.00000000000E+00 -0.98539459695E+02  0.46370622335E+03  0.45311525736E+03 0.  0.
      99925    2    3    3    0    0 -0.83299898462E+02 -0.64058910893E+02 -0.99911054474E+02  0.30032995052E+03  0.26300844706E+03 0.  0.
         25    1    4    4    0    0 -0.18704458917E+02 -0.62302496695E+02 -0.65095256724E+02  0.15529442497E+03  0.12509000000E+03 0.  0.
         25    1    3    3    0    0  0.83299898462E+02  0.64058910893E+02  0.13715947792E+01  0.16337627282E+03  0.12509000000E+03 0.  0.
         25    1    4    4    0    0 -0.64595439545E+02 -0.17564141984E+01 -0.34815797750E+02  0.14503552556E+03  0.12509000000E+03 0.  0.
<mgrwt>
<rscale>  2 0.45311526E+03</rscale>
<asrwt>0</asrwt>
<pdfrwt beam="1">  1       21 0.26850497E-01 0.45311526E+03</pdfrwt>
<pdfrwt beam="2">  1       21 0.41341594E-01 0.45311526E+03</pdfrwt>
<totfact> 0.68932003E+04</totfact>
</mgrwt>
</event>
<event>
 7    0  0.4732500E-002  0.4536277E+03  0.7546771E-02  0.1026646E+00
         21   -1    0    0  502  501  0.00000000000E+00  0.00000000000E+00  0.12021082364E+03  0.12021082364E+03  0.00000000000E+00 0.  1.
         21   -1    0    0  501  502 -0.00000000000E+00 -0.00000000000E+00 -0.42795250847E+03  0.42795250847E+03  0.00000000000E+00 0.  1.
      99926    2    1    2    0    0  0.00000000000E+00 -0.35527136788E-14 -0.30774168483E+03  0.54816333211E+03  0.45362770428E+03 0.  0.
      99925    2    3    3    0    0  0.10874391033E+03 -0.23050678156E+02 -0.20862253857E+03  0.35366735516E+03  0.26306018838E+03 0.  0.
         25    1    4    4    0    0  0.13950265062E+02 -0.23705051230E+02 -0.82847537979E+02  0.15253773959E+03  0.12509000000E+03 0.  0.
         25    1    4    4    0    0  0.94793645265E+02  0.65437307374E+00 -0.12577500059E+03  0.20112961557E+03  0.12509000000E+03 0.  0.
         25    1    3    3    0    0 -0.10874391033E+03  0.23050678156E+02 -0.99119146256E+02  0.19449597695E+03  0.12509000000E+03 0.  0.
<mgrwt>
<rscale>  2 0.45362770E+03</rscale>
<asrwt>0</asrwt>
<pdfrwt beam="1">  1       21 0.17678062E-01 0.45362770E+03</pdfrwt>
<pdfrwt beam="2">  1       21 0.62934194E-01 0.45362770E+03</pdfrwt>
<totfact> 0.62665697E+04</totfact>
</mgrwt>
</event>
<event>
 7    0  0.4732500E-002  0.5151745E+03  0.7546771E-02  0.1009892E+00
         21   -1    0    0  502  501  0.00000000000E+00  0.00000000000E+00  0.18811235058E+04  0.18811235058E+04  0.00000000000E+00 0. -1.
         21   -1    0    0  501  502 -0.00000000000E+00 -0.00000000000E+00 -0.35272107734E+02  0.35272107734E+02  0.00000000000E+00 0. -1.
      99926    2    1    2    0    0  0.14210854715E-13  0.00000000000E+00  0.18458513981E+04  0.19163956136E+04  0.51517449843E+03 0.  0.
      99925    2    3    3    0    0 -0.82371769449E+02 -0.12080159874E+03  0.13829649685E+04  0.14151077826E+04  0.26183925917E+03 0.  0.
         25    1    3    3    0    0  0.82371769449E+02  0.12080159874E+03  0.46288642962E+03  0.50128783098E+03  0.12509000000E+03 0.  0.
         25    1    4    4    0    0 -0.78423537615E+02 -0.60817513912E+02  0.80840176710E+03  0.82402059828E+03  0.12509000000E+03 0.  0.
         25    1    4    4    0    0 -0.39482318337E+01 -0.59984084829E+02  0.57456320139E+03  0.59108718431E+03  0.12509000000E+03 0.  0.
<mgrwt>
<rscale>  2 0.51517450E+03</rscale>
<asrwt>0</asrwt>
<pdfrwt beam="1">  1       21 0.27663574E+00 0.51517450E+03</pdfrwt>
<pdfrwt beam="2">  1       21 0.51870759E-02 0.51517450E+03</pdfrwt>
<totfact> 0.97282488E+03</totfact>
</mgrwt>
</event>
<event>
 7    0  0.4732500E-002  0.4563449E+03  0.7546771E-02  0.1025847E+00
         21   -1    0    0  502  501  0.00000000000E+00  0.00000000000E+00  0.10869779433E+04  0.10869779433E+04  0.00000000000E+00 0. -1.
         21   -1    0    0  501  502 -0.00000000000E+00 -0.00000000000E+00 -0.47896713833E+02  0.47896713833E+02  0.00000000000E+00 0. -1.
      99926    2    1    2    0    0  0.00000000000E+00 -0.14210854715E-13  0.10390812295E+04  0.11348746572E+04  0.45634491997E+03 0.  0.
      99925    2    3    3    0    0 -0.34875540150E+02 -0.77053870768E+02  0.84443024810E+03  0.88852101915E+03  0.26316070239E+03 0.  0.
         25    1    3    3    0    0  0.34875540150E+02  0.77053870768E+02  0.19465098142E+03  0.24635363803E+03  0.12509000000E+03 0.  0.
         25    1    4    4    0    0 -0.11984516580E+01 -0.63191903854E+02  0.52884378928E+03  0.54709954722E+03  0.12509000000E+03 0.  0.
         25    1    4    4    0    0 -0.33677088492E+02 -0.13861966914E+02  0.31558645881E+03  0.34142147194E+03  0.12509000000E+03 0.  0.
<mgrwt>
<rscale>  2 0.45634492E+03</rscale>
<asrwt>0</asrwt>
<pdfrwt beam="1">  1       21 0.15984968E+00 0.45634492E+03</pdfrwt>
<pdfrwt beam="2">  1       21 0.70436350E-02 0.45634492E+03</pdfrwt>
<totfact> 0.33934259E+04</totfact>
</mgrwt>
</event>
<event>
 7    0  0.4732500E-002  0.4440614E+03  0.7546771E-02  0.1029508E+00
         21   -1    0    0  502  501  0.00000000000E+00  0.00000000000E+00  0.25649704056E+03  0.25649704056E+03  0.00000000000E+00 0. -1.
         21   -1    0    0  501  502 -0.00000000000E+00 -0.00000000000E+00 -0.19219568755E+03  0.19219568755E+03  0.00000000000E+00 0. -1.
      99926    2    1    2    0    0  0.00000000000E+00  0.00000000000E+00  0.64301353011E+02  0.44869272811E+03  0.44406136993E+03 0.  0.
      99925    2    3    3    0    0  0.54840124685E+01 -0.99469045875E+02  0.16425200373E+02  0.28176819555E+03  0.26305771864E+03 0.  0.
         25    1    4    4    0    0  0.14119953745E+02 -0.85405648175E+02  0.29373370521E+02  0.15493160049E+03  0.12509000000E+03 0.  0.
         25    1    4    4    0    0 -0.86359412767E+01 -0.14063397700E+02 -0.12948170148E+02  0.12683659506E+03  0.12509000000E+03 0.  0.
         25    1    3    3    0    0 -0.54840124685E+01  0.99469045875E+02  0.47876152638E+02  0.16692453256E+03  0.12509000000E+03 0.  0.
<mgrwt>
<rscale>  2 0.44406137E+03</rscale>
<asrwt>0</asrwt>
<pdfrwt beam="1">  1       21 0.37720153E-01 0.44406137E+03</pdfrwt>
<pdfrwt beam="2">  1       21 0.28264072E-01 0.44406137E+03</pdfrwt>
<totfact> 0.75376339E+04</totfact>
</mgrwt>
</event>
<event>
 7    0  0.4732500E-002  0.4489088E+03  0.7546771E-02  0.1028048E+00
         21   -1    0    0  502  501  0.00000000000E+00  0.00000000000E+00  0.40878030242E+03  0.40878030242E+03  0.00000000000E+00 0. -1.
         21   -1    0    0  501  502 -0.00000000000E+00 -0.00000000000E+00 -0.12324413177E+03  0.12324413177E+03  0.00000000000E+00 0. -1.
      99926    2    1    2    0    0  0.00000000000E+00  0.35527136788E-14  0.28553617065E+03  0.53202443419E+03  0.44890878119E+03 0.  0.
      99925    2    3    3    0    0  0.97862678124E+02  0.30731807975E+02  0.14204997910E+03  0.31578997103E+03  0.26272335536E+03 0.  0.
         25    1    4    4    0    0  0.72210832460E+02 -0.10002814560E+02  0.97482178195E+02  0.17454152454E+03  0.12509000000E+03 0.  0.
         25    1    3    3    0    0 -0.97862678124E+02 -0.30731807975E+02  0.14348619155E+03  0.21623446316E+03  0.12509000000E+03 0.  0.
         25    1    4    4    0    0  0.25651845664E+02  0.40734622535E+02  0.44567800902E+02  0.14124844649E+03  0.12509000000E+03 0.  0.
<mgrwt>
<rscale>  2 0.44890878E+03</rscale>
<asrwt>0</asrwt>
<pdfrwt beam="1">  1       21 0.60114750E-01 0.44890878E+03</pdfrwt>
<pdfrwt beam="2">  1       21 0.18124137E-01 0.44890878E+03</pdfrwt>
<totfact> 0.66204986E+04</totfact>
</mgrwt>
</event>
<event>
 7    0  0.4732500E-002  0.4530109E+03  0.7546771E-02  0.1026828E+00
         21   -1    0    0  502  501  0.00000000000E+00  0.00000000000E+00  0.14726788729E+03  0.14726788729E+03  0.00000000000E+00 0.  1.
         21   -1    0    0  501  502 -0.00000000000E+00 -0.00000000000E+00 -0.34837679489E+03  0.34837679489E+03  0.00000000000E+00 0.  1.
      99926    2    1    2    0    0  0.00000000000E+00  0.14210854715E-13 -0.20110890760E+03  0.49564468218E+03  0.45301088095E+03 0.  0.
      99925    2    3    3    0    0 -0.37885991162E+02 -0.10442197066E+03 -0.12303220266E+03  0.31102947090E+03  0.26317886046E+03 0.  0.
         25    1    3    3    0    0  0.37885991162E+02  0.10442197066E+03 -0.78076704942E+02  0.18461521128E+03  0.12509000000E+03 0.  0.
         25    1    4    4    0    0  0.86774587157E+01 -0.18495179358E+02 -0.49270185901E+02  0.13598687168E+03  0.12509000000E+03 0.  0.
         25    1    4    4    0    0 -0.46563449878E+02 -0.85926791300E+02 -0.73762016759E+02  0.17504259923E+03  0.12509000000E+03 0.  0.
<mgrwt>
<rscale>  2 0.45301088E+03</rscale>
<asrwt>0</asrwt>
<pdfrwt beam="1">  1       21 0.21657042E-01 0.45301088E+03</pdfrwt>
<pdfrwt beam="2">  1       21 0.51231882E-01 0.45301088E+03</pdfrwt>
<totfact> 0.66623542E+04</totfact>
</mgrwt>
</event>
<event>
 7    0  0.4732500E-002  0.4402948E+03  0.7546771E-02  0.1030656E+00
         21   -1    0    0  502  501  0.00000000000E+00  0.00000000000E+00  0.41835134708E+02  0.41835134708E+02  0.00000000000E+00 0.  1.
         21   -1    0    0  501  502 -0.00000000000E+00 -0.00000000000E+00 -0.11584730977E+04  0.11584730977E+04  0.00000000000E+00 0.  1.
      99926    2    1    2    0    0  0.00000000000E+00 -0.71054273576E-14 -0.11166379630E+04  0.12003082324E+04  0.44029480168E+03 0.  0.
      99925    2    3    3    0    0  0.88948898622E+02  0.38297957689E+02 -0.66419305446E+03  0.72100400388E+03  0.26327878738E+03 0.  0.
         25    1    4    4    0    0  0.53410719005E+02 -0.64221908708E+00 -0.42180833895E+03  0.44319623222E+03  0.12509000000E+03 0.  0.
         25    1    3    3    0    0 -0.88948898622E+02 -0.38297957689E+02 -0.45244490850E+03  0.47930422850E+03  0.12509000000E+03 0.  0.
         25    1    4    4    0    0  0.35538179617E+02  0.38940176777E+02 -0.24238471552E+03  0.27780777166E+03  0.12509000000E+03 0.  0.
<mgrwt>
<rscale>  2 0.44029480E+03</rscale>
<asrwt>0</asrwt>
<pdfrwt beam="1">  1       21 0.61522263E-02 0.44029480E+03</pdfrwt>
<pdfrwt beam="2">  1       21 0.17036367E+00 0.44029480E+03</pdfrwt>
<totfact> 0.36108491E+04</totfact>
</mgrwt>
</event>
<event>
 7    0  0.4732500E-002  0.4472368E+03  0.7546771E-02  0.1028549E+00
         21   -1    0    0  502  501  0.00000000000E+00  0.00000000000E+00  0.53232824114E+02  0.53232824114E+02  0.00000000000E+00 0.  1.
         21   -1    0    0  501  502 -0.00000000000E+00 -0.00000000000E+00 -0.93936764233E+03  0.93936764233E+03  0.00000000000E+00 0.  1.
      99926    2    1    2    0    0  0.00000000000E+00 -0.35527136788E-14 -0.88613481821E+03  0.99260046644E+03  0.44723681639E+03 0.  0.
      99925    2    3    3    0    0  0.51317423729E+02 -0.19579374523E+02 -0.76185436394E+03  0.80791162190E+03  0.26321528652E+03 0.  0.
         25    1    4    4    0    0  0.38552626718E+02 -0.39984096450E+02 -0.46875296348E+03  0.48832559002E+03  0.12509000000E+03 0.  0.
         25    1    3    3    0    0 -0.51317423729E+02  0.19579374523E+02 -0.12428045427E+03  0.18468884454E+03  0.12509000000E+03 0.  0.
         25    1    4    4    0    0  0.12764797010E+02  0.20404721927E+02 -0.29310140046E+03  0.31958603188E+03  0.12509000000E+03 0.  0.
<mgrwt>
<rscale>  2 0.44723682E+03</rscale>
<asrwt>0</asrwt>
<pdfrwt beam="1">  1       21 0.78283572E-02 0.44723682E+03</pdfrwt>
<pdfrwt beam="2">  1       21 0.13814229E+00 0.44723682E+03</pdfrwt>
<totfact> 0.41941799E+04</totfact>
</mgrwt>
</event>
<event>
 7    0  0.4732500E-002  0.4252630E+03  0.7546771E-02  0.1035367E+00
         21   -1    0    0  502  501  0.00000000000E+00  0.00000000000E+00  0.55564068451E+03  0.55564068451E+03  0.00000000000E+00 0.  1.
         21   -1    0    0  501  502 -0.00000000000E+00 -0.00000000000E+00 -0.81369404922E+02  0.81369404922E+02  0.00000000000E+00 0.  1.
      99926    2    1    2    0    0 -0.17763568394E-14  0.00000000000E+00  0.47427127958E+03  0.63701008943E+03  0.42526298616E+03 0.  0.
      99925    2    3    3    0    0  0.73191477348E+01 -0.57590529169E+02  0.39448136833E+03  0.47768596379E+03  0.26305530039E+03 0.  0.
         25    1    4    4    0    0  0.38458301349E+02 -0.19443715533E+02  0.22909503314E+03  0.26455460935E+03  0.12509000000E+03 0.  0.
         25    1    3    3    0    0 -0.73191477348E+01  0.57590529169E+02  0.79789911253E+02  0.15932412564E+03  0.12509000000E+03 0.  0.
         25    1    4    4    0    0 -0.31139153615E+02 -0.38146813636E+02  0.16538633519E+03  0.21313135444E+03  0.12509000000E+03 0.  0.
<mgrwt>
<rscale>  2 0.42526299E+03</rscale>
<asrwt>0</asrwt>
<pdfrwt beam="1">  1       21 0.81711863E-01 0.42526299E+03</pdfrwt>
<pdfrwt beam="2">  1       21 0.11966089E-01 0.42526299E+03</pdfrwt>
<totfact> 0.71892642E+04</totfact>
</mgrwt>
</event>
<event>
 7    0  0.4732500E-002  0.4505874E+03  0.7546771E-02  0.1027547E+00
         21   -1    0    0  502  501  0.00000000000E+00  0.00000000000E+00  0.60206306948E+02  0.60206306948E+02  0.00000000000E+00 0.  1.
         21   -1    0    0  501  502 -0.00000000000E+00 -0.00000000000E+00 -0.84305539028E+03  0.84305539028E+03  0.00000000000E+00 0.  1.
      99926    2    1    2    0    0  0.00000000000E+00 -0.35527136788E-14 -0.78284908333E+03  0.90326169723E+03  0.45058740152E+03 0.  0.
      99925    2    3    3    0    0  0.64325328687E+02  0.16562141423E+02 -0.66821100273E+03  0.72104904656E+03  0.26266657751E+03 0.  0.
         25    1    4    4    0    0  0.20521348351E+02  0.14272812552E+02 -0.22736829340E+03  0.26070805101E+03  0.12509000000E+03 0.  0.
         25    1    4    4    0    0  0.43803980337E+02  0.22893288713E+01 -0.44084270932E+03  0.46034099555E+03  0.12509000000E+03 0.  0.
         25    1    3    3    0    0 -0.64325328687E+02 -0.16562141423E+02 -0.11463808061E+03  0.18221265067E+03  0.12509000000E+03 0.  0.
<mgrwt>
<rscale>  2 0.45058740E+03</rscale>
<asrwt>0</asrwt>
<pdfrwt beam="1">  1       21 0.88538691E-02 0.45058740E+03</pdfrwt>
<pdfrwt beam="2">  1       21 0.12397873E+00 0.45058740E+03</pdfrwt>
<totfact> 0.44614138E+04</totfact>
</mgrwt>
</event>
<event>
 7    0  0.4732500E-002  0.4368433E+03  0.7546771E-02  0.1031720E+00
         21   -1    0    0  502  501  0.00000000000E+00  0.00000000000E+00  0.59701136550E+02  0.59701136550E+02  0.00000000000E+00 0.  1.
         21   -1    0    0  501  502 -0.00000000000E+00 -0.00000000000E+00 -0.79911391594E+03  0.79911391594E+03  0.00000000000E+00 0.  1.
      99926    2    1    2    0    0  0.71054273576E-14 -0.13322676296E-14 -0.73941277939E+03  0.85881505249E+03  0.43684326258E+03 0.  0.
      99925    2    3    3    0    0  0.38890184569E+02 -0.25852257206E+01 -0.30270172364E+03  0.40287296827E+03  0.26298130204E+03 0.  0.
         25    1    3    3    0    0 -0.38890184569E+02  0.25852257206E+01 -0.43671105575E+03  0.45594208422E+03  0.12509000000E+03 0.  0.
         25    1    4    4    0    0 -0.38041649541E+01 -0.21655656935E+02 -0.18772180157E+03  0.22665044018E+03  0.12509000000E+03 0.  0.
         25    1    4    4    0    0  0.42694349523E+02  0.19070431215E+02 -0.11497992207E+03  0.17622252809E+03  0.12509000000E+03 0.  0.
<mgrwt>
<rscale>  2 0.43684326E+03</rscale>
<asrwt>0</asrwt>
<pdfrwt beam="1">  1       21 0.87795788E-02 0.43684326E+03</pdfrwt>
<pdfrwt beam="2">  1       21 0.11751675E+00 0.43684326E+03</pdfrwt>
<totfact> 0.52076208E+04</totfact>
</mgrwt>
</event>
<event>
 7    0  0.4732500E-002  0.4479335E+03  0.7546771E-02  0.1028340E+00
         21   -1    0    0  502  501  0.00000000000E+00  0.00000000000E+00  0.22820529780E+03  0.22820529780E+03  0.00000000000E+00 0. -1.
         21   -1    0    0  501  502 -0.00000000000E+00 -0.00000000000E+00 -0.21980694981E+03  0.21980694981E+03  0.00000000000E+00 0. -1.
      99926    2    1    2    0    0  0.00000000000E+00  0.46698755973E-14  0.83983479884E+01  0.44801224762E+03  0.44793352383E+03 0.  0.
      99925    2    3    3    0    0  0.99675916873E+02  0.47395863570E-01 -0.31934335158E+02  0.28305915101E+03  0.26299694021E+03 0.  0.
         25    1    3    3    0    0 -0.99675916873E+02 -0.47395863570E-01  0.40332683146E+02  0.16495309661E+03  0.12509000000E+03 0.  0.
         25    1    4    4    0    0  0.29050950695E+02 -0.33858146715E+02 -0.41689617682E+01  0.13287294750E+03  0.12509000000E+03 0.  0.
         25    1    4    4    0    0  0.70624966178E+02  0.33905542578E+02 -0.27765373389E+02  0.15018620351E+03  0.12509000000E+03 0.  0.
<mgrwt>
<rscale>  2 0.44793352E+03</rscale>
<asrwt>0</asrwt>
<pdfrwt beam="1">  1       21 0.33559603E-01 0.44793352E+03</pdfrwt>
<pdfrwt beam="2">  1       21 0.32324551E-01 0.44793352E+03</pdfrwt>
<totfact> 0.73096026E+04</totfact>
</mgrwt>
</event>
<event>
 7    0  0.4732500E-002  0.4528325E+03  0.7546771E-02  0.1026881E+00
         21   -1    0    0  502  501  0.00000000000E+00  0.00000000000E+00  0.16011615289E+04  0.16011615289E+04  0.00000000000E+00 0.  1.
         21   -1    0    0  501  502 -0.00000000000E+00 -0.00000000000E+00 -0.32016958553E+02  0.32016958553E+02  0.00000000000E+00 0.  1.
      99926    2    1    2    0    0  0.00000000000E+00  0.00000000000E+00  0.15691445703E+04  0.16331784875E+04  0.45283251786E+03 0.  0.
      99925    2    3    3    0    0  0.88105611314E+02  0.67588998659E+02  0.10151641161E+04  0.10544966031E+04  0.26281939019E+03 0.  0.
         25    1    3    3    0    0 -0.88105611314E+02 -0.67588998659E+02  0.55398045425E+03  0.57868188435E+03  0.12509000000E+03 0.  0.
         25    1    4    4    0    0  0.14179356370E+02  0.37490759029E+02  0.58140122868E+03  0.59605495382E+03  0.12509000000E+03 0.  0.
         25    1    4    4    0    0  0.73926254944E+02  0.30098239630E+02  0.43376288741E+03  0.45844164928E+03  0.12509000000E+03 0.  0.
<mgrwt>
<rscale>  2 0.45283252E+03</rscale>
<asrwt>0</asrwt>
<pdfrwt beam="1">  1       21 0.23546488E+00 0.45283252E+03</pdfrwt>
<pdfrwt beam="2">  1       21 0.47083773E-02 0.45283252E+03</pdfrwt>
<totfact> 0.21042215E+04</totfact>
</mgrwt>
</event>
<event>
 7    0  0.4732500E-002  0.4563951E+03  0.7546771E-02  0.1025832E+00
         21   -1    0    0  502  501  0.00000000000E+00  0.00000000000E+00  0.87950120687E+02  0.87950120687E+02  0.00000000000E+00 0. -1.
         21   -1    0    0  501  502 -0.00000000000E+00 -0.00000000000E+00 -0.59208698353E+03  0.59208698353E+03  0.00000000000E+00 0. -1.
      99926    2    1    2    0    0 -0.14210854715E-13  0.00000000000E+00 -0.50413686284E+03  0.68003710421E+03  0.45639509927E+03 0.  0.
      99925    2    3    3    0    0  0.81784657536E+02 -0.31397973829E+02 -0.42668147790E+03  0.50880215531E+03  0.26296004772E+03 0.  0.
         25    1    4    4    0    0  0.67707086428E+02 -0.28258150558E+02 -0.28122683809E+03  0.31641557355E+03  0.12509000000E+03 0.  0.
         25    1    4    4    0    0  0.14077571108E+02 -0.31398232712E+01 -0.14545463981E+03  0.19238658176E+03  0.12509000000E+03 0.  0.
         25    1    3    3    0    0 -0.81784657536E+02  0.31397973829E+02 -0.77455384938E+02  0.17123494890E+03  0.12509000000E+03 0.  0.
<mgrwt>
<rscale>  2 0.45639510E+03</rscale>
<asrwt>0</asrwt>
<pdfrwt beam="1">  1       21 0.12933842E-01 0.45639510E+03</pdfrwt>
<pdfrwt beam="2">  1       21 0.87071613E-01 0.45639510E+03</pdfrwt>
<totfact> 0.53411435E+04</totfact>
</mgrwt>
</event>
<event>
 7    0  0.4732500E-002  0.4495136E+03  0.7546771E-02  0.1027867E+00
         21   -1    0    0  502  501  0.00000000000E+00  0.00000000000E+00  0.31719518144E+03  0.31719518144E+03  0.00000000000E+00 0. -1.
         21   -1    0    0  501  502 -0.00000000000E+00 -0.00000000000E+00 -0.15925724135E+03  0.15925724135E+03  0.00000000000E+00 0. -1.
      99926    2    1    2    0    0  0.35527136788E-14 -0.14210854715E-13  0.15793794010E+03  0.47645242279E+03  0.44951364636E+03 0.  0.
      99925    2    3    3    0    0  0.31432632218E+02 -0.67758963221E+02  0.18251657648E+03  0.32869957195E+03  0.26296733723E+03 0.  0.
         25    1    3    3    0    0 -0.31432632218E+02  0.67758963221E+02 -0.24578636376E+02  0.14775285084E+03  0.12509000000E+03 0.  0.
         25    1    4    4    0    0  0.22361634433E+02 -0.34123828684E+02  0.13985830602E+03  0.19202169732E+03  0.12509000000E+03 0.  0.
         25    1    4    4    0    0  0.90709977853E+01 -0.33635134537E+02  0.42658270459E+02  0.13667787463E+03  0.12509000000E+03 0.  0.
<mgrwt>
<rscale>  2 0.44951365E+03</rscale>
<asrwt>0</asrwt>
<pdfrwt beam="1">  1       21 0.46646350E-01 0.44951365E+03</pdfrwt>
<pdfrwt beam="2">  1       21 0.23420183E-01 0.44951365E+03</pdfrwt>
<totfact> 0.69956367E+04</totfact>
</mgrwt>
</event>
<event>
 7    0  0.4732500E-002  0.4551036E+03  0.7546771E-02  0.1026211E+00
         21   -1    0    0  502  501  0.00000000000E+00  0.00000000000E+00  0.11062858094E+03  0.11062858094E+03  0.00000000000E+00 0. -1.
         21   -1    0    0  501  502 -0.00000000000E+00 -0.00000000000E+00 -0.46805096582E+03  0.46805096582E+03  0.00000000000E+00 0. -1.
      99926    2    1    2    0    0  0.00000000000E+00  0.00000000000E+00 -0.35742238488E+03  0.57867954676E+03  0.45510356692E+03 0.  0.
      99925    2    3    3    0    0 -0.35255082687E+02  0.35059722090E+02 -0.35391566293E+03  0.44402476531E+03  0.26349495398E+03 0.  0.
         25    1    3    3    0    0  0.35255082687E+02 -0.35059722090E+02 -0.35067219495E+01  0.13465478145E+03  0.12509000000E+03 0.  0.
         25    1    4    4    0    0  0.22305079738E+02  0.19738133024E+02 -0.18965036969E+03  0.22913289005E+03  0.12509000000E+03 0.  0.
         25    1    4    4    0    0 -0.57560162425E+02  0.15321589066E+02 -0.16426529324E+03  0.21489187526E+03  0.12509000000E+03 0.  0.
<mgrwt>
<rscale>  2 0.45510357E+03</rscale>
<asrwt>0</asrwt>
<pdfrwt beam="1">  1       21 0.16268909E-01 0.45510357E+03</pdfrwt>
<pdfrwt beam="2">  1       21 0.68831026E-01 0.45510357E+03</pdfrwt>
<totfact> 0.59961058E+04</totfact>
</mgrwt>
</event>
<event>
 7    0  0.4732500E-002  0.4303715E+03  0.7546771E-02  0.1033743E+00
         21   -1    0    0  502  501  0.00000000000E+00  0.00000000000E+00  0.78374781998E+02  0.78374781998E+02  0.00000000000E+00 0.  1.
         21   -1    0    0  501  502 -0.00000000000E+00 -0.00000000000E+00 -0.59081380145E+03  0.59081380145E+03  0.00000000000E+00 0.  1.
      99926    2    1    2    0    0  0.00000000000E+00  0.71054273576E-14 -0.51243901945E+03  0.66918858345E+03  0.43037148089E+03 0.  0.
      99925    2    3    3    0    0  0.66466040590E+02  0.50139897202E+02 -0.28543291293E+03  0.39695518296E+03  0.26300137956E+03 0.  0.
         25    1    4    4    0    0  0.17146463936E+02  0.62414053902E+02 -0.14602212868E+03  0.20287800648E+03  0.12509000000E+03 0.  0.
         25    1    4    4    0    0  0.49319576654E+02 -0.12274156700E+02 -0.13941078425E+03  0.19407717648E+03  0.12509000000E+03 0.  0.
         25    1    3    3    0    0 -0.66466040590E+02 -0.50139897202E+02 -0.22700610652E+03  0.27223340049E+03  0.12509000000E+03 0.  0.
<mgrwt>
<rscale>  2 0.43037148E+03</rscale>
<asrwt>0</asrwt>
<pdfrwt beam="1">  1       21 0.11525703E-01 0.43037148E+03</pdfrwt>
<pdfrwt beam="2">  1       21 0.86884388E-01 0.43037148E+03</pdfrwt>
<totfact> 0.66622016E+04</totfact>
</mgrwt>
</event>
<event>
 7    0  0.4732500E-002  0.4569826E+03  0.7546771E-02  0.1025660E+00
         21   -1    0    0  502  501  0.00000000000E+00  0.00000000000E+00  0.56175308833E+03  0.56175308833E+03  0.00000000000E+00 0.  1.
         21   -1    0    0  501  502 -0.00000000000E+00 -0.00000000000E+00 -0.92938101624E+02  0.92938101624E+02  0.00000000000E+00 0.  1.
      99926    2    1    2    0    0  0.00000000000E+00  0.00000000000E+00  0.46881498671E+03  0.65469118996E+03  0.45698256252E+03 0.  0.
      99925    2    3    3    0    0 -0.55778192376E+02 -0.46883252627E+01  0.43844252246E+03  0.51432316716E+03  0.26298913978E+03 0.  0.
         25    1    4    4    0    0 -0.16156750088E+02  0.23465591567E+02  0.27021607395E+03  0.29912524013E+03  0.12509000000E+03 0.  0.
         25    1    3    3    0    0  0.55778192376E+02  0.46883252627E+01  0.30372464249E+02  0.14036802279E+03  0.12509000000E+03 0.  0.
         25    1    4    4    0    0 -0.39621442288E+02 -0.28153916830E+02  0.16822644851E+03  0.21519792703E+03  0.12509000000E+03 0.  0.
<mgrwt>
<rscale>  2 0.45698256E+03</rscale>
<asrwt>0</asrwt>
<pdfrwt beam="1">  1       21 0.82610747E-01 0.45698256E+03</pdfrwt>
<pdfrwt beam="2">  1       21 0.13667368E-01 0.45698256E+03</pdfrwt>
<totfact> 0.54573589E+04</totfact>
</mgrwt>
</event>
<event>
 7    0  0.4732500E-002  0.4566393E+03  0.7546771E-02  0.1025760E+00
         21   -1    0    0  502  501  0.00000000000E+00  0.00000000000E+00  0.17120265766E+03  0.17120265766E+03  0.00000000000E+00 0. -1.
         21   -1    0    0  501  502 -0.00000000000E+00 -0.00000000000E+00 -0.30449213677E+03  0.30449213677E+03  0.00000000000E+00 0. -1.
      99926    2    1    2    0    0  0.00000000000E+00  0.17763568394E-14 -0.13328947911E+03  0.47569479443E+03  0.45663930209E+03 0.  0.
      99925    2    3    3    0    0  0.27700423847E+02 -0.59418840667E+01  0.32066241097E+02  0.26642787929E+03  0.26296948792E+03 0.  0.
         25    1    3    3    0    0 -0.27700423847E+02  0.59418840667E+01 -0.16535572021E+03  0.20926691514E+03  0.12509000000E+03 0.  0.
         25    1    4    4    0    0  0.35916866548E+02  0.29085239388E+02  0.47972260091E+01  0.13344097545E+03  0.12509000000E+03 0.  0.
         25    1    4    4    0    0 -0.82164427011E+01 -0.35027123455E+02  0.27269015088E+02  0.13298690384E+03  0.12509000000E+03 0.  0.
<mgrwt>
<rscale>  2 0.45663930E+03</rscale>
<asrwt>0</asrwt>
<pdfrwt beam="1">  1       21 0.25176862E-01 0.45663930E+03</pdfrwt>
<pdfrwt beam="2">  1       21 0.44778255E-01 0.45663930E+03</pdfrwt>
<totfact> 0.66150110E+04</totfact>
</mgrwt>
</event>
<event>
 7    0  0.4732500E-002  0.4684204E+03  0.7546771E-02  0.1022367E+00
         21   -1    0    0  502  501  0.00000000000E+00  0.00000000000E+00  0.22500991232E+03  0.22500991232E+03  0.00000000000E+00 0.  1.
         21   -1    0    0  501  502 -0.00000000000E+00 -0.00000000000E+00 -0.24378669886E+03  0.24378669886E+03  0.00000000000E+00 0.  1.
      99926    2    1    2    0    0  0.00000000000E+00  0.00000000000E+00 -0.18776786543E+02  0.46879661119E+03  0.46842042542E+03 0.  0.
      99925    2    3    3    0    0 -0.98397709176E+02  0.23220590694E+02 -0.86192572043E+02  0.29440136688E+03  0.26271981337E+03 0.  0.
         25    1    3    3    0    0  0.98397709176E+02 -0.23220590694E+02  0.67415785500E+02  0.17439524431E+03  0.12509000000E+03 0.  0.
         25    1    4    4    0    0 -0.12303874578E+02  0.28608020962E+02 -0.49491549684E+02  0.13808231524E+03  0.12509000000E+03 0.  0.
         25    1    4    4    0    0 -0.86093834598E+02 -0.53874302684E+01 -0.36701022359E+02  0.15631905163E+03  0.12509000000E+03 0.  0.
<mgrwt>
<rscale>  2 0.46842043E+03</rscale>
<asrwt>0</asrwt>
<pdfrwt beam="1">  1       21 0.33089693E-01 0.46842043E+03</pdfrwt>
<pdfrwt beam="2">  1       21 0.35850985E-01 0.46842043E+03</pdfrwt>
<totfact> 0.60773626E+04</totfact>
</mgrwt>
</event>
<event>
 7    0  0.4732500E-002  0.4364328E+03  0.7546771E-02  0.1031847E+00
         21   -1    0    0  502  501  0.00000000000E+00  0.00000000000E+00  0.16462284198E+03  0.16462284198E+03  0.00000000000E+00 0. -1.
         21   -1    0    0  501  502 -0.00000000000E+00 -0.00000000000E+00 -0.28925756561E+03  0.28925756561E+03  0.00000000000E+00 0. -1.
      99926    2    1    2    0    0  0.00000000000E+00  0.00000000000E+00 -0.12463472363E+03  0.45388040759E+03  0.43643282422E+03 0.  0.
      99925    2    3    3    0    0 -0.26825821871E+02  0.34578640288E+02 -0.16706851431E+03  0.31472782308E+03  0.26310911627E+03 0.  0.
         25    1    4    4    0    0 -0.33281058124E+02 -0.18356171136E+02 -0.80955503385E+02  0.15377216743E+03  0.12509000000E+03 0.  0.
         25    1    3    3    0    0  0.26825821871E+02 -0.34578640288E+02  0.42433790680E+02  0.13915258451E+03  0.12509000000E+03 0.  0.
         25    1    4    4    0    0  0.64552362528E+01  0.52934811423E+02 -0.86113010920E+02  0.16095565565E+03  0.12509000000E+03 0.  0.
<mgrwt>
<rscale>  2 0.43643282E+03</rscale>
<asrwt>0</asrwt>
<pdfrwt beam="1">  1       21 0.24209242E-01 0.43643282E+03</pdfrwt>
<pdfrwt beam="2">  1       21 0.42537877E-01 0.43643282E+03</pdfrwt>
<totfact> 0.79771215E+04</totfact>
</mgrwt>
</event>
<event>
 7    0  0.4732500E-002  0.4209077E+03  0.7546771E-02  0.1036771E+00
         21   -1    0    0  502  501  0.00000000000E+00  0.00000000000E+00  0.85046190437E+02  0.85046190437E+02  0.00000000000E+00 0. -1.
         21   -1    0    0  501  502 -0.00000000000E+00 -0.00000000000E+00 -0.52078545415E+03  0.52078545415E+03  0.00000000000E+00 0. -1.
      99926    2    1    2    0    0  0.00000000000E+00  0.00000000000E+00 -0.43573926371E+03  0.60583164459E+03  0.42090768066E+03 0.  0.
      99925    2    3    3    0    0 -0.53542728339E+02  0.43415826282E+02 -0.23500402112E+03  0.35947031757E+03  0.26313544334E+03 0.  0.
         25    1    3    3    0    0  0.53542728339E+02 -0.43415826282E+02 -0.20073524259E+03  0.24636132701E+03  0.12509000000E+03 0.  0.
         25    1    4    4    0    0 -0.21440345268E+01  0.47868821936E+00 -0.14467476804E+03  0.19126714991E+03  0.12509000000E+03 0.  0.
         25    1    4    4    0    0 -0.51398693812E+02  0.42937138063E+02 -0.90329253086E+02  0.16820316767E+03  0.12509000000E+03 0.  0.
<mgrwt>
<rscale>  2 0.42090768E+03</rscale>
<asrwt>0</asrwt>
<pdfrwt beam="1">  1       21 0.12506793E-01 0.42090768E+03</pdfrwt>
<pdfrwt beam="2">  1       21 0.76586097E-01 0.42090768E+03</pdfrwt>
<totfact> 0.77067324E+04</totfact>
</mgrwt>
</event>
<event>
 7    0  0.4732500E-002  0.4572634E+03  0.7546771E-02  0.1025578E+00
         21   -1    0    0  502  501  0.00000000000E+00  0.00000000000E+00  0.90274464452E+02  0.90274464452E+02  0.00000000000E+00 0.  1.
         21   -1    0    0  501  502 -0.00000000000E+00 -0.00000000000E+00 -0.57903917883E+03  0.57903917883E+03  0.00000000000E+00 0.  1.
      99926    2    1    2    0    0  0.00000000000E+00  0.14210854715E-13 -0.48876471437E+03  0.66931364328E+03  0.45726338915E+03 0.  0.
      99925    2    3    3    0    0  0.75014618706E+02 -0.77648344355E+02 -0.24761086145E+03  0.37697967796E+03  0.26295642316E+03 0.  0.
         25    1    4    4    0    0  0.73778719646E+02 -0.26653051622E+02 -0.14866077549E+03  0.20952617713E+03  0.12509000000E+03 0.  0.
         25    1    4    4    0    0  0.12358990605E+01 -0.50995292733E+02 -0.98950085964E+02  0.16745350083E+03  0.12509000000E+03 0.  0.
         25    1    3    3    0    0 -0.75014618706E+02  0.77648344355E+02 -0.24115385292E+03  0.29233396532E+03  0.12509000000E+03 0.  0.
<mgrwt>
<rscale>  2 0.45726339E+03</rscale>
<asrwt>0</asrwt>
<pdfrwt beam="1">  1       21 0.13275657E-01 0.45726339E+03</pdfrwt>
<pdfrwt beam="2">  1       21 0.85152820E-01 0.45726339E+03</pdfrwt>
<totfact> 0.53637454E+04</totfact>
</mgrwt>
</event>
<event>
 7    0  0.4732500E-002  0.4501433E+03  0.7546771E-02  0.1027679E+00
         21   -1    0    0  502  501  0.00000000000E+00  0.00000000000E+00  0.22252858288E+03  0.22252858288E+03  0.00000000000E+00 0.  1.
         21   -1    0    0  501  502 -0.00000000000E+00 -0.00000000000E+00 -0.22764379311E+03  0.22764379311E+03  0.00000000000E+00 0.  1.
      99926    2    1    2    0    0  0.00000000000E+00  0.71054273576E-14 -0.51152102287E+01  0.45017237599E+03  0.45014331354E+03 0.  0.
      99925    2    3    3    0    0  0.82043812144E+02 -0.62258308442E+02 -0.37657389371E+02  0.28490354770E+03  0.26295373821E+03 0.  0.
         25    1    4    4    0    0  0.39730641580E+01 -0.15027584354E+02 -0.22432136064E+01  0.12607201766E+03  0.12509000000E+03 0.  0.
         25    1    3    3    0    0 -0.82043812144E+02  0.62258308442E+02  0.32542179142E+02  0.16526882829E+03  0.12509000000E+03 0.  0.
         25    1    4    4    0    0  0.78070747985E+02 -0.47230724088E+02 -0.35414175764E+02  0.15883153004E+03  0.12509000000E+03 0.  0.
<mgrwt>
<rscale>  2 0.45014331E+03</rscale>
<asrwt>0</asrwt>
<pdfrwt beam="1">  1       21 0.32724792E-01 0.45014331E+03</pdfrwt>
<pdfrwt beam="2">  1       21 0.33477028E-01 0.45014331E+03</pdfrwt>
<totfact> 0.71636953E+04</totfact>
</mgrwt>
</event>
<event>
 7    0  0.4732500E-002  0.4573356E+03  0.7546771E-02  0.1025557E+00
         21   -1    0    0  502  501  0.00000000000E+00  0.00000000000E+00  0.20169058627E+04  0.20169058627E+04  0.00000000000E+00 0.  1.
         21   -1    0    0  501  502 -0.00000000000E+00 -0.00000000000E+00 -0.25925335211E+02  0.25925335211E+02  0.00000000000E+00 0.  1.
      99926    2    1    2    0    0 -0.14210854715E-13  0.00000000000E+00  0.19909805274E+04  0.20428311979E+04  0.45733559047E+03 0.  0.
      99925    2    3    3    0    0  0.11264450695E+03  0.41075694803E+01  0.13715833842E+04  0.14009542733E+04  0.26215689790E+03 0.  0.
         25    1    4    4    0    0  0.82470281742E+02  0.10098671339E+02  0.58912401840E+03  0.60796212686E+03  0.12509000000E+03 0.  0.
         25    1    4    4    0    0  0.30174225210E+02 -0.59911018587E+01  0.78245936580E+03  0.79299214649E+03  0.12509000000E+03 0.  0.
         25    1    3    3    0    0 -0.11264450695E+03 -0.41075694803E+01  0.61939714325E+03  0.64187692452E+03  0.12509000000E+03 0.  0.
<mgrwt>
<rscale>  2 0.45733559E+03</rscale>
<asrwt>0</asrwt>
<pdfrwt beam="1">  1       21 0.29660370E+00 0.45733559E+03</pdfrwt>
<pdfrwt beam="2">  1       21 0.38125507E-02 0.45733559E+03</pdfrwt>
<totfact> 0.12789537E+04</totfact>
</mgrwt>
</event>
<event>
 7    0  0.4732500E-002  0.4599148E+03  0.7546771E-02  0.1024806E+00
         21   -1    0    0  502  501  0.00000000000E+00  0.00000000000E+00  0.70326097023E+03  0.70326097023E+03  0.00000000000E+00 0.  1.
         21   -1    0    0  501  502 -0.00000000000E+00 -0.00000000000E+00 -0.75193147277E+02  0.75193147277E+02  0.00000000000E+00 0.  1.
      99926    2    1    2    0    0 -0.17763568394E-14  0.00000000000E+00  0.62806782296E+03  0.77845411751E+03  0.45991479954E+03 0.  0.
      99925    2    3    3    0    0  0.11522655373E+02  0.11717640977E+03  0.39830579910E+03  0.49157229812E+03  0.26293104055E+03 0.  0.
         25    1    3    3    0    0 -0.11522655373E+02 -0.11717640977E+03  0.22976202386E+03  0.28688181940E+03  0.12509000000E+03 0.  0.
         25    1    4    4    0    0  0.24227389987E+01  0.89500618855E+02  0.26532306769E+03  0.30669214009E+03  0.12509000000E+03 0.  0.
         25    1    4    4    0    0  0.90999163738E+01  0.27675790916E+02  0.13298273141E+03  0.18488015803E+03  0.12509000000E+03 0.  0.
<mgrwt>
<rscale>  2 0.45991480E+03</rscale>
<asrwt>0</asrwt>
<pdfrwt beam="1">  1       21 0.10342073E+00 0.45991480E+03</pdfrwt>
<pdfrwt beam="2">  1       21 0.11057816E-01 0.45991480E+03</pdfrwt>
<totfact> 0.46985665E+04</totfact>
</mgrwt>
</event>
<event>
 7    0  0.4732500E-002  0.4593340E+03  0.7546771E-02  0.1024975E+00
         21   -1    0    0  502  501  0.00000000000E+00  0.00000000000E+00  0.27851530460E+03  0.27851530460E+03  0.00000000000E+00 0.  1.
         21   -1    0    0  501  502 -0.00000000000E+00 -0.00000000000E+00 -0.18938614078E+03  0.18938614078E+03  0.00000000000E+00 0.  1.
      99926    2    1    2    0    0  0.00000000000E+00  0.00000000000E+00  0.89129163821E+02  0.46790144538E+03  0.45933403395E+03 0.  0.
      99925    2    3    3    0    0 -0.73352327693E+02 -0.37741027156E+02 -0.28802819153E+02  0.27721738780E+03  0.26308730223E+03 0.  0.
         25    1    3    3    0    0  0.73352327693E+02  0.37741027156E+02  0.11793198297E+03  0.19068405758E+03  0.12509000000E+03 0.  0.
         25    1    4    4    0    0 -0.50486784769E+02  0.17842995965E+02 -0.25248348438E+02  0.13839174520E+03  0.12509000000E+03 0.  0.
         25    1    4    4    0    0 -0.22865542924E+02 -0.55584023122E+02 -0.35544707155E+01  0.13882564259E+03  0.12509000000E+03 0.  0.
<mgrwt>
<rscale>  2 0.45933403E+03</rscale>
<asrwt>0</asrwt>
<pdfrwt beam="1">  1       21 0.40958133E-01 0.45933403E+03</pdfrwt>
<pdfrwt beam="2">  1       21 0.27850903E-01 0.45933403E+03</pdfrwt>
<totfact> 0.65315913E+04</totfact>
</mgrwt>
</event>
<event>
 7    0  0.4732500E-002  0.4523781E+03  0.7546771E-02  0.1027015E+00
         21   -1    0    0  502  501  0.00000000000E+00  0.00000000000E+00  0.25869073589E+03  0.25869073589E+03  0.00000000000E+00 0. -1.
         21   -1    0    0  501  502 -0.00000000000E+00 -0.00000000000E+00 -0.19777085903E+03  0.19777085903E+03  0.00000000000E+00 0. -1.
      99926    2    1    2    0    0  0.00000000000E+00  0.00000000000E+00  0.60919876862E+02  0.45646159493E+03  0.45237811203E+03 0.  0.
      99925    2    3    3    0    0  0.91190811733E+02  0.53906332447E+02  0.71490861591E+02  0.29220292502E+03  0.26277357035E+03 0.  0.
         25    1    3    3    0    0 -0.91190811733E+02 -0.53906332447E+02 -0.10570984729E+02  0.16425866991E+03  0.12509000000E+03 0.  0.
         25    1    4    4    0    0  0.33168632216E+02  0.61394928977E+02  0.19106192096E+02  0.14450622874E+03  0.12509000000E+03 0.  0.
         25    1    4    4    0    0  0.58022179517E+02 -0.74885965300E+01  0.52384669495E+02  0.14769669628E+03  0.12509000000E+03 0.  0.
<mgrwt>
<rscale>  2 0.45237811E+03</rscale>
<asrwt>0</asrwt>
<pdfrwt beam="1">  1       21 0.38042756E-01 0.45237811E+03</pdfrwt>
<pdfrwt beam="2">  1       21 0.29083950E-01 0.45237811E+03</pdfrwt>
<totfact> 0.69889130E+04</totfact>
</mgrwt>
</event>
<event>
 7    0  0.4732500E-002  0.4556562E+03  0.7546771E-02  0.1026049E+00
         21   -1    0    0  502  501  0.00000000000E+00  0.00000000000E+00  0.14750290978E+03  0.14750290978E+03  0.00000000000E+00 0.  1.
         21   -1    0    0  501  502 -0.00000000000E+00 -0.00000000000E+00 -0.35189564700E+03  0.35189564700E+03  0.00000000000E+00 0.  1.
      99926    2    1    2    0    0 -0.71054273576E-14  0.00000000000E+00 -0.20439273722E+03  0.49939855678E+03  0.45565615050E+03 0.  0.
      99925    2    3    3    0    0  0.37388073890E+02  0.10715136529E+03 -0.11909690848E+03  0.31018394410E+03  0.26296524944E+03 0.  0.
         25    1    3    3    0    0 -0.37388073890E+02 -0.10715136529E+03 -0.85295828738E+02  0.18921461268E+03  0.12509000000E+03 0.  0.
         25    1    4    4    0    0  0.54003459184E+02  0.43780667892E+02 -0.78648531317E+02  0.16329794874E+03  0.12509000000E+03 0.  0.
         25    1    4    4    0    0 -0.16615385294E+02  0.63370697398E+02 -0.40448377163E+02  0.14688599536E+03  0.12509000000E+03 0.  0.
<mgrwt>
<rscale>  2 0.45565615E+03</rscale>
<asrwt>0</asrwt>
<pdfrwt beam="1">  1       21 0.21691605E-01 0.45565615E+03</pdfrwt>
<pdfrwt beam="2">  1       21 0.51749359E-01 0.45565615E+03</pdfrwt>
<totfact> 0.64973849E+04</totfact>
</mgrwt>
</event>
<event>
 7    0  0.4732500E-002  0.4500378E+03  0.7546771E-02  0.1027711E+00
         21   -1    0    0  502  501  0.00000000000E+00  0.00000000000E+00  0.18210305976E+04  0.18210305976E+04  0.00000000000E+00 0.  1.
         21   -1    0    0  501  502 -0.00000000000E+00 -0.00000000000E+00 -0.27804868023E+02  0.27804868023E+02  0.00000000000E+00 0.  1.
      99926    2    1    2    0    0  0.00000000000E+00  0.00000000000E+00  0.17932257296E+04  0.18488354656E+04  0.45003784478E+03 0.  0.
      99925    2    3    3    0    0 -0.41084351272E+02  0.66870258940E+02  0.14420712465E+04  0.14678938238E+04  0.26264661102E+03 0.  0.
         25    1    4    4    0    0 -0.20927238649E+02 -0.76168650777E+01  0.65008905769E+03  0.66238905258E+03  0.12509000000E+03 0.  0.
         25    1    4    4    0    0 -0.20157112623E+02  0.74487124017E+02  0.79198218886E+03  0.80550477119E+03  0.12509000000E+03 0.  0.
         25    1    3    3    0    0  0.41084351272E+02 -0.66870258940E+02  0.35115448303E+03  0.38094164186E+03  0.12509000000E+03 0.  0.
<mgrwt>
<rscale>  2 0.45003784E+03</rscale>
<asrwt>0</asrwt>
<pdfrwt beam="1">  1       21 0.26779854E+00 0.45003784E+03</pdfrwt>
<pdfrwt beam="2">  1       21 0.40889524E-02 0.45003784E+03</pdfrwt>
<totfact> 0.16983567E+04</totfact>
</mgrwt>
</event>
<event>
 7    0  0.4732500E-002  0.4402356E+03  0.7546771E-02  0.1030675E+00
         21   -1    0    0  502  501  0.00000000000E+00  0.00000000000E+00  0.14762253209E+03  0.14762253209E+03  0.00000000000E+00 0.  1.
         21   -1    0    0  501  502 -0.00000000000E+00 -0.00000000000E+00 -0.32821438922E+03  0.32821438922E+03  0.00000000000E+00 0.  1.
      99926    2    1    2    0    0  0.00000000000E+00  0.00000000000E+00 -0.18059185713E+03  0.47583692131E+03  0.44023556969E+03 0.  0.
      99925    2    3    3    0    0  0.64721827396E+02 -0.67083913974E+02 -0.15008315952E+03  0.31687952077E+03  0.26305609565E+03 0.  0.
         25    1    3    3    0    0 -0.64721827396E+02  0.67083913974E+02 -0.30508697605E+02  0.15895740054E+03  0.12509000000E+03 0.  0.
         25    1    4    4    0    0  0.29415278126E+02 -0.30162767343E+02 -0.28336598142E+02  0.13500193338E+03  0.12509000000E+03 0.  0.
         25    1    4    4    0    0  0.35306549270E+02 -0.36921146631E+02 -0.12174656138E+03  0.18187758740E+03  0.12509000000E+03 0.  0.
<mgrwt>
<rscale>  2 0.44023557E+03</rscale>
<asrwt>0</asrwt>
<pdfrwt beam="1">  1       21 0.21709196E-01 0.44023557E+03</pdfrwt>
<pdfrwt beam="2">  1       21 0.48266821E-01 0.44023557E+03</pdfrwt>
<totfact> 0.75469196E+04</totfact>
</mgrwt>
</event>
<event>
 7    0  0.4732500E-002  0.4478386E+03  0.7546771E-02  0.1028369E+00
         21   -1    0    0  502  501  0.00000000000E+00  0.00000000000E+00  0.10917665264E+03  0.10917665264E+03  0.00000000000E+00 0. -1.
         21   -1    0    0  501  502 -0.00000000000E+00 -0.00000000000E+00 -0.45925428140E+03  0.45925428140E+03  0.00000000000E+00 0. -1.
      99926    2    1    2    0    0  0.71054273576E-14  0.00000000000E+00 -0.35007762877E+03  0.56843093404E+03  0.44783856535E+03 0.  0.
      99925    2    3    3    0    0  0.55933242045E+02 -0.46277850880E+01 -0.33640152513E+03  0.43064672641E+03  0.26294614069E+03 0.  0.
         25    1    4    4    0    0  0.42824455849E+02  0.25518272502E+02 -0.13066159805E+03  0.18763016164E+03  0.12509000000E+03 0.  0.
         25    1    3    3    0    0 -0.55933242045E+02  0.46277850880E+01 -0.13676103640E+02  0.13778420763E+03  0.12509000000E+03 0.  0.
         25    1    4    4    0    0  0.13108786196E+02 -0.30146057590E+02 -0.20573992707E+03  0.24301656478E+03  0.12509000000E+03 0.  0.
<mgrwt>
<rscale>  2 0.44783857E+03</rscale>
<asrwt>0</asrwt>
<pdfrwt beam="1">  1       21 0.16055390E-01 0.44783857E+03</pdfrwt>
<pdfrwt beam="2">  1       21 0.67537394E-01 0.44783857E+03</pdfrwt>
<totfact> 0.64225473E+04</totfact>
</mgrwt>
</event>
<event>
 7    0  0.4732500E-002  0.4382938E+03  0.7546771E-02  0.1031272E+00
         21   -1    0    0  502  501  0.00000000000E+00  0.00000000000E+00  0.47518326110E+03  0.47518326110E+03  0.00000000000E+00 0. -1.
         21   -1    0    0  501  502 -0.00000000000E+00 -0.00000000000E+00 -0.10106704886E+03  0.10106704886E+03  0.00000000000E+00 0. -1.
      99926    2    1    2    0    0  0.00000000000E+00 -0.35527136788E-14  0.37411621223E+03  0.57625030996E+03  0.43829382778E+03 0.  0.
      99925    2    3    3    0    0  0.65795032460E+02 -0.27106673367E+02  0.32533175031E+03  0.42429245441E+03  0.26290603088E+03 0.  0.
         25    1    4    4    0    0  0.68480370533E+02 -0.54991275076E+01  0.14233133076E+03  0.20155772714E+03  0.12509000000E+03 0.  0.
         25    1    4    4    0    0 -0.26853380724E+01 -0.21607545860E+02  0.18300041955E+03  0.22273472727E+03  0.12509000000E+03 0.  0.
         25    1    3    3    0    0 -0.65795032460E+02  0.27106673367E+02  0.48784461923E+02  0.15195785555E+03  0.12509000000E+03 0.  0.
<mgrwt>
<rscale>  2 0.43829383E+03</rscale>
<asrwt>0</asrwt>
<pdfrwt beam="1">  1       21 0.69879891E-01 0.43829383E+03</pdfrwt>
<pdfrwt beam="2">  1       21 0.14862801E-01 0.43829383E+03</pdfrwt>
<totfact> 0.68812853E+04</totfact>
</mgrwt>
</event>
<event>
 7    0  0.4732500E-002  0.4588993E+03  0.7546771E-02  0.1025101E+00
         21   -1    0    0  502  501  0.00000000000E+00  0.00000000000E+00  0.14406578723E+03  0.14406578723E+03  0.00000000000E+00 0. -1.
         21   -1    0    0  501  502 -0.00000000000E+00 -0.00000000000E+00 -0.36543816827E+03  0.36543816827E+03  0.00000000000E+00 0. -1.
      99926    2    1    2    0    0  0.00000000000E+00  0.00000000000E+00 -0.22137238103E+03  0.50950395550E+03  0.45889928044E+03 0.  0.
      99925    2    3    3    0    0  0.10108688758E+03 -0.38145464677E+02 -0.18807690035E+03  0.34089276830E+03  0.26298540591E+03 0.  0.
         25    1    3    3    0    0 -0.10108688758E+03  0.38145464677E+02 -0.33295480680E+02  0.16861118720E+03  0.12509000000E+03 0.  0.
         25    1    4    4    0    0  0.82714547570E+02 -0.36665421885E+02 -0.76659516072E+02  0.17236658332E+03  0.12509000000E+03 0.  0.
         25    1    4    4    0    0  0.18372340006E+02 -0.14800427922E+01 -0.11141738428E+03  0.16852618498E+03  0.12509000000E+03 0.  0.
<mgrwt>
<rscale>  2 0.45889928E+03</rscale>
<asrwt>0</asrwt>
<pdfrwt beam="1">  1       21 0.21186146E-01 0.45889928E+03</pdfrwt>
<pdfrwt beam="2">  1       21 0.53740905E-01 0.45889928E+03</pdfrwt>
<totfact> 0.62646649E+04</totfact>
</mgrwt>
</event>
<event>
 7    0  0.4732500E-002  0.4536434E+03  0.7546771E-02  0.1026641E+00
         21   -1    0    0  502  501  0.00000000000E+00  0.00000000000E+00  0.83380127331E+03  0.83380127331E+03  0.00000000000E+00 0.  1.
         21   -1    0    0  501  502 -0.00000000000E+00 -0.00000000000E+00 -0.61703053763E+02  0.61703053763E+02  0.00000000000E+00 0.  1.
      99926    2    1    2    0    0  0.00000000000E+00  0.00000000000E+00  0.77209821955E+03  0.89550432707E+03  0.45364340531E+03 0.  0.
      99925    2    3    3    0    0 -0.10700384582E+03  0.26158904191E+02  0.52467921976E+03  0.59717936861E+03  0.26306045570E+03 0.  0.
         25    1    4    4    0    0 -0.80181190416E+02  0.11695126988E+02  0.21310220974E+03  0.26004972446E+03  0.12509000000E+03 0.  0.
         25    1    3    3    0    0  0.10700384582E+03 -0.26158904191E+02  0.24741899978E+03  0.29832495846E+03  0.12509000000E+03 0.  0.
         25    1    4    4    0    0 -0.26822655404E+02  0.14463777203E+02  0.31157701002E+03  0.33712964415E+03  0.12509000000E+03 0.  0.
<mgrwt>
<rscale>  2 0.45364341E+03</rscale>
<asrwt>0</asrwt>
<pdfrwt beam="1">  1       21 0.12261783E+00 0.45364341E+03</pdfrwt>
<pdfrwt beam="2">  1       21 0.90739790E-02 0.45364341E+03</pdfrwt>
<totfact> 0.43893014E+04</totfact>
</mgrwt>
</event>
<event>
 7    0  0.4732500E-002  0.4511990E+03  0.7546771E-02  0.1027365E+00
         21   -1    0    0  502  501  0.00000000000E+00  0.00000000000E+00  0.12867202402E+04  0.12867202402E+04  0.00000000000E+00 0.  1.
         21   -1    0    0  501  502 -0.00000000000E+00 -0.00000000000E+00 -0.39554161230E+02  0.39554161230E+02  0.00000000000E+00 0.  1.
      99926    2    1    2    0    0 -0.35527136788E-14  0.14210854715E-13  0.12471660789E+04  0.13262744014E+04  0.45119902410E+03 0.  0.
      99925    2    3    3    0    0  0.14466662500E+02 -0.10814950119E+03  0.75821828505E+03  0.80991885317E+03  0.26299806466E+03 0.  0.
         25    1    3    3    0    0 -0.14466662500E+02  0.10814950119E+03  0.48894779390E+03  0.51635554823E+03  0.12509000000E+03 0.  0.
         25    1    4    4    0    0 -0.11709392439E+02 -0.81748261544E+02  0.47484804767E+03  0.49794383681E+03  0.12509000000E+03 0.  0.
         25    1    4    4    0    0  0.26176054939E+02 -0.26401239643E+02  0.28337023737E+03  0.31197501637E+03  0.12509000000E+03 0.  0.
<mgrwt>
<rscale>  2 0.45119902E+03</rscale>
<asrwt>0</asrwt>
<pdfrwt beam="1">  1       21 0.18922354E+00 0.45119902E+03</pdfrwt>
<pdfrwt beam="2">  1       21 0.58167893E-02 0.45119902E+03</pdfrwt>
<totfact> 0.29215080E+04</totfact>
</mgrwt>
</event>
<event>
 7    0  0.4732500E-002  0.4407031E+03  0.7546771E-02  0.1030531E+00
         21   -1    0    0  502  501  0.00000000000E+00  0.00000000000E+00  0.10944761272E+03  0.10944761272E+03  0.00000000000E+00 0.  1.
         21   -1    0    0  501  502 -0.00000000000E+00 -0.00000000000E+00 -0.44363510615E+03  0.44363510615E+03  0.00000000000E+00 0.  1.
      99926    2    1    2    0    0  0.00000000000E+00  0.00000000000E+00 -0.33418749344E+03  0.55308271887E+03  0.44070308955E+03 0.  0.
      99925    2    3    3    0    0  0.36303972432E+02  0.79089538240E+02 -0.15402330299E+03  0.31711709193E+03  0.26318612931E+03 0.  0.
         25    1    4    4    0    0 -0.21970786371E+02  0.46300191368E+02 -0.69462928481E+02  0.15198364947E+03  0.12509000000E+03 0.  0.
         25    1    3    3    0    0 -0.36303972432E+02 -0.79089538240E+02 -0.18016419045E+03  0.23596562693E+03  0.12509000000E+03 0.  0.
         25    1    4    4    0    0  0.58274758802E+02  0.32789346872E+02 -0.84560374504E+02  0.16513344246E+03  0.12509000000E+03 0.  0.
<mgrwt>
<rscale>  2 0.44070309E+03</rscale>
<asrwt>0</asrwt>
<pdfrwt beam="1">  1       21 0.16095238E-01 0.44070309E+03</pdfrwt>
<pdfrwt beam="2">  1       21 0.65240455E-01 0.44070309E+03</pdfrwt>
<totfact> 0.69159885E+04</totfact>
</mgrwt>
</event>
<event>
 7    0  0.4732500E-002  0.4586021E+03  0.7546771E-02  0.1025187E+00
         21   -1    0    0  502  501  0.00000000000E+00  0.00000000000E+00  0.14580598339E+04  0.14580598339E+04  0.00000000000E+00 0. -1.
         21   -1    0    0  501  502 -0.00000000000E+00 -0.00000000000E+00 -0.36060914069E+02  0.36060914069E+02  0.00000000000E+00 0. -1.
      99926    2    1    2    0    0  0.00000000000E+00  0.71054273576E-14  0.14219989198E+04  0.14941207479E+04  0.45860209497E+03 0.  0.
      99925    2    3    3    0    0 -0.56274545827E+02  0.58315675711E+02  0.11646528953E+04  0.11967287054E+04  0.26301270928E+03 0.  0.
         25    1    4    4    0    0 -0.11634267524E+02  0.64645744003E+01  0.41537377953E+03  0.43400464482E+03  0.12509000000E+03 0.  0.
         25    1    4    4    0    0 -0.44640278303E+02  0.51851101310E+02  0.74927911577E+03  0.76272406057E+03  0.12509000000E+03 0.  0.
         25    1    3    3    0    0  0.56274545827E+02 -0.58315675711E+02  0.25734602450E+03  0.29739204254E+03  0.12509000000E+03 0.  0.
<mgrwt>
<rscale>  2 0.45860209E+03</rscale>
<asrwt>0</asrwt>
<pdfrwt beam="1">  1       21 0.21442052E+00 0.45860209E+03</pdfrwt>
<pdfrwt beam="2">  1       21 0.53030766E-02 0.45860209E+03</pdfrwt>
<totfact> 0.23265796E+04</totfact>
</mgrwt>
</event>
<event>
 7    0  0.4732500E-002  0.4566961E+03  0.7546771E-02  0.1025744E+00
         21   -1    0    0  502  501  0.00000000000E+00  0.00000000000E+00  0.10118230190E+03  0.10118230190E+03  0.00000000000E+00 0.  1.
         21   -1    0    0  501  502 -0.00000000000E+00 -0.00000000000E+00 -0.51533559368E+03  0.51533559368E+03  0.00000000000E+00 0.  1.
      99926    2    1    2    0    0 -0.71054273576E-14  0.00000000000E+00 -0.41415329178E+03  0.61651789558E+03  0.45669614240E+03 0.  0.
      99925    2    3    3    0    0 -0.40504837253E+02  0.96677487480E+02 -0.32331217900E+03  0.42973782626E+03  0.26297653089E+03 0.  0.
         25    1    3    3    0    0  0.40504837253E+02 -0.96677487480E+02 -0.90841112782E+02  0.18678006933E+03  0.12509000000E+03 0.  0.
         25    1    4    4    0    0 -0.60503714439E+02  0.51746941717E+02 -0.15802172303E+03  0.21669522027E+03  0.12509000000E+03 0.  0.
         25    1    4    4    0    0  0.19998877186E+02  0.44930545764E+02 -0.16529045597E+03  0.21304260599E+03  0.12509000000E+03 0.  0.
<mgrwt>
<rscale>  2 0.45669614E+03</rscale>
<asrwt>0</asrwt>
<pdfrwt beam="1">  1       21 0.14879751E-01 0.45669614E+03</pdfrwt>
<pdfrwt beam="2">  1       21 0.75784645E-01 0.45669614E+03</pdfrwt>
<totfact> 0.56906781E+04</totfact>
</mgrwt>
</event>
<event>
 7    0  0.4732500E-002  0.4544028E+03  0.7546771E-02  0.1026417E+00
         21   -1    0    0  502  501  0.00000000000E+00  0.00000000000E+00  0.51404178124E+03  0.51404178124E+03  0.00000000000E+00 0. -1.
         21   -1    0    0  501  502 -0.00000000000E+00 -0.00000000000E+00 -0.10042078817E+03  0.10042078817E+03  0.00000000000E+00 0. -1.
      99926    2    1    2    0    0  0.00000000000E+00  0.00000000000E+00  0.41362099306E+03  0.61446256941E+03  0.45440282053E+03 0.  0.
      99925    2    3    3    0    0  0.27494043683E+02  0.62652164721E+02  0.38131167886E+03  0.46826880734E+03  0.26305106599E+03 0.  0.
         25    1    4    4    0    0  0.52540219363E+02  0.41762017894E+02  0.18434928652E+03  0.23267296433E+03  0.12509000000E+03 0.  0.
         25    1    4    4    0    0 -0.25046175680E+02  0.20890146827E+02  0.19696239234E+03  0.23559584302E+03  0.12509000000E+03 0.  0.
         25    1    3    3    0    0 -0.27494043683E+02 -0.62652164721E+02  0.32309314205E+02  0.14619376206E+03  0.12509000000E+03 0.  0.
<mgrwt>
<rscale>  2 0.45440282E+03</rscale>
<asrwt>0</asrwt>
<pdfrwt beam="1">  1       21 0.75594379E-01 0.45440282E+03</pdfrwt>
<pdfrwt beam="2">  1       21 0.14767763E-01 0.45440282E+03</pdfrwt>
<totfact> 0.58070176E+04</totfact>
</mgrwt>
</event>
<event>
 7    0  0.4732500E-002  0.4526484E+03  0.7546771E-02  0.1026935E+00
         21   -1    0    0  502  501  0.00000000000E+00  0.00000000000E+00  0.21467255710E+03  0.21467255710E+03  0.00000000000E+00 0. -1.
         21   -1    0    0  501  502 -0.00000000000E+00 -0.00000000000E+00 -0.23860822653E+03  0.23860822653E+03  0.00000000000E+00 0. -1.
      99926    2    1    2    0    0  0.00000000000E+00  0.00000000000E+00 -0.23935669438E+02  0.45328078363E+03  0.45264837627E+03 0.  0.
      99925    2    3    3    0    0  0.91130865701E+02 -0.54087496078E+02  0.17836250296E+02  0.28409835755E+03  0.26298945421E+03 0.  0.
         25    1    4    4    0    0  0.34406725984E+02 -0.30125313524E+02  0.47772321888E+02  0.14149579551E+03  0.12509000000E+03 0.  0.
         25    1    4    4    0    0  0.56724139717E+02 -0.23962182554E+02 -0.29936071593E+02  0.14260256204E+03  0.12509000000E+03 0.  0.
         25    1    3    3    0    0 -0.91130865701E+02  0.54087496078E+02 -0.41771919733E+02  0.16918242608E+03  0.12509000000E+03 0.  0.
<mgrwt>
<rscale>  2 0.45264838E+03</rscale>
<asrwt>0</asrwt>
<pdfrwt beam="1">  1       21 0.31569494E-01 0.45264838E+03</pdfrwt>
<pdfrwt beam="2">  1       21 0.35089445E-01 0.45264838E+03</pdfrwt>
<totfact> 0.69975738E+04</totfact>
</mgrwt>
</event>
<event>
 7    0  0.4732500E-002  0.4534469E+03  0.7546771E-02  0.1026699E+00
         21   -1    0    0  502  501  0.00000000000E+00  0.00000000000E+00  0.44765422002E+03  0.44765422002E+03  0.00000000000E+00 0. -1.
         21   -1    0    0  501  502 -0.00000000000E+00 -0.00000000000E+00 -0.11482864892E+03  0.11482864892E+03  0.00000000000E+00 0. -1.
      99926    2    1    2    0    0  0.35527136788E-14  0.00000000000E+00  0.33282557110E+03  0.56248286894E+03  0.45344692861E+03 0.  0.
      99925    2    3    3    0    0  0.31733886784E+02 -0.64612327204E+02  0.31392844246E+03  0.41692737447E+03  0.26475569154E+03 0.  0.
         25    1    4    4    0    0  0.41103563443E+02 -0.21943994344E+02  0.20864702701E+03  0.24769362486E+03  0.12509000000E+03 0.  0.
         25    1    4    4    0    0 -0.93696766597E+01 -0.42668332860E+02  0.10528141545E+03  0.16923374962E+03  0.12509000000E+03 0.  0.
         25    1    3    3    0    0 -0.31733886784E+02  0.64612327204E+02  0.18897128637E+02  0.14555549446E+03  0.12509000000E+03 0.  0.
<mgrwt>
<rscale>  2 0.45344693E+03</rscale>
<asrwt>0</asrwt>
<pdfrwt beam="1">  1       21 0.65831502E-01 0.45344693E+03</pdfrwt>
<pdfrwt beam="2">  1       21 0.16886566E-01 0.45344693E+03</pdfrwt>
<totfact> 0.61804799E+04</totfact>
</mgrwt>
</event>
<event>
 7    0  0.4732500E-002  0.4602539E+03  0.7546771E-02  0.1024708E+00
         21   -1    0    0  502  501  0.00000000000E+00  0.00000000000E+00  0.13557418133E+03  0.13557418133E+03  0.00000000000E+00 0.  1.
         21   -1    0    0  501  502 -0.00000000000E+00 -0.00000000000E+00 -0.39062321756E+03  0.39062321756E+03  0.00000000000E+00 0.  1.
      99926    2    1    2    0    0  0.35527136788E-14  0.00000000000E+00 -0.25504903623E+03  0.52619739889E+03  0.46025394264E+03 0.  0.
      99925    2    3    3    0    0  0.17973975796E+02 -0.82495551875E+02 -0.25397766464E+03  0.37527610874E+03  0.26305688313E+03 0.  0.
         25    1    4    4    0    0 -0.28888007547E+01 -0.69257614511E+02 -0.95927259690E+02  0.17220484775E+03  0.12509000000E+03 0.  0.
         25    1    4    4    0    0  0.20862776551E+02 -0.13237937364E+02 -0.15805040495E+03  0.20307126098E+03  0.12509000000E+03 0.  0.
         25    1    3    3    0    0 -0.17973975796E+02  0.82495551875E+02 -0.10713715813E+01  0.15092129016E+03  0.12509000000E+03 0.  0.
<mgrwt>
<rscale>  2 0.46025394E+03</rscale>
<asrwt>0</asrwt>
<pdfrwt beam="1">  1       21 0.19937379E-01 0.46025394E+03</pdfrwt>
<pdfrwt beam="2">  1       21 0.57444592E-01 0.46025394E+03</pdfrwt>
<totfact> 0.60888723E+04</totfact>
</mgrwt>
</event>
<event>
 7    0  0.4732500E-002  0.4704652E+03  0.7546771E-02  0.1021789E+00
         21   -1    0    0  502  501  0.00000000000E+00  0.00000000000E+00  0.12242819917E+04  0.12242819917E+04  0.00000000000E+00 0. -1.
         21   -1    0    0  501  502 -0.00000000000E+00 -0.00000000000E+00 -0.45197413734E+02  0.45197413734E+02  0.00000000000E+00 0. -1.
      99926    2    1    2    0    0  0.71054273576E-14  0.00000000000E+00  0.11790845780E+04  0.12694794054E+04  0.47046521532E+03 0.  0.
      99925    2    3    3    0    0 -0.61672361712E+02 -0.10543707935E+03  0.63667004432E+03  0.69958336903E+03  0.26295947784E+03 0.  0.
         25    1    3    3    0    0  0.61672361712E+02  0.10543707935E+03  0.54241453364E+03  0.56989603640E+03  0.12509000000E+03 0.  0.
         25    1    4    4    0    0 -0.15581990114E+02 -0.52403878857E+02  0.22010436672E+03  0.25900271289E+03  0.12509000000E+03 0.  0.
         25    1    4    4    0    0 -0.46090371599E+02 -0.53033200494E+02  0.41656567760E+03  0.44058065614E+03  0.12509000000E+03 0.  0.
<mgrwt>
<rscale>  2 0.47046522E+03</rscale>
<asrwt>0</asrwt>
<pdfrwt beam="1">  1       21 0.18004145E+00 0.47046522E+03</pdfrwt>
<pdfrwt beam="2">  1       21 0.66466793E-02 0.47046522E+03</pdfrwt>
<totfact> 0.26657903E+04</totfact>
</mgrwt>
</event>
<event>
 7    0  0.4732500E-002  0.4526577E+03  0.7546771E-02  0.1026932E+00
         21   -1    0    0  502  501  0.00000000000E+00  0.00000000000E+00  0.16386304292E+03  0.16386304292E+03  0.00000000000E+00 0. -1.
         21   -1    0    0  501  502 -0.00000000000E+00 -0.00000000000E+00 -0.31260712256E+03  0.31260712256E+03  0.00000000000E+00 0. -1.
      99926    2    1    2    0    0  0.00000000000E+00  0.00000000000E+00 -0.14874407964E+03  0.47647016547E+03  0.45265772650E+03 0.  0.
      99925    2    3    3    0    0  0.86356711568E+02 -0.67149511329E+02 -0.11343623406E+03  0.30658582080E+03  0.26298393072E+03 0.  0.
         25    1    4    4    0    0  0.74720645457E+02 -0.89991961691E+01 -0.66414313827E+02  0.16038244783E+03  0.12509000000E+03 0.  0.
         25    1    4    4    0    0  0.11636066110E+02 -0.58150315160E+02 -0.47021920232E+02  0.14620337298E+03  0.12509000000E+03 0.  0.
         25    1    3    3    0    0 -0.86356711568E+02  0.67149511329E+02 -0.35307845580E+02  0.16988434467E+03  0.12509000000E+03 0.  0.
<mgrwt>
<rscale>  2 0.45265773E+03</rscale>
<asrwt>0</asrwt>
<pdfrwt beam="1">  1       21 0.24097507E-01 0.45265773E+03</pdfrwt>
<pdfrwt beam="2">  1       21 0.45971635E-01 0.45265773E+03</pdfrwt>
<totfact> 0.68217334E+04</totfact>
</mgrwt>
</event>
<event>
 7    0  0.4732500E-002  0.4591223E+03  0.7546771E-02  0.1025036E+00
         21   -1    0    0  502  501  0.00000000000E+00  0.00000000000E+00  0.29626350794E+03  0.29626350794E+03  0.00000000000E+00 0.  1.
         21   -1    0    0  501  502 -0.00000000000E+00 -0.00000000000E+00 -0.17787651636E+03  0.17787651636E+03  0.00000000000E+00 0.  1.
      99926    2    1    2    0    0  0.35527136788E-14 -0.71054273576E-14  0.11838699158E+03  0.47414002430E+03  0.45912229620E+03 0.  0.
      99925    2    3    3    0    0  0.20943839712E+02 -0.51175983537E+02  0.18059307373E+03  0.32389112923E+03  0.26312350637E+03 0.  0.
         25    1    4    4    0    0 -0.28957772436E+01 -0.34851030697E+02  0.45756260320E+02  0.13771028765E+03  0.12509000000E+03 0.  0.
         25    1    4    4    0    0  0.23839616956E+02 -0.16324952840E+02  0.13483681341E+03  0.18618084158E+03  0.12509000000E+03 0.  0.
         25    1    3    3    0    0 -0.20943839712E+02  0.51175983537E+02 -0.62206082148E+02  0.15024889507E+03  0.12509000000E+03 0.  0.
<mgrwt>
<rscale>  2 0.45912230E+03</rscale>
<asrwt>0</asrwt>
<pdfrwt beam="1">  1       21 0.43568163E-01 0.45912230E+03</pdfrwt>
<pdfrwt beam="2">  1       21 0.26158311E-01 0.45912230E+03</pdfrwt>
<totfact> 0.64977877E+04</totfact>
</mgrwt>
</event>
<event>
 7    0  0.4732500E-002  0.4493444E+03  0.7546771E-02  0.1027918E+00
         21   -1    0    0  502  501  0.00000000000E+00  0.00000000000E+00  0.25852085507E+03  0.25852085507E+03  0.00000000000E+00 0.  1.
         21   -1    0    0  501  502 -0.00000000000E+00 -0.00000000000E+00 -0.19525541784E+03  0.19525541784E+03  0.00000000000E+00 0.  1.
      99926    2    1    2    0    0  0.00000000000E+00  0.00000000000E+00  0.63265437230E+02  0.45377627290E+03  0.44934440055E+03 0.  0.
      99925    2    3    3    0    0 -0.64420654099E+02  0.56563394880E+02 -0.25926172887E+02  0.27784421292E+03  0.26301293105E+03 0.  0.
         25    1    4    4    0    0 -0.52514075656E+02  0.87717432748E+01 -0.42385542284E+02  0.14240334939E+03  0.12509000000E+03 0.  0.
         25    1    4    4    0    0 -0.11906578443E+02  0.47791651605E+02  0.16459369398E+02  0.13544086353E+03  0.12509000000E+03 0.  0.
         25    1    3    3    0    0  0.64420654099E+02 -0.56563394880E+02  0.89191610117E+02  0.17593205998E+03  0.12509000000E+03 0.  0.
<mgrwt>
<rscale>  2 0.44934440E+03</rscale>
<asrwt>0</asrwt>
<pdfrwt beam="1">  1       21 0.38017773E-01 0.44934440E+03</pdfrwt>
<pdfrwt beam="2">  1       21 0.28714032E-01 0.44934440E+03</pdfrwt>
<totfact> 0.71821580E+04</totfact>
</mgrwt>
</event>
<event>
 7    0  0.4732500E-002  0.4607258E+03  0.7546771E-02  0.1024571E+00
         21   -1    0    0  502  501  0.00000000000E+00  0.00000000000E+00  0.35204826449E+03  0.35204826449E+03  0.00000000000E+00 0.  1.
         21   -1    0    0  501  502 -0.00000000000E+00 -0.00000000000E+00 -0.15073802892E+03  0.15073802892E+03  0.00000000000E+00 0.  1.
      99926    2    1    2    0    0  0.00000000000E+00  0.00000000000E+00  0.20131023557E+03  0.50278629341E+03  0.46072578167E+03 0.  0.
      99925    2    3    3    0    0 -0.36678870264E+02 -0.67090727792E+02  0.27938906290E+02  0.27573645043E+03  0.26344544470E+03 0.  0.
         25    1    3    3    0    0  0.36678870264E+02  0.67090727792E+02  0.17337132928E+03  0.22704984298E+03  0.12509000000E+03 0.  0.
         25    1    4    4    0    0 -0.18063537243E+02 -0.10582662712E+02  0.48329247339E+02  0.13572585743E+03  0.12509000000E+03 0.  0.
         25    1    4    4    0    0 -0.18615333021E+02 -0.56508065080E+02 -0.20390341050E+02  0.14001059299E+03  0.12509000000E+03 0.  0.
<mgrwt>
<rscale>  2 0.46072578E+03</rscale>
<asrwt>0</asrwt>
<pdfrwt beam="1">  1       21 0.51771803E-01 0.46072578E+03</pdfrwt>
<pdfrwt beam="2">  1       21 0.22167357E-01 0.46072578E+03</pdfrwt>
<totfact> 0.62199823E+04</totfact>
</mgrwt>
</event>
<event>
 7    0  0.4732500E-002  0.4534256E+03  0.7546771E-02  0.1026705E+00
         21   -1    0    0  502  501  0.00000000000E+00  0.00000000000E+00  0.71947209555E+03  0.71947209555E+03  0.00000000000E+00 0. -1.
         21   -1    0    0  501  502 -0.00000000000E+00 -0.00000000000E+00 -0.71439461476E+02  0.71439461476E+02  0.00000000000E+00 0. -1.
      99926    2    1    2    0    0 -0.14210854715E-13 -0.35527136788E-14  0.64803263407E+03  0.79091155702E+03  0.45342562368E+03 0.  0.
      99925    2    3    3    0    0 -0.86380515951E+02 -0.18363183661E+02  0.28922243685E+03  0.40079482349E+03  0.26303625703E+03 0.  0.
         25    1    3    3    0    0  0.86380515951E+02  0.18363183661E+02  0.35881019722E+03  0.39011673353E+03  0.12509000000E+03 0.  0.
         25    1    4    4    0    0 -0.59666340799E+02  0.66057188334E+00  0.97172512188E+02  0.16926462656E+03  0.12509000000E+03 0.  0.
         25    1    4    4    0    0 -0.26714175153E+02 -0.19023755544E+02  0.19204992466E+03  0.23153019693E+03  0.12509000000E+03 0.  0.
<mgrwt>
<rscale>  2 0.45342562E+03</rscale>
<asrwt>0</asrwt>
<pdfrwt beam="1">  1       21 0.10580472E+00 0.45342562E+03</pdfrwt>
<pdfrwt beam="2">  1       21 0.10505804E-01 0.45342562E+03</pdfrwt>
<totfact> 0.48807863E+04</totfact>
</mgrwt>
</event>
<event>
 7    0  0.4732500E-002  0.4475083E+03  0.7546771E-02  0.1028468E+00
         21   -1    0    0  502  501  0.00000000000E+00  0.00000000000E+00  0.37151255609E+03  0.37151255609E+03  0.00000000000E+00 0. -1.
         21   -1    0    0  501  502 -0.00000000000E+00 -0.00000000000E+00 -0.13476239956E+03  0.13476239956E+03  0.00000000000E+00 0. -1.
      99926    2    1    2    0    0  0.00000000000E+00 -0.71054273576E-14  0.23675015653E+03  0.50627495564E+03  0.44750831735E+03 0.  0.
      99925    2    3    3    0    0  0.73009821441E+02 -0.28546689811E+02  0.23082564482E+03  0.35853208622E+03  0.26290574550E+03 0.  0.
         25    1    4    4    0    0  0.18492973665E+01  0.93515007678E+01  0.10152500838E+03  0.16138682069E+03  0.12509000000E+03 0.  0.
         25    1    4    4    0    0  0.71160524075E+02 -0.37898190579E+02  0.12930063644E+03  0.19714526553E+03  0.12509000000E+03 0.  0.
         25    1    3    3    0    0 -0.73009821441E+02  0.28546689811E+02  0.59245117038E+01  0.14774286942E+03  0.12509000000E+03 0.  0.
<mgrwt>
<rscale>  2 0.44750832E+03</rscale>
<asrwt>0</asrwt>
<pdfrwt beam="1">  1       21 0.54634199E-01 0.44750832E+03</pdfrwt>
<pdfrwt beam="2">  1       21 0.19818000E-01 0.44750832E+03</pdfrwt>
<totfact> 0.68834448E+04</totfact>
</mgrwt>
</event>
<event>
 7    0  0.4732500E-002  0.4567427E+03  0.7546771E-02  0.1025730E+00
         21   -1    0    0  502  501  0.00000000000E+00  0.00000000000E+00  0.51770243243E+02  0.51770243243E+02  0.00000000000E+00 0. -1.
         21   -1    0    0  501  502 -0.00000000000E+00 -0.00000000000E+00 -0.10074026717E+04  0.10074026717E+04  0.00000000000E+00 0. -1.
      99926    2    1    2    0    0 -0.14210854715E-13  0.44408920985E-15 -0.95563242851E+03  0.10591729150E+04  0.45674273441E+03 0.  0.
      99925    2    3    3    0    0 -0.11423622410E+03 -0.27740863935E+01 -0.57560480692E+03  0.64308865463E+03  0.26302949171E+03 0.  0.
         25    1    4    4    0    0 -0.10030620806E+03 -0.50434914538E+01 -0.30401770058E+03  0.34374560731E+03  0.12509000000E+03 0.  0.
         25    1    4    4    0    0 -0.13930016045E+02  0.22694050602E+01 -0.27158710634E+03  0.29934304731E+03  0.12509000000E+03 0.  0.
         25    1    3    3    0    0  0.11423622410E+03  0.27740863935E+01 -0.38002762159E+03  0.41608426036E+03  0.12509000000E+03 0.  0.
<mgrwt>
<rscale>  2 0.45674273E+03</rscale>
<asrwt>0</asrwt>
<pdfrwt beam="1">  1       21 0.76132718E-02 0.45674273E+03</pdfrwt>
<pdfrwt beam="2">  1       21 0.14814744E+00 0.45674273E+03</pdfrwt>
<totfact> 0.36444384E+04</totfact>
</mgrwt>
</event>
<event>
 7    0  0.4732500E-002  0.4512831E+03  0.7546771E-02  0.1027340E+00
         21   -1    0    0  502  501  0.00000000000E+00  0.00000000000E+00  0.90997128167E+02  0.90997128167E+02  0.00000000000E+00 0.  1.
         21   -1    0    0  501  502 -0.00000000000E+00 -0.00000000000E+00 -0.55951324320E+03  0.55951324320E+03  0.00000000000E+00 0.  1.
      99926    2    1    2    0    0 -0.17763568394E-14  0.00000000000E+00 -0.46851611503E+03  0.65051037137E+03  0.45128305221E+03 0.  0.
      99925    2    3    3    0    0  0.10882718725E+02 -0.82007729800E+02 -0.39961216938E+03  0.48546806425E+03  0.26295561254E+03 0.  0.
         25    1    4    4    0    0 -0.29886168652E+01 -0.60492441765E+02 -0.26918800982E+03  0.30294877466E+03  0.12509000000E+03 0.  0.
         25    1    3    3    0    0 -0.10882718725E+02  0.82007729800E+02 -0.68903945649E+02  0.16504230712E+03  0.12509000000E+03 0.  0.
         25    1    4    4    0    0  0.13871335591E+02 -0.21515288036E+02 -0.13042415957E+03  0.18251928958E+03  0.12509000000E+03 0.  0.
<mgrwt>
<rscale>  2 0.45128305E+03</rscale>
<asrwt>0</asrwt>
<pdfrwt beam="1">  1       21 0.13381930E-01 0.45128305E+03</pdfrwt>
<pdfrwt beam="2">  1       21 0.82281361E-01 0.45128305E+03</pdfrwt>
<totfact> 0.57334832E+04</totfact>
</mgrwt>
</event>
<event>
 7    0  0.4732500E-002  0.4537118E+03  0.7546771E-02  0.1026621E+00
         21   -1    0    0  502  501  0.00000000000E+00  0.00000000000E+00  0.65476290448E+02  0.65476290448E+02  0.00000000000E+00 0. -1.
         21   -1    0    0  501  502 -0.00000000000E+00 -0.00000000000E+00 -0.78598843328E+03  0.78598843328E+03  0.00000000000E+00 0. -1.
      99926    2    1    2    0    0  0.00000000000E+00  0.00000000000E+00 -0.72051214283E+03  0.85146472373E+03  0.45371183342E+03 0.  0.
      99925    2    3    3    0    0 -0.55543109386E+02  0.95407702544E+02 -0.42015069275E+03  0.50787750700E+03  0.26310699495E+03 0.  0.
         25    1    4    4    0    0 -0.32725700743E+02  0.77729995649E+01 -0.21657864152E+03  0.25235928173E+03  0.12509000000E+03 0.  0.
         25    1    4    4    0    0 -0.22817408643E+02  0.87634702979E+02 -0.20357205123E+03  0.25551822527E+03  0.12509000000E+03 0.  0.
         25    1    3    3    0    0  0.55543109386E+02 -0.95407702544E+02 -0.30036145007E+03  0.34358721672E+03  0.12509000000E+03 0.  0.
<mgrwt>
<rscale>  2 0.45371183E+03</rscale>
<asrwt>0</asrwt>
<pdfrwt beam="1">  1       21 0.96288670E-02 0.45371183E+03</pdfrwt>
<pdfrwt beam="2">  1       21 0.11558653E+00 0.45371183E+03</pdfrwt>
<totfact> 0.45835334E+04</totfact>
</mgrwt>
</event>
<event>
 7    0  0.4732500E-002  0.4529083E+03  0.7546771E-02  0.1026858E+00
         21   -1    0    0  502  501  0.00000000000E+00  0.00000000000E+00  0.43383668772E+03  0.43383668772E+03  0.00000000000E+00 0. -1.
         21   -1    0    0  501  502 -0.00000000000E+00 -0.00000000000E+00 -0.11820457651E+03  0.11820457651E+03  0.00000000000E+00 0. -1.
      99926    2    1    2    0    0  0.00000000000E+00  0.00000000000E+00  0.31563211121E+03  0.55204126423E+03  0.45290829953E+03 0.  0.
      99925    2    3    3    0    0 -0.70419910672E+02 -0.72976015446E+02  0.25462461536E+03  0.37983822912E+03  0.26298084134E+03 0.  0.
         25    1    4    4    0    0 -0.21456036354E+02 -0.72619167952E+02  0.11444752239E+03  0.18568696381E+03  0.12509000000E+03 0.  0.
         25    1    3    3    0    0  0.70419910672E+02  0.72976015446E+02  0.61007495856E+02  0.17220303511E+03  0.12509000000E+03 0.  0.
         25    1    4    4    0    0 -0.48963874318E+02 -0.35684749476E+00  0.14017709297E+03  0.19415126531E+03  0.12509000000E+03 0.  0.
<mgrwt>
<rscale>  2 0.45290830E+03</rscale>
<asrwt>0</asrwt>
<pdfrwt beam="1">  1       21 0.63799512E-01 0.45290830E+03</pdfrwt>
<pdfrwt beam="2">  1       21 0.17383026E-01 0.45290830E+03</pdfrwt>
<totfact> 0.62764039E+04</totfact>
</mgrwt>
</event>
<event>
 7    0  0.4732500E-002  0.4497800E+03  0.7546771E-02  0.1027788E+00
         21   -1    0    0  502  501  0.00000000000E+00  0.00000000000E+00  0.20587939277E+03  0.20587939277E+03  0.00000000000E+00 0.  1.
         21   -1    0    0  501  502 -0.00000000000E+00 -0.00000000000E+00 -0.24565598586E+03  0.24565598586E+03  0.00000000000E+00 0.  1.
      99926    2    1    2    0    0  0.00000000000E+00  0.00000000000E+00 -0.39776593091E+02  0.45153537863E+03  0.44977996931E+03 0.  0.
      99925    2    3    3    0    0  0.63588105306E+02  0.86661149192E+02 -0.12456923193E+02  0.28436039731E+03  0.26296779025E+03 0.  0.
         25    1    4    4    0    0  0.18716256007E+02  0.81868871010E+02  0.12803948404E+01  0.15067168875E+03  0.12509000000E+03 0.  0.
         25    1    3    3    0    0 -0.63588105306E+02 -0.86661149192E+02 -0.27319669897E+02  0.16717498132E+03  0.12509000000E+03 0.  0.
         25    1    4    4    0    0  0.44871849299E+02  0.47922781813E+01 -0.13737318034E+02  0.13368870856E+03  0.12509000000E+03 0.  0.
<mgrwt>
<rscale>  2 0.44977997E+03</rscale>
<asrwt>0</asrwt>
<pdfrwt beam="1">  1       21 0.30276381E-01 0.44977997E+03</pdfrwt>
<pdfrwt beam="2">  1       21 0.36125880E-01 0.44977997E+03</pdfrwt>
<totfact> 0.71742110E+04</totfact>
</mgrwt>
</event>
<event>
 7    0  0.4732500E-002  0.4406965E+03  0.7546771E-02  0.1030533E+00
         21   -1    0    0  502  501  0.00000000000E+00  0.00000000000E+00  0.12133540130E+04  0.12133540130E+04  0.00000000000E+00 0. -1.
         21   -1    0    0  501  502 -0.00000000000E+00 -0.00000000000E+00 -0.40015807330E+02  0.40015807330E+02  0.00000000000E+00 0. -1.
      99926    2    1    2    0    0  0.35527136788E-14  0.14210854715E-13  0.11733382057E+04  0.12533698204E+04  0.44069645067E+03 0.  0.
      99925    2    3    3    0    0 -0.27327136616E+02 -0.95249454042E+02  0.74656056183E+03  0.79773191994E+03  0.26306712589E+03 0.  0.
         25    1    3    3    0    0  0.27327136616E+02  0.95249454042E+02  0.42677764389E+03  0.45563790043E+03  0.12509000000E+03 0.  0.
         25    1    4    4    0    0  0.53598264335E+01 -0.19292973531E+02  0.41353889311E+03  0.43250765402E+03  0.12509000000E+03 0.  0.
         25    1    4    4    0    0 -0.32686963049E+02 -0.75956480511E+02  0.33302166872E+03  0.36522426592E+03  0.12509000000E+03 0.  0.
<mgrwt>
<rscale>  2 0.44069645E+03</rscale>
<asrwt>0</asrwt>
<pdfrwt beam="1">  1       21 0.17843439E+00 0.44069645E+03</pdfrwt>
<pdfrwt beam="2">  1       21 0.58846783E-02 0.44069645E+03</pdfrwt>
<totfact> 0.34144632E+04</totfact>
</mgrwt>
</event>
<event>
 7    0  0.4732500E-002  0.4545664E+03  0.7546771E-02  0.1026369E+00
         21   -1    0    0  502  501  0.00000000000E+00  0.00000000000E+00  0.50872182742E+02  0.50872182742E+02  0.00000000000E+00 0. -1.
         21   -1    0    0  501  502 -0.00000000000E+00 -0.00000000000E+00 -0.10154401864E+04  0.10154401864E+04  0.00000000000E+00 0. -1.
      99926    2    1    2    0    0  0.00000000000E+00  0.00000000000E+00 -0.96456800370E+03  0.10663123692E+04  0.45456642520E+03 0.  0.
      99925    2    3    3    0    0  0.26652123801E+02 -0.42037351212E+02 -0.84462634447E+03  0.88600434297E+03  0.26293071213E+03 0.  0.
         25    1    4    4    0    0 -0.20452158083E+02 -0.13435227356E+02 -0.33708507325E+03  0.36037848273E+03  0.12509000000E+03 0.  0.
         25    1    4    4    0    0  0.47104281884E+02 -0.28602123856E+02 -0.50754127122E+03  0.52562586024E+03  0.12509000000E+03 0.  0.
         25    1    3    3    0    0 -0.26652123801E+02  0.42037351212E+02 -0.11994165923E+03  0.18030802622E+03  0.12509000000E+03 0.  0.
<mgrwt>
<rscale>  2 0.45456643E+03</rscale>
<asrwt>0</asrwt>
<pdfrwt beam="1">  1       21 0.74812034E-02 0.45456643E+03</pdfrwt>
<pdfrwt beam="2">  1       21 0.14932944E+00 0.45456643E+03</pdfrwt>
<totfact> 0.36808867E+04</totfact>
</mgrwt>
</event>
<event>
 7    0  0.4732500E-002  0.4590310E+03  0.7546771E-02  0.1025063E+00
         21   -1    0    0  502  501  0.00000000000E+00  0.00000000000E+00  0.21145611497E+03  0.21145611497E+03  0.00000000000E+00 0.  1.
         21   -1    0    0  501  502 -0.00000000000E+00 -0.00000000000E+00 -0.24911724550E+03  0.24911724550E+03  0.00000000000E+00 0.  1.
      99926    2    1    2    0    0 -0.71054273576E-14  0.71054273576E-14 -0.37661130525E+02  0.46057336047E+03  0.45903100072E+03 0.  0.
      99925    2    3    3    0    0 -0.61067046668E+02  0.51173870621E+02 -0.10932794654E+03  0.29585666478E+03  0.26311711646E+03 0.  0.
         25    1    3    3    0    0  0.61067046668E+02 -0.51173870621E+02  0.71666816016E+02  0.16471669570E+03  0.12509000000E+03 0.  0.
         25    1    4    4    0    0 -0.32922735249E+02  0.39198329294E+02 -0.14501590316E+02  0.13593461567E+03  0.12509000000E+03 0.  0.
         25    1    4    4    0    0 -0.28144311419E+02  0.11975541327E+02 -0.94826356225E+02  0.15992204911E+03  0.12509000000E+03 0.  0.
<mgrwt>
<rscale>  2 0.45903100E+03</rscale>
<asrwt>0</asrwt>
<pdfrwt beam="1">  1       21 0.31096488E-01 0.45903100E+03</pdfrwt>
<pdfrwt beam="2">  1       21 0.36634889E-01 0.45903100E+03</pdfrwt>
<totfact> 0.65991339E+04</totfact>
</mgrwt>
</event>
<event>
 7    0  0.4732500E-002  0.4595629E+03  0.7546771E-02  0.1024908E+00
         21   -1    0    0  502  501  0.00000000000E+00  0.00000000000E+00  0.10078100591E+03  0.10078100591E+03  0.00000000000E+00 0. -1.
         21   -1    0    0  501  502 -0.00000000000E+00 -0.00000000000E+00 -0.52390336991E+03  0.52390336991E+03  0.00000000000E+00 0. -1.
      99926    2    1    2    0    0  0.00000000000E+00  0.00000000000E+00 -0.42312236399E+03  0.62468437582E+03  0.45956287327E+03 0.  0.
      99925    2    3    3    0    0 -0.68085069177E+02 -0.25329146692E+02 -0.39028733730E+03  0.47635100333E+03  0.26326589297E+03 0.  0.
         25    1    4    4    0    0 -0.48346573348E+02 -0.51437977386E+02 -0.19700712055E+03  0.24380847057E+03  0.12509000000E+03 0.  0.
         25    1    3    3    0    0  0.68085069177E+02  0.25329146692E+02 -0.32835026695E+02  0.14833337249E+03  0.12509000000E+03 0.  0.
         25    1    4    4    0    0 -0.19738495828E+02  0.26108830694E+02 -0.19328021675E+03  0.23254253276E+03  0.12509000000E+03 0.  0.
<mgrwt>
<rscale>  2 0.45956287E+03</rscale>
<asrwt>0</asrwt>
<pdfrwt beam="1">  1       21 0.14820736E-01 0.45956287E+03</pdfrwt>
<pdfrwt beam="2">  1       21 0.77044614E-01 0.45956287E+03</pdfrwt>
<totfact> 0.55169432E+04</totfact>
</mgrwt>
</event>
<event>
 7    0  0.4732500E-002  0.4657707E+03  0.7546771E-02  0.1023121E+00
         21   -1    0    0  502  501  0.00000000000E+00  0.00000000000E+00  0.11391992480E+03  0.11391992480E+03  0.00000000000E+00 0.  1.
         21   -1    0    0  501  502 -0.00000000000E+00 -0.00000000000E+00 -0.47608512040E+03  0.47608512040E+03  0.00000000000E+00 0.  1.
      99926    2    1    2    0    0  0.14210854715E-13  0.00000000000E+00 -0.36216519560E+03  0.59000504520E+03  0.46577067797E+03 0.  0.
      99925    2    3    3    0    0  0.91153440935E+02  0.79944008539E+02 -0.19985756801E+03  0.35190576261E+03  0.26304871026E+03 0.  0.
         25    1    4    4    0    0  0.70637095877E+02  0.82628592030E+01 -0.94119584474E+02  0.17194149714E+03  0.12509000000E+03 0.  0.
         25    1    3    3    0    0 -0.91153440935E+02 -0.79944008539E+02 -0.16230762760E+03  0.23809928259E+03  0.12509000000E+03 0.  0.
         25    1    4    4    0    0  0.20516345059E+02  0.71681149336E+02 -0.10573798353E+03  0.17996426547E+03  0.12509000000E+03 0.  0.
<mgrwt>
<rscale>  2 0.46577068E+03</rscale>
<asrwt>0</asrwt>
<pdfrwt beam="1">  1       21 0.16752930E-01 0.46577068E+03</pdfrwt>
<pdfrwt beam="2">  1       21 0.70012518E-01 0.46577068E+03</pdfrwt>
<totfact> 0.54507203E+04</totfact>
</mgrwt>
</event>
<event>
 7    0  0.4732500E-002  0.4574951E+03  0.7546771E-02  0.1025510E+00
         21   -1    0    0  502  501  0.00000000000E+00  0.00000000000E+00  0.24934136441E+03  0.24934136441E+03  0.00000000000E+00 0.  1.
         21   -1    0    0  501  502 -0.00000000000E+00 -0.00000000000E+00 -0.20985463403E+03  0.20985463403E+03  0.00000000000E+00 0.  1.
      99926    2    1    2    0    0  0.00000000000E+00  0.00000000000E+00  0.39486730383E+02  0.45919599844E+03  0.45749509627E+03 0.  0.
      99925    2    3    3    0    0  0.83031532114E+02 -0.79927839815E+02  0.17708579906E+02  0.28771862139E+03  0.26303177829E+03 0.  0.
         25    1    4    4    0    0  0.79039981616E+02 -0.42752097427E+02  0.28797049580E+02  0.15669026355E+03  0.12509000000E+03 0.  0.
         25    1    4    4    0    0  0.39915504980E+01 -0.37175742388E+02 -0.11088469674E+02  0.13102835784E+03  0.12509000000E+03 0.  0.
         25    1    3    3    0    0 -0.83031532114E+02  0.79927839815E+02  0.21778150477E+02  0.17147737705E+03  0.12509000000E+03 0.  0.
<mgrwt>
<rscale>  2 0.45749510E+03</rscale>
<asrwt>0</asrwt>
<pdfrwt beam="1">  1       21 0.36667848E-01 0.45749510E+03</pdfrwt>
<pdfrwt beam="2">  1       21 0.30860976E-01 0.45749510E+03</pdfrwt>
<totfact> 0.66897787E+04</totfact>
</mgrwt>
</event>
<event>
 7    0  0.4732500E-002  0.4407842E+03  0.7546771E-02  0.1030506E+00
         21   -1    0    0  502  501  0.00000000000E+00  0.00000000000E+00  0.70417809753E+02  0.70417809753E+02  0.00000000000E+00 0.  1.
         21   -1    0    0  501  502 -0.00000000000E+00 -0.00000000000E+00 -0.68977827459E+03  0.68977827459E+03  0.00000000000E+00 0.  1.
      99926    2    1    2    0    0  0.00000000000E+00  0.00000000000E+00 -0.61936046484E+03  0.76019608434E+03  0.44078418897E+03 0.  0.
      99925    2    3    3    0    0  0.88339593391E+02 -0.34984609174E+02 -0.44453802089E+03  0.52516799741E+03  0.26298206564E+03 0.  0.
         25    1    4    4    0    0  0.83145511765E+02 -0.15174948717E+02 -0.21095605629E+03  0.25940975498E+03  0.12509000000E+03 0.  0.
         25    1    4    4    0    0  0.51940816265E+01 -0.19809660456E+02 -0.23358196460E+03  0.26575824242E+03  0.12509000000E+03 0.  0.
         25    1    3    3    0    0 -0.88339593391E+02  0.34984609174E+02 -0.17482244395E+03  0.23502808694E+03  0.12509000000E+03 0.  0.
<mgrwt>
<rscale>  2 0.44078419E+03</rscale>
<asrwt>0</asrwt>
<pdfrwt beam="1">  1       21 0.10355561E-01 0.44078419E+03</pdfrwt>
<pdfrwt beam="2">  1       21 0.10143798E+00 0.44078419E+03</pdfrwt>
<totfact> 0.55712878E+04</totfact>
</mgrwt>
</event>
<event>
 7    0  0.4732500E-002  0.4461495E+03  0.7546771E-02  0.1028877E+00
         21   -1    0    0  502  501  0.00000000000E+00  0.00000000000E+00  0.15269955343E+03  0.15269955343E+03  0.00000000000E+00 0. -1.
         21   -1    0    0  501  502 -0.00000000000E+00 -0.00000000000E+00 -0.32588403599E+03  0.32588403599E+03  0.00000000000E+00 0. -1.
      99926    2    1    2    0    0  0.00000000000E+00  0.00000000000E+00 -0.17318448255E+03  0.47858358942E+03  0.44614951201E+03 0.  0.
      99925    2    3    3    0    0 -0.36785780487E+02  0.40749373264E+02 -0.14259151388E+02  0.26901623974E+03  0.26296902627E+03 0.  0.
         25    1    4    4    0    0 -0.20684392539E+02 -0.20482170455E+02 -0.59478666265E+01  0.12857001446E+03  0.12509000000E+03 0.  0.
         25    1    4    4    0    0 -0.16101387948E+02  0.61231543720E+02 -0.83112847613E+01  0.14044622528E+03  0.12509000000E+03 0.  0.
         25    1    3    3    0    0  0.36785780487E+02 -0.40749373264E+02 -0.15892533117E+03  0.20956734968E+03  0.12509000000E+03 0.  0.
<mgrwt>
<rscale>  2 0.44614951E+03</rscale>
<asrwt>0</asrwt>
<pdfrwt beam="1">  1       21 0.22455817E-01 0.44614951E+03</pdfrwt>
<pdfrwt beam="2">  1       21 0.47924123E-01 0.44614951E+03</pdfrwt>
<totfact> 0.71710582E+04</totfact>
</mgrwt>
</event>
<event>
 7    0  0.4732500E-002  0.4530143E+03  0.7546771E-02  0.1026827E+00
         21   -1    0    0  502  501  0.00000000000E+00  0.00000000000E+00  0.20742070570E+03  0.20742070570E+03  0.00000000000E+00 0.  1.
         21   -1    0    0  501  502 -0.00000000000E+00 -0.00000000000E+00 -0.24734990513E+03  0.24734990513E+03  0.00000000000E+00 0.  1.
      99926    2    1    2    0    0 -0.44408920985E-14  0.00000000000E+00 -0.39929199429E+02  0.45477061082E+03  0.45301431269E+03 0.  0.
      99925    2    3    3    0    0  0.65174349948E+01 -0.10174998552E+03 -0.70065097649E+02  0.29060235270E+03  0.26295450742E+03 0.  0.
         25    1    3    3    0    0 -0.65174349948E+01  0.10174998552E+03  0.30135898220E+02  0.16416825812E+03  0.12509000000E+03 0.  0.
         25    1    4    4    0    0 -0.36494288655E+02 -0.51740112008E+02 -0.42734418378E+02  0.14656947468E+03  0.12509000000E+03 0.  0.
         25    1    4    4    0    0  0.43011723650E+02 -0.50009873515E+02 -0.27330679271E+02  0.14403287802E+03  0.12509000000E+03 0.  0.
<mgrwt>
<rscale>  2 0.45301431E+03</rscale>
<asrwt>0</asrwt>
<pdfrwt beam="1">  1       21 0.30503045E-01 0.45301431E+03</pdfrwt>
<pdfrwt beam="2">  1       21 0.36374986E-01 0.45301431E+03</pdfrwt>
<totfact> 0.69659724E+04</totfact>
</mgrwt>
</event>
<event>
 7    0  0.4732500E-002  0.4538701E+03  0.7546771E-02  0.1026574E+00
         21   -1    0    0  502  501  0.00000000000E+00  0.00000000000E+00  0.10512303050E+03  0.10512303050E+03  0.00000000000E+00 0. -1.
         21   -1    0    0  501  502 -0.00000000000E+00 -0.00000000000E+00 -0.48989748940E+03  0.48989748940E+03  0.00000000000E+00 0. -1.
      99926    2    1    2    0    0  0.00000000000E+00  0.00000000000E+00 -0.38477445889E+03  0.59502051990E+03  0.45387006388E+03 0.  0.
      99925    2    3    3    0    0  0.64172409379E+02  0.90068912552E+02 -0.26645033387E+03  0.39037787089E+03  0.26299922913E+03 0.  0.
         25    1    4    4    0    0  0.31819622091E+02  0.69813910233E+02 -0.95284137918E+02  0.17496584081E+03  0.12509000000E+03 0.  0.
         25    1    4    4    0    0  0.32352787288E+02  0.20255002319E+02 -0.17116619595E+03  0.21541203008E+03  0.12509000000E+03 0.  0.
         25    1    3    3    0    0 -0.64172409379E+02 -0.90068912552E+02 -0.11832412502E+03  0.20464264901E+03  0.12509000000E+03 0.  0.
<mgrwt>
<rscale>  2 0.45387006E+03</rscale>
<asrwt>0</asrwt>
<pdfrwt beam="1">  1       21 0.15459269E-01 0.45387006E+03</pdfrwt>
<pdfrwt beam="2">  1       21 0.72043748E-01 0.45387006E+03</pdfrwt>
<totfact> 0.59515463E+04</totfact>
</mgrwt>
</event>
<event>
 6    0  0.4732500E-002  0.4561866E+03  0.7546771E-02  0.1025893E+00
         21   -1    0    0  502  501  0.00000000000E+00  0.00000000000E+00  0.15096124228E+04  0.15096124228E+04  0.00000000000E+00 0. -1.
         21   -1    0    0  501  502 -0.00000000000E+00 -0.00000000000E+00 -0.34463511052E+02  0.34463511052E+02  0.00000000000E+00 0. -1.
      99926    2    1    2    0    0  0.00000000000E+00  0.00000000000E+00  0.14751489117E+04  0.15440759338E+04  0.45618656015E+03 0.  0.
         25    1    3    3    0    0  0.33682196145E+02 -0.36073557131E+02  0.50666818464E+03  0.52420983326E+03  0.12509000000E+03 0.  0.
         25    1    3    3    0    0  0.72651592164E+02  0.17909760767E+02  0.33766704601E+03  0.36778465906E+03  0.12509000000E+03 0.  0.
         25    1    3    3    0    0 -0.10633378831E+03  0.18163796364E+02  0.63081368108E+03  0.65208144152E+03  0.12509000000E+03 0.  0.
<mgrwt>
<rscale>  2 0.45618656E+03</rscale>
<asrwt>0</asrwt>
<pdfrwt beam="1">  1       21 0.22200178E+00 0.45618656E+03</pdfrwt>
<pdfrwt beam="2">  1       21 0.50681644E-02 0.45618656E+03</pdfrwt>
<totfact> 0.22511134E+04</totfact>
</mgrwt>
</event>
<event>
 7    0  0.4732500E-002  0.4571682E+03  0.7546771E-02  0.1025606E+00
         21   -1    0    0  502  501  0.00000000000E+00  0.00000000000E+00  0.47540679838E+02  0.47540679838E+02  0.00000000000E+00 0.  1.
         21   -1    0    0  501  502 -0.00000000000E+00 -0.00000000000E+00 -0.10990731623E+04  0.10990731623E+04  0.00000000000E+00 0.  1.
      99926    2    1    2    0    0  0.00000000000E+00  0.00000000000E+00 -0.10515324824E+04  0.11466138421E+04  0.45716817617E+03 0.  0.
      99925    2    3    3    0    0  0.98183633258E+02 -0.56456457948E+02 -0.60688539734E+03  0.67102379189E+03  0.26293665833E+03 0.  0.
         25    1    4    4    0    0  0.60321895830E+02  0.92024653685E+01 -0.32181689622E+03  0.35062378596E+03  0.12509000000E+03 0.  0.
         25    1    3    3    0    0 -0.98183633258E+02  0.56456457948E+02 -0.44464708508E+03  0.47559005020E+03  0.12509000000E+03 0.  0.
         25    1    4    4    0    0  0.37861737428E+02 -0.65658923316E+02 -0.28506850112E+03  0.32040000593E+03  0.12509000000E+03 0.  0.
<mgrwt>
<rscale>  2 0.45716818E+03</rscale>
<asrwt>0</asrwt>
<pdfrwt beam="1">  1       21 0.69912756E-02 0.45716818E+03</pdfrwt>
<pdfrwt beam="2">  1       21 0.16162843E+00 0.45716818E+03</pdfrwt>
<totfact> 0.33328835E+04</totfact>
</mgrwt>
</event>
<event>
 7    0  0.4732500E-002  0.4584605E+03  0.7546771E-02  0.1025229E+00
         21   -1    0    0  502  501  0.00000000000E+00  0.00000000000E+00  0.28896694828E+03  0.28896694828E+03  0.00000000000E+00 0. -1.
         21   -1    0    0  501  502 -0.00000000000E+00 -0.00000000000E+00 -0.18184264041E+03  0.18184264041E+03  0.00000000000E+00 0. -1.
      99926    2    1    2    0    0  0.00000000000E+00  0.00000000000E+00  0.10712430788E+03  0.47080958869E+03  0.45846052334E+03 0.  0.
      99925    2    3    3    0    0  0.78152162638E+02 -0.72429598511E+02  0.19279686604E+02  0.28448193950E+03  0.26306740642E+03 0.  0.
         25    1    4    4    0    0  0.36362354827E+02 -0.67171015432E+02 -0.17123587911E+02  0.14756317808E+03  0.12509000000E+03 0.  0.
         25    1    4    4    0    0  0.41789807811E+02 -0.52585830788E+01  0.36403274514E+02  0.13691876142E+03  0.12509000000E+03 0.  0.
         25    1    3    3    0    0 -0.78152162638E+02  0.72429598511E+02  0.87844621276E+02  0.18632764919E+03  0.12509000000E+03 0.  0.
<mgrwt>
<rscale>  2 0.45846052E+03</rscale>
<asrwt>0</asrwt>
<pdfrwt beam="1">  1       21 0.42495140E-01 0.45846052E+03</pdfrwt>
<pdfrwt beam="2">  1       21 0.26741565E-01 0.45846052E+03</pdfrwt>
<totfact> 0.65557531E+04</totfact>
</mgrwt>
</event>
<event>
 7    0  0.4732500E-002  0.4539595E+03  0.7546771E-02  0.1026548E+00
         21   -1    0    0  502  501  0.00000000000E+00  0.00000000000E+00  0.24422484969E+03  0.24422484969E+03  0.00000000000E+00 0. -1.
         21   -1    0    0  501  502 -0.00000000000E+00 -0.00000000000E+00 -0.21095237890E+03  0.21095237890E+03  0.00000000000E+00 0. -1.
      99926    2    1    2    0    0  0.00000000000E+00  0.00000000000E+00  0.33272470793E+02  0.45517722858E+03  0.45395952695E+03 0.  0.
      99925    2    3    3    0    0 -0.48794913235E+02 -0.98839731030E+02  0.41662553894E+02  0.28823970260E+03  0.26305155725E+03 0.  0.
         25    1    3    3    0    0  0.48794913235E+02  0.98839731030E+02 -0.83900831015E+01  0.16693752599E+03  0.12509000000E+03 0.  0.
         25    1    4    4    0    0 -0.55282878651E+02 -0.47390017539E+02  0.48513694916E+02  0.15265351987E+03  0.12509000000E+03 0.  0.
         25    1    4    4    0    0  0.64879654160E+01 -0.51449713490E+02 -0.68511410211E+01  0.13558618273E+03  0.12509000000E+03 0.  0.
<mgrwt>
<rscale>  2 0.45395953E+03</rscale>
<asrwt>0</asrwt>
<pdfrwt beam="1">  1       21 0.35915419E-01 0.45395953E+03</pdfrwt>
<pdfrwt beam="2">  1       21 0.31022409E-01 0.45395953E+03</pdfrwt>
<totfact> 0.69104752E+04</totfact>
</mgrwt>
</event>
<event>
 7    0  0.4732500E-002  0.4050663E+03  0.7546771E-02  0.1042039E+00
         21   -1    0    0  502  501  0.00000000000E+00  0.00000000000E+00  0.22393690328E+03  0.22393690328E+03  0.00000000000E+00 0. -1.
         21   -1    0    0  501  502 -0.00000000000E+00 -0.00000000000E+00 -0.18317513989E+03  0.18317513989E+03  0.00000000000E+00 0. -1.
      99926    2    1    2    0    0 -0.35527136788E-14  0.71054273576E-14  0.40761763398E+02  0.40711204317E+03  0.40506628388E+03 0.  0.
      99925    2    3    3    0    0  0.21461549450E+02 -0.49891888124E+02  0.29480849041E+02  0.27027430812E+03  0.26311458067E+03 0.  0.
         25    1    4    4    0    0  0.34610118698E+02 -0.53289911714E+02 -0.29578040371E+01  0.14033506943E+03  0.12509000000E+03 0.  0.
         25    1    4    4    0    0 -0.13148569248E+02  0.33980235898E+01  0.32438653078E+02  0.12993923869E+03  0.12509000000E+03 0.  0.
         25    1    3    3    0    0 -0.21461549450E+02  0.49891888124E+02  0.11280914358E+02  0.13683773505E+03  0.12509000000E+03 0.  0.
<mgrwt>
<rscale>  2 0.40506628E+03</rscale>
<asrwt>0</asrwt>
<pdfrwt beam="1">  1       21 0.32931898E-01 0.40506628E+03</pdfrwt>
<pdfrwt beam="2">  1       21 0.26937521E-01 0.40506628E+03</pdfrwt>
<totfact> 0.10987888E+05</totfact>
</mgrwt>
</event>
<event>
 7    0  0.4732500E-002  0.4645123E+03  0.7546771E-02  0.1023481E+00
         21   -1    0    0  502  501  0.00000000000E+00  0.00000000000E+00  0.40347424524E+03  0.40347424524E+03  0.00000000000E+00 0.  1.
         21   -1    0    0  501  502 -0.00000000000E+00 -0.00000000000E+00 -0.13369604703E+03  0.13369604703E+03  0.00000000000E+00 0.  1.
      99926    2    1    2    0    0  0.00000000000E+00  0.14210854715E-13  0.26977819822E+03  0.53717029227E+03  0.46451226751E+03 0.  0.
      99925    2    3    3    0    0  0.53209699234E+02 -0.10689463449E+03  0.19627526770E+03  0.34926626392E+03  0.26306882641E+03 0.  0.
         25    1    3    3    0    0 -0.53209699234E+02  0.10689463449E+03  0.73502930514E+02  0.18790402835E+03  0.12509000000E+03 0.  0.
         25    1    4    4    0    0  0.64267230308E+02 -0.38933487713E+02  0.10550021983E+03  0.18006637066E+03  0.12509000000E+03 0.  0.
         25    1    4    4    0    0 -0.11057531075E+02 -0.67961146776E+02  0.90775047871E+02  0.16919989326E+03  0.12509000000E+03 0.  0.
<mgrwt>
<rscale>  2 0.46451227E+03</rscale>
<asrwt>0</asrwt>
<pdfrwt beam="1">  1       21 0.59334448E-01 0.46451227E+03</pdfrwt>
<pdfrwt beam="2">  1       21 0.19661183E-01 0.46451227E+03</pdfrwt>
<totfact> 0.58209845E+04</totfact>
</mgrwt>
</event>
<event>
 7    0  0.4732500E-002  0.4534434E+03  0.7546771E-02  0.1026700E+00
         21   -1    0    0  502  501  0.00000000000E+00  0.00000000000E+00  0.11404000271E+04  0.11404000271E+04  0.00000000000E+00 0. -1.
         21   -1    0    0  501  502 -0.00000000000E+00 -0.00000000000E+00 -0.45074297727E+02  0.45074297727E+02  0.00000000000E+00 0. -1.
      99926    2    1    2    0    0  0.00000000000E+00  0.00000000000E+00  0.10953257293E+04  0.11854743248E+04  0.45344340484E+03 0.  0.
      99925    2    3    3    0    0 -0.52381998719E+02 -0.73305256045E+02  0.86282070812E+03  0.90650546032E+03  0.26301148430E+03 0.  0.
         25    1    4    4    0    0 -0.67048557046E+02 -0.44795337649E+02  0.47091542013E+03  0.49387343753E+03  0.12509000000E+03 0.  0.
         25    1    4    4    0    0  0.14666558327E+02 -0.28509918396E+02  0.39190528799E+03  0.41263202279E+03  0.12509000000E+03 0.  0.
         25    1    3    3    0    0  0.52381998719E+02  0.73305256045E+02  0.23250502122E+03  0.27896886448E+03  0.12509000000E+03 0.  0.
<mgrwt>
<rscale>  2 0.45344340E+03</rscale>
<asrwt>0</asrwt>
<pdfrwt beam="1">  1       21 0.16770587E+00 0.45344340E+03</pdfrwt>
<pdfrwt beam="2">  1       21 0.66285739E-02 0.45344340E+03</pdfrwt>
<totfact> 0.33018369E+04</totfact>
</mgrwt>
</event>
<event>
 7    0  0.4732500E-002  0.4567821E+03  0.7546771E-02  0.1025719E+00
         21   -1    0    0  502  501  0.00000000000E+00  0.00000000000E+00  0.10160520434E+03  0.10160520434E+03  0.00000000000E+00 0.  1.
         21   -1    0    0  501  502 -0.00000000000E+00 -0.00000000000E+00 -0.51338390013E+03  0.51338390013E+03  0.00000000000E+00 0.  1.
      99926    2    1    2    0    0  0.00000000000E+00  0.00000000000E+00 -0.41177869579E+03  0.61498910446E+03  0.45678211907E+03 0.  0.
      99925    2    3    3    0    0 -0.49806701092E+02 -0.61158267905E+02 -0.37123935678E+03  0.46165291397E+03  0.26283780502E+03 0.  0.
         25    1    4    4    0    0 -0.66168871535E+01 -0.66718441151E+02 -0.19593423487E+03  0.24193566517E+03  0.12509000000E+03 0.  0.
         25    1    4    4    0    0 -0.43189813939E+02  0.55601732459E+01 -0.17530512190E+03  0.21971724880E+03  0.12509000000E+03 0.  0.
         25    1    3    3    0    0  0.49806701092E+02  0.61158267905E+02 -0.40539339013E+02  0.15333619049E+03  0.12509000000E+03 0.  0.
<mgrwt>
<rscale>  2 0.45678212E+03</rscale>
<asrwt>0</asrwt>
<pdfrwt beam="1">  1       21 0.14941942E-01 0.45678212E+03</pdfrwt>
<pdfrwt beam="2">  1       21 0.75497630E-01 0.45678212E+03</pdfrwt>
<totfact> 0.56959075E+04</totfact>
</mgrwt>
</event>
<event>
 7    0  0.4732500E-002  0.4510217E+03  0.7546771E-02  0.1027418E+00
         21   -1    0    0  502  501  0.00000000000E+00  0.00000000000E+00  0.80522484474E+03  0.80522484474E+03  0.00000000000E+00 0. -1.
         21   -1    0    0  501  502 -0.00000000000E+00 -0.00000000000E+00 -0.63156448612E+02  0.63156448612E+02  0.00000000000E+00 0. -1.
      99926    2    1    2    0    0  0.00000000000E+00  0.00000000000E+00  0.74206839612E+03  0.86838129335E+03  0.45102169140E+03 0.  0.
      99925    2    3    3    0    0  0.82975854865E+02  0.62611372270E+02  0.40237845711E+03  0.49176220302E+03  0.26290010489E+03 0.  0.
         25    1    3    3    0    0 -0.82975854865E+02 -0.62611372270E+02  0.33968993902E+03  0.37661909033E+03  0.12509000000E+03 0.  0.
         25    1    4    4    0    0  0.15358065815E+02  0.37200261260E+02  0.13838727222E+03  0.19083572736E+03  0.12509000000E+03 0.  0.
         25    1    4    4    0    0  0.67617789050E+02  0.25411111010E+02  0.26399118489E+03  0.30092647567E+03  0.12509000000E+03 0.  0.
<mgrwt>
<rscale>  2 0.45102169E+03</rscale>
<asrwt>0</asrwt>
<pdfrwt beam="1">  1       21 0.11841541E+00 0.45102169E+03</pdfrwt>
<pdfrwt beam="2">  1       21 0.92877135E-02 0.45102169E+03</pdfrwt>
<totfact> 0.46047340E+04</totfact>
</mgrwt>
</event>
<event>
 7    0  0.4732500E-002  0.4532527E+03  0.7546771E-02  0.1026756E+00
         21   -1    0    0  502  501  0.00000000000E+00  0.00000000000E+00  0.21356938710E+03  0.21356938710E+03  0.00000000000E+00 0. -1.
         21   -1    0    0  501  502 -0.00000000000E+00 -0.00000000000E+00 -0.24048162149E+03  0.24048162149E+03  0.00000000000E+00 0. -1.
      99926    2    1    2    0    0  0.00000000000E+00 -0.13322676296E-14 -0.26912234388E+02  0.45405100858E+03  0.45325274410E+03 0.  0.
      99925    2    3    3    0    0 -0.82125116599E+02  0.36220783446E+01 -0.92315823496E+02  0.29070232693E+03  0.26311210042E+03 0.  0.
         25    1    3    3    0    0  0.82125116599E+02 -0.36220783446E+01  0.65403589108E+02  0.16334868165E+03  0.12509000000E+03 0.  0.
         25    1    4    4    0    0 -0.69832521964E+02 -0.19041239937E+02 -0.26176030327E+02  0.14687355993E+03  0.12509000000E+03 0.  0.
         25    1    4    4    0    0 -0.12292594635E+02  0.22663318281E+02 -0.66139793168E+02  0.14382876701E+03  0.12509000000E+03 0.  0.
<mgrwt>
<rscale>  2 0.45325274E+03</rscale>
<asrwt>0</asrwt>
<pdfrwt beam="1">  1       21 0.31407263E-01 0.45325274E+03</pdfrwt>
<pdfrwt beam="2">  1       21 0.35364944E-01 0.45325274E+03</pdfrwt>
<totfact> 0.69580379E+04</totfact>
</mgrwt>
</event>
<event>
 7    0  0.4732500E-002  0.4599099E+03  0.7546771E-02  0.1024807E+00
         21   -1    0    0  502  501  0.00000000000E+00  0.00000000000E+00  0.16615488208E+03  0.16615488208E+03  0.00000000000E+00 0. -1.
         21   -1    0    0  501  502 -0.00000000000E+00 -0.00000000000E+00 -0.31825299681E+03  0.31825299681E+03  0.00000000000E+00 0. -1.
      99926    2    1    2    0    0  0.00000000000E+00  0.00000000000E+00 -0.15209811473E+03  0.48440787890E+03  0.45990994405E+03 0.  0.
      99925    2    3    3    0    0  0.11587672134E+03 -0.12312214384E+02 -0.11242094848E+03  0.30890633818E+03  0.26306966936E+03 0.  0.
         25    1    4    4    0    0  0.97346954763E+02 -0.14571034021E+02 -0.44158913311E+02  0.16518553919E+03  0.12509000000E+03 0.  0.
         25    1    4    4    0    0  0.18529766582E+02  0.22588196370E+01 -0.68262035165E+02  0.14372079898E+03  0.12509000000E+03 0.  0.
         25    1    3    3    0    0 -0.11587672134E+03  0.12312214384E+02 -0.39677166253E+02  0.17550154072E+03  0.12509000000E+03 0.  0.
<mgrwt>
<rscale>  2 0.45990994E+03</rscale>
<asrwt>0</asrwt>
<pdfrwt beam="1">  1       21 0.24434542E-01 0.45990994E+03</pdfrwt>
<pdfrwt beam="2">  1       21 0.46801911E-01 0.45990994E+03</pdfrwt>
<totfact> 0.63855384E+04</totfact>
</mgrwt>
</event>
<event>
 7    0  0.4732500E-002  0.4562447E+03  0.7546771E-02  0.1025876E+00
         21   -1    0    0  502  501  0.00000000000E+00  0.00000000000E+00  0.11298769193E+03  0.11298769193E+03  0.00000000000E+00 0. -1.
         21   -1    0    0  501  502 -0.00000000000E+00 -0.00000000000E+00 -0.46057944287E+03  0.46057944287E+03  0.00000000000E+00 0. -1.
      99926    2    1    2    0    0  0.00000000000E+00  0.00000000000E+00 -0.34759175094E+03  0.57356713480E+03  0.45624470715E+03 0.  0.
      99925    2    3    3    0    0  0.51002422927E+02 -0.12388458901E+02 -0.34625911242E+03  0.43790577301E+03  0.26289041832E+03 0.  0.
         25    1    4    4    0    0  0.46980441886E+01 -0.24750408924E+02 -0.21710777266E+03  0.25182920285E+03  0.12509000000E+03 0.  0.
         25    1    3    3    0    0 -0.51002422927E+02  0.12388458901E+02 -0.13326385170E+01  0.13566136179E+03  0.12509000000E+03 0.  0.
         25    1    4    4    0    0  0.46304378738E+02  0.12361950024E+02 -0.12915133976E+03  0.18607657016E+03  0.12509000000E+03 0.  0.
<mgrwt>
<rscale>  2 0.45624471E+03</rscale>
<asrwt>0</asrwt>
<pdfrwt beam="1">  1       21 0.16615837E-01 0.45624471E+03</pdfrwt>
<pdfrwt beam="2">  1       21 0.67732270E-01 0.45624471E+03</pdfrwt>
<totfact> 0.59745322E+04</totfact>
</mgrwt>
</event>
<event>
 7    0  0.4732500E-002  0.3970386E+03  0.7546771E-02  0.1044810E+00
         21   -1    0    0  502  501  0.00000000000E+00  0.00000000000E+00  0.77434596479E+02  0.77434596479E+02  0.00000000000E+00 0. -1.
         21   -1    0    0  501  502 -0.00000000000E+00 -0.00000000000E+00 -0.50894439375E+03  0.50894439375E+03  0.00000000000E+00 0. -1.
      99926    2    1    2    0    0 -0.71054273576E-14 -0.19984014443E-14 -0.43150979727E+03  0.58637899023E+03  0.39703855611E+03 0.  0.
      99925    2    3    3    0    0  0.35054107096E+02 -0.13088910905E+01 -0.26303454312E+03  0.37363049321E+03  0.26302484857E+03 0.  0.
         25    1    4    4    0    0 -0.18787019858E+02 -0.19301662898E+02 -0.12413808000E+03  0.17827865075E+03  0.12509000000E+03 0.  0.
         25    1    4    4    0    0  0.53841126954E+02  0.17992771808E+02 -0.13889646312E+03  0.19535184247E+03  0.12509000000E+03 0.  0.
         25    1    3    3    0    0 -0.35054107096E+02  0.13088910905E+01 -0.16847525415E+03  0.21274849701E+03  0.12509000000E+03 0.  0.
<mgrwt>
<rscale>  2 0.39703856E+03</rscale>
<asrwt>0</asrwt>
<pdfrwt beam="1">  1       21 0.11387441E-01 0.39703856E+03</pdfrwt>
<pdfrwt beam="2">  1       21 0.74844761E-01 0.39703856E+03</pdfrwt>
<totfact> 0.96809021E+04</totfact>
</mgrwt>
</event>
<event>
 6    0  0.4732500E-002  0.4605298E+03  0.7546771E-02  0.1024628E+00
         21   -1    0    0  502  501  0.00000000000E+00  0.00000000000E+00  0.25091663415E+03  0.25091663415E+03  0.00000000000E+00 0.  1.
         21   -1    0    0  501  502 -0.00000000000E+00 -0.00000000000E+00 -0.21131288701E+03  0.21131288701E+03  0.00000000000E+00 0.  1.
      99926    2    1    2    0    0  0.00000000000E+00  0.17763568394E-14  0.39603747135E+02  0.46222952116E+03  0.46052977477E+03 0.  0.
         25    1    3    3    0    0  0.10634161417E+03  0.17214763015E+02 -0.31563269487E+02  0.16807330261E+03  0.12509000000E+03 0.  0.
         25    1    3    3    0    0 -0.79209202365E+02 -0.14917962567E+02  0.73812146948E+02  0.16610955567E+03  0.12509000000E+03 0.  0.
         25    1    3    3    0    0 -0.27132411801E+02 -0.22968004485E+01 -0.26451303258E+01  0.12804666289E+03  0.12509000000E+03 0.  0.
<mgrwt>
<rscale>  2 0.46052977E+03</rscale>
<asrwt>0</asrwt>
<pdfrwt beam="1">  1       21 0.36899505E-01 0.46052977E+03</pdfrwt>
<pdfrwt beam="2">  1       21 0.31075425E-01 0.46052977E+03</pdfrwt>
<totfact> 0.65099437E+04</totfact>
</mgrwt>
</event>
<event>
 7    0  0.4732500E-002  0.4584942E+03  0.7546771E-02  0.1025219E+00
         21   -1    0    0  502  501  0.00000000000E+00  0.00000000000E+00  0.22723596422E+03  0.22723596422E+03  0.00000000000E+00 0. -1.
         21   -1    0    0  501  502 -0.00000000000E+00 -0.00000000000E+00 -0.23127599372E+03  0.23127599372E+03  0.00000000000E+00 0. -1.
      99926    2    1    2    0    0 -0.71054273576E-14 -0.14210854715E-13 -0.40400295017E+01  0.45851195795E+03  0.45849415890E+03 0.  0.
      99925    2    3    3    0    0 -0.59908751761E+02 -0.99849777382E+02 -0.11573082093E+01  0.28758842310E+03  0.26295764899E+03 0.  0.
         25    1    4    4    0    0 -0.19778577677E+02 -0.58209341947E+02 -0.38890840368E+02  0.14470495910E+03  0.12509000000E+03 0.  0.
         25    1    3    3    0    0  0.59908751761E+02  0.99849777382E+02 -0.28827212925E+01  0.17092353484E+03  0.12509000000E+03 0.  0.
         25    1    4    4    0    0 -0.40130174084E+02 -0.41640435435E+02  0.37733532159E+02  0.14288346400E+03  0.12509000000E+03 0.  0.
<mgrwt>
<rscale>  2 0.45849416E+03</rscale>
<asrwt>0</asrwt>
<pdfrwt beam="1">  1       21 0.33417053E-01 0.45849416E+03</pdfrwt>
<pdfrwt beam="2">  1       21 0.34011176E-01 0.45849416E+03</pdfrwt>
<totfact> 0.66418144E+04</totfact>
</mgrwt>
</event>
<event>
 7    0  0.4732500E-002  0.4577158E+03  0.7546771E-02  0.1025446E+00
         21   -1    0    0  502  501  0.00000000000E+00  0.00000000000E+00  0.69009093779E+02  0.69009093779E+02  0.00000000000E+00 0. -1.
         21   -1    0    0  501  502 -0.00000000000E+00 -0.00000000000E+00 -0.75897139591E+03  0.75897139591E+03  0.00000000000E+00 0. -1.
      99926    2    1    2    0    0  0.00000000000E+00  0.71054273576E-14 -0.68996230213E+03  0.82798048969E+03  0.45771575562E+03 0.  0.
      99925    2    3    3    0    0  0.93132232289E+02 -0.50801395583E+02 -0.51678300180E+03  0.58945801140E+03  0.26294805908E+03 0.  0.
         25    1    4    4    0    0  0.54125054309E+02  0.10174144872E+02 -0.21351469804E+03  0.25351344956E+03  0.12509000000E+03 0.  0.
         25    1    3    3    0    0 -0.93132232289E+02  0.50801395583E+02 -0.17317930033E+03  0.23852247829E+03  0.12509000000E+03 0.  0.
         25    1    4    4    0    0  0.39007177981E+02 -0.60975540455E+02 -0.30326830376E+03  0.33594456184E+03  0.12509000000E+03 0.  0.
<mgrwt>
<rscale>  2 0.45771576E+03</rscale>
<asrwt>0</asrwt>
<pdfrwt beam="1">  1       21 0.10148396E-01 0.45771576E+03</pdfrwt>
<pdfrwt beam="2">  1       21 0.11161344E+00 0.45771576E+03</pdfrwt>
<totfact> 0.45464477E+04</totfact>
</mgrwt>
</event>
<event>
 7    0  0.4732500E-002  0.4497670E+03  0.7546771E-02  0.1027792E+00
         21   -1    0    0  502  501  0.00000000000E+00  0.00000000000E+00  0.44706747058E+03  0.44706747058E+03  0.00000000000E+00 0.  1.
         21   -1    0    0  501  502 -0.00000000000E+00 -0.00000000000E+00 -0.11312068754E+03  0.11312068754E+03  0.00000000000E+00 0.  1.
      99926    2    1    2    0    0  0.00000000000E+00 -0.71054273576E-14  0.33394678304E+03  0.56018815812E+03  0.44976696032E+03 0.  0.
      99925    2    3    3    0    0 -0.58513087590E+02  0.55378707625E+02  0.30109921504E+03  0.40781672542E+03  0.26298890008E+03 0.  0.
         25    1    3    3    0    0  0.58513087590E+02 -0.55378707625E+02  0.32847568005E+02  0.15237143269E+03  0.12509000000E+03 0.  0.
         25    1    4    4    0    0  0.98869474755E+01  0.24900692928E+02  0.16083830252E+03  0.20550976594E+03  0.12509000000E+03 0.  0.
         25    1    4    4    0    0 -0.68400035066E+02  0.30478014696E+02  0.14026091252E+03  0.20230695949E+03  0.12509000000E+03 0.  0.
<mgrwt>
<rscale>  2 0.44976696E+03</rscale>
<asrwt>0</asrwt>
<pdfrwt beam="1">  1       21 0.65745215E-01 0.44976696E+03</pdfrwt>
<pdfrwt beam="2">  1       21 0.16635395E-01 0.44976696E+03</pdfrwt>
<totfact> 0.63798268E+04</totfact>
</mgrwt>
</event>
<event>
 7    0  0.4732500E-002  0.4574417E+03  0.7546771E-02  0.1025526E+00
         21   -1    0    0  502  501  0.00000000000E+00  0.00000000000E+00  0.43303566763E+03  0.43303566763E+03  0.00000000000E+00 0.  1.
         21   -1    0    0  501  502 -0.00000000000E+00 -0.00000000000E+00 -0.12080579750E+03  0.12080579750E+03  0.00000000000E+00 0.  1.
      99926    2    1    2    0    0 -0.35527136788E-14  0.00000000000E+00  0.31222987013E+03  0.55384146513E+03  0.45744166480E+03 0.  0.
      99925    2    3    3    0    0  0.27088693957E+02  0.65951396929E+02  0.30596822619E+03  0.40972310966E+03  0.26300776995E+03 0.  0.
         25    1    3    3    0    0 -0.27088693957E+02 -0.65951396929E+02  0.62616439431E+01  0.14411835547E+03  0.12509000000E+03 0.  0.
         25    1    4    4    0    0 -0.12895924505E+02  0.14440248909E+01  0.15288466920E+03  0.19796368418E+03  0.12509000000E+03 0.  0.
         25    1    4    4    0    0  0.39984618462E+02  0.64507372038E+02  0.15308355698E+03  0.21175942548E+03  0.12509000000E+03 0.  0.
<mgrwt>
<rscale>  2 0.45744166E+03</rscale>
<asrwt>0</asrwt>
<pdfrwt beam="1">  1       21 0.63681715E-01 0.45744166E+03</pdfrwt>
<pdfrwt beam="2">  1       21 0.17765559E-01 0.45744166E+03</pdfrwt>
<totfact> 0.60437453E+04</totfact>
</mgrwt>
</event>
<event>
 7    0  0.4732500E-002  0.4582498E+03  0.7546771E-02  0.1025290E+00
         21   -1    0    0  502  501  0.00000000000E+00  0.00000000000E+00  0.12382716059E+03  0.12382716059E+03  0.00000000000E+00 0.  1.
         21   -1    0    0  501  502 -0.00000000000E+00 -0.00000000000E+00 -0.42396369867E+03  0.42396369867E+03  0.00000000000E+00 0.  1.
      99926    2    1    2    0    0  0.00000000000E+00  0.00000000000E+00 -0.30013653808E+03  0.54779085925E+03  0.45824980523E+03 0.  0.
      99925    2    3    3    0    0  0.53055796970E+02 -0.59898733537E+02 -0.28959908364E+03  0.39892406673E+03  0.26243095453E+03 0.  0.
         25    1    4    4    0    0  0.47936978881E+02 -0.58077212257E+02 -0.18566834106E+03  0.23620151884E+03  0.12509000000E+03 0.  0.
         25    1    4    4    0    0  0.51188180890E+01 -0.18215212796E+01 -0.10393074258E+03  0.16272254789E+03  0.12509000000E+03 0.  0.
         25    1    3    3    0    0 -0.53055796970E+02  0.59898733537E+02 -0.10537454440E+02  0.14886679253E+03  0.12509000000E+03 0.  0.
<mgrwt>
<rscale>  2 0.45824981E+03</rscale>
<asrwt>0</asrwt>
<pdfrwt beam="1">  1       21 0.18209876E-01 0.45824981E+03</pdfrwt>
<pdfrwt beam="2">  1       21 0.62347604E-01 0.45824981E+03</pdfrwt>
<totfact> 0.60443441E+04</totfact>
</mgrwt>
</event>
<event>
 7    0  0.4732500E-002  0.4551681E+03  0.7546771E-02  0.1026192E+00
         21   -1    0    0  502  501  0.00000000000E+00  0.00000000000E+00  0.93260294918E+02  0.93260294918E+02  0.00000000000E+00 0. -1.
         21   -1    0    0  501  502 -0.00000000000E+00 -0.00000000000E+00 -0.55537578017E+03  0.55537578017E+03  0.00000000000E+00 0. -1.
      99926    2    1    2    0    0  0.00000000000E+00  0.00000000000E+00 -0.46211548525E+03  0.64863607508E+03  0.45516814057E+03 0.  0.
      99925    2    3    3    0    0 -0.79398309198E+02  0.74148567213E+02 -0.33728275381E+03  0.44119253949E+03  0.26284805374E+03 0.  0.
         25    1    4    4    0    0 -0.21202039402E+02  0.21142776946E+02 -0.20940488255E+03  0.24575283605E+03  0.12509000000E+03 0.  0.
         25    1    3    3    0    0  0.79398309198E+02 -0.74148567213E+02 -0.12483273144E+03  0.20744353560E+03  0.12509000000E+03 0.  0.
         25    1    4    4    0    0 -0.58196269796E+02  0.53005790267E+02 -0.12787787126E+03  0.19543970343E+03  0.12509000000E+03 0.  0.
<mgrwt>
<rscale>  2 0.45516814E+03</rscale>
<asrwt>0</asrwt>
<pdfrwt beam="1">  1       21 0.13714749E-01 0.45516814E+03</pdfrwt>
<pdfrwt beam="2">  1       21 0.81672907E-01 0.45516814E+03</pdfrwt>
<totfact> 0.55706202E+04</totfact>
</mgrwt>
</event>
<event>
 7    0  0.4732500E-002  0.4465705E+03  0.7546771E-02  0.1028750E+00
         21   -1    0    0  502  501  0.00000000000E+00  0.00000000000E+00  0.31559684469E+02  0.31559684469E+02  0.00000000000E+00 0. -1.
         21   -1    0    0  501  502 -0.00000000000E+00 -0.00000000000E+00 -0.15797467017E+04  0.15797467017E+04  0.00000000000E+00 0. -1.
      99926    2    1    2    0    0  0.00000000000E+00  0.00000000000E+00 -0.15481870172E+04  0.16113063861E+04  0.44657052050E+03 0.  0.
      99925    2    3    3    0    0 -0.35300720103E+02 -0.17572020619E+02 -0.13333341583E+04  0.13595839679E+04  0.26293282682E+03 0.  0.
         25    1    4    4    0    0 -0.14365295237E+02 -0.33902138201E+02 -0.51143666997E+03  0.52779796530E+03  0.12509000000E+03 0.  0.
         25    1    4    4    0    0 -0.20935424866E+02  0.16330117583E+02 -0.82189748835E+03  0.83178600265E+03  0.12509000000E+03 0.  0.
         25    1    3    3    0    0  0.35300720103E+02  0.17572020619E+02 -0.21485285887E+03  0.25172241817E+03  0.12509000000E+03 0.  0.
<mgrwt>
<rscale>  2 0.44657052E+03</rscale>
<asrwt>0</asrwt>
<pdfrwt beam="1">  1       21 0.46411298E-02 0.44657052E+03</pdfrwt>
<pdfrwt beam="2">  1       21 0.23231570E+00 0.44657052E+03</pdfrwt>
<totfact> 0.22620251E+04</totfact>
</mgrwt>
</event>
<event>
 7    0  0.4732500E-002  0.4108457E+03  0.7546771E-02  0.1040088E+00
         21   -1    0    0  502  501  0.00000000000E+00  0.00000000000E+00  0.39685536594E+02  0.39685536594E+02  0.00000000000E+00 0.  1.
         21   -1    0    0  501  502 -0.00000000000E+00 -0.00000000000E+00 -0.10633228480E+04  0.10633228480E+04  0.00000000000E+00 0.  1.
      99926    2    1    2    0    0 -0.88817841970E-15 -0.71054273576E-14 -0.10236373114E+04  0.11030083845E+04  0.41084565371E+03 0.  0.
      99925    2    3    3    0    0  0.53186562054E+01  0.61062649995E+02 -0.71826484004E+03  0.76736454106E+03  0.26303426225E+03 0.  0.
         25    1    4    4    0    0 -0.42601565196E+01  0.98989431260E+01 -0.44473523258E+03  0.46211802952E+03  0.12509000000E+03 0.  0.
         25    1    3    3    0    0 -0.53186562054E+01 -0.61062649995E+02 -0.30537247132E+03  0.33564384348E+03  0.12509000000E+03 0.  0.
         25    1    4    4    0    0  0.95788127251E+01  0.51163706869E+02 -0.27352960746E+03  0.30524651154E+03  0.12509000000E+03 0.  0.
<mgrwt>
<rscale>  2 0.41084565E+03</rscale>
<asrwt>0</asrwt>
<pdfrwt beam="1">  1       21 0.58361079E-02 0.41084565E+03</pdfrwt>
<pdfrwt beam="2">  1       21 0.15637102E+00 0.41084565E+03</pdfrwt>
<totfact> 0.50732645E+04</totfact>
</mgrwt>
</event>
<event>
 7    0  0.4732500E-002  0.4499582E+03  0.7546771E-02  0.1027735E+00
         21   -1    0    0  502  501  0.00000000000E+00  0.00000000000E+00  0.17659663038E+03  0.17659663038E+03  0.00000000000E+00 0.  1.
         21   -1    0    0  501  502 -0.00000000000E+00 -0.00000000000E+00 -0.28661695822E+03  0.28661695822E+03  0.00000000000E+00 0.  1.
      99926    2    1    2    0    0  0.00000000000E+00  0.00000000000E+00 -0.11002032784E+03  0.46321358860E+03  0.44995817153E+03 0.  0.
      99925    2    3    3    0    0 -0.70378104351E+01 -0.78494711245E+02 -0.14598704654E+03  0.31105556738E+03  0.26312050048E+03 0.  0.
         25    1    3    3    0    0  0.70378104351E+01  0.78494711245E+02  0.35966718695E+02  0.15215802122E+03  0.12509000000E+03 0.  0.
         25    1    4    4    0    0  0.33672148519E+01 -0.74390793439E+02 -0.53543994262E+02  0.15511220360E+03  0.12509000000E+03 0.  0.
         25    1    4    4    0    0 -0.10405025287E+02 -0.41039178059E+01 -0.92443052273E+02  0.15594336378E+03  0.12509000000E+03 0.  0.
<mgrwt>
<rscale>  2 0.44995817E+03</rscale>
<asrwt>0</asrwt>
<pdfrwt beam="1">  1       21 0.25970093E-01 0.44995817E+03</pdfrwt>
<pdfrwt beam="2">  1       21 0.42149552E-01 0.44995817E+03</pdfrwt>
<totfact> 0.70730635E+04</totfact>
</mgrwt>
</event>
<event>
 7    0  0.4732500E-002  0.4410282E+03  0.7546771E-02  0.1030432E+00
         21   -1    0    0  502  501  0.00000000000E+00  0.00000000000E+00  0.22653051640E+03  0.22653051640E+03  0.00000000000E+00 0. -1.
         21   -1    0    0  501  502 -0.00000000000E+00 -0.00000000000E+00 -0.21465747582E+03  0.21465747582E+03  0.00000000000E+00 0. -1.
      99926    2    1    2    0    0  0.00000000000E+00 -0.14210854715E-13  0.11873040588E+02  0.44118799222E+03  0.44102820248E+03 0.  0.
      99925    2    3    3    0    0  0.34409011202E+02  0.81755223623E+02 -0.37343598048E+02  0.28013619229E+03  0.26308524336E+03 0.  0.
         25    1    3    3    0    0 -0.34409011202E+02 -0.81755223623E+02  0.49216638636E+02  0.16105179993E+03  0.12509000000E+03 0.  0.
         25    1    4    4    0    0 -0.28245787765E+00  0.25038318247E+02  0.16403719998E+02  0.12862187719E+03  0.12509000000E+03 0.  0.
         25    1    4    4    0    0  0.34691469080E+02  0.56716905377E+02 -0.53747318046E+02  0.15151431510E+03  0.12509000000E+03 0.  0.
<mgrwt>
<rscale>  2 0.44102820E+03</rscale>
<asrwt>0</asrwt>
<pdfrwt beam="1">  1       21 0.33313311E-01 0.44102820E+03</pdfrwt>
<pdfrwt beam="2">  1       21 0.31567276E-01 0.44102820E+03</pdfrwt>
<totfact> 0.77898336E+04</totfact>
</mgrwt>
</event>
<event>
 7    0  0.4732500E-002  0.4561811E+03  0.7546771E-02  0.1025895E+00
         21   -1    0    0  502  501  0.00000000000E+00  0.00000000000E+00  0.19561443206E+03  0.19561443206E+03  0.00000000000E+00 0.  1.
         21   -1    0    0  501  502 -0.00000000000E+00 -0.00000000000E+00 -0.26595837385E+03  0.26595837385E+03  0.00000000000E+00 0.  1.
      99926    2    1    2    0    0  0.00000000000E+00  0.00000000000E+00 -0.70343941790E+02  0.46157280591E+03  0.45618108795E+03 0.  0.
      99925    2    3    3    0    0  0.17974609350E+02  0.11288594696E+03 -0.36929047004E+02  0.28885805004E+03  0.26269544145E+03 0.  0.
         25    1    4    4    0    0 -0.92451947858E+01  0.48336103215E+02 -0.53200518244E+02  0.14456713230E+03  0.12509000000E+03 0.  0.
         25    1    3    3    0    0 -0.17974609350E+02 -0.11288594696E+03 -0.33414894787E+02  0.17271475587E+03  0.12509000000E+03 0.  0.
         25    1    4    4    0    0  0.27219804135E+02  0.64549843742E+02  0.16271471241E+02  0.14429091773E+03  0.12509000000E+03 0.  0.
<mgrwt>
<rscale>  2 0.45618109E+03</rscale>
<asrwt>0</asrwt>
<pdfrwt beam="1">  1       21 0.28766828E-01 0.45618109E+03</pdfrwt>
<pdfrwt beam="2">  1       21 0.39111525E-01 0.45618109E+03</pdfrwt>
<totfact> 0.67428752E+04</totfact>
</mgrwt>
</event>
<event>
 7    0  0.4732500E-002  0.4131729E+03  0.7546771E-02  0.1039311E+00
         21   -1    0    0  502  501  0.00000000000E+00  0.00000000000E+00  0.13007041940E+04  0.13007041940E+04  0.00000000000E+00 0.  1.
         21   -1    0    0  501  502 -0.00000000000E+00 -0.00000000000E+00 -0.32811421095E+02  0.32811421095E+02  0.00000000000E+00 0.  1.
      99926    2    1    2    0    0  0.17763568394E-14  0.00000000000E+00  0.12678927729E+04  0.13335156151E+04  0.41317285985E+03 0.  0.
      99925    2    3    3    0    0 -0.15423367892E+02  0.59480983772E+02  0.74896588418E+03  0.79619960784E+03  0.26307423317E+03 0.  0.
         25    1    4    4    0    0 -0.69455049814E+01 -0.11317784171E+02  0.37027440552E+03  0.39105878812E+03  0.12509000000E+03 0.  0.
         25    1    4    4    0    0 -0.84778629106E+01  0.70798767942E+02  0.37869147865E+03  0.40514081972E+03  0.12509000000E+03 0.  0.
         25    1    3    3    0    0  0.15423367892E+02 -0.59480983772E+02  0.51892688873E+03  0.53731600726E+03  0.12509000000E+03 0.  0.
<mgrwt>
<rscale>  2 0.41317286E+03</rscale>
<asrwt>0</asrwt>
<pdfrwt beam="1">  1       21 0.19127999E+00 0.41317286E+03</pdfrwt>
<pdfrwt beam="2">  1       21 0.48252099E-02 0.41317286E+03</pdfrwt>
<totfact> 0.39534857E+04</totfact>
</mgrwt>
</event>
<event>
 7    0  0.4732500E-002  0.4533648E+03  0.7546771E-02  0.1026723E+00
         21   -1    0    0  502  501  0.00000000000E+00  0.00000000000E+00  0.87256694036E+03  0.87256694036E+03  0.00000000000E+00 0.  1.
         21   -1    0    0  501  502 -0.00000000000E+00 -0.00000000000E+00 -0.58889352261E+02  0.58889352261E+02  0.00000000000E+00 0.  1.
      99926    2    1    2    0    0  0.00000000000E+00 -0.44408920985E-15  0.81367758810E+03  0.93145629262E+03  0.45336476229E+03 0.  0.
      99925    2    3    3    0    0 -0.11153034058E+03  0.37429862232E+01  0.50578572952E+03  0.58088827996E+03  0.26298091718E+03 0.  0.
         25    1    4    4    0    0 -0.50568298200E+02 -0.22417535449E+02  0.31402002882E+03  0.34251391983E+03  0.12509000000E+03 0.  0.
         25    1    4    4    0    0 -0.60962042382E+02  0.26160521672E+02  0.19176570070E+03  0.23837436013E+03  0.12509000000E+03 0.  0.
         25    1    3    3    0    0  0.11153034058E+03 -0.37429862232E+01  0.30789185858E+03  0.35056801266E+03  0.12509000000E+03 0.  0.
<mgrwt>
<rscale>  2 0.45336476E+03</rscale>
<asrwt>0</asrwt>
<pdfrwt beam="1">  1       21 0.12831866E+00 0.45336476E+03</pdfrwt>
<pdfrwt beam="2">  1       21 0.86601994E-02 0.45336476E+03</pdfrwt>
<totfact> 0.42441199E+04</totfact>
</mgrwt>
</event>
<event>
 7    0  0.4732500E-002  0.4522249E+03  0.7546771E-02  0.1027061E+00
         21   -1    0    0  502  501  0.00000000000E+00  0.00000000000E+00  0.23939134186E+02  0.23939134186E+02  0.00000000000E+00 0.  1.
         21   -1    0    0  501  502 -0.00000000000E+00 -0.00000000000E+00 -0.21357015378E+04  0.21357015378E+04  0.00000000000E+00 0.  1.
      99926    2    1    2    0    0  0.00000000000E+00  0.71054273576E-14 -0.21117624036E+04  0.21596406720E+04  0.45222492498E+03 0.  0.
      99925    2    3    3    0    0 -0.88133753830E+02  0.35983039459E+02 -0.16009844976E+04  0.16252214404E+04  0.26292780598E+03 0.  0.
         25    1    3    3    0    0  0.88133753830E+02 -0.35983039459E+02 -0.51077790602E+03  0.53441923157E+03  0.12509000000E+03 0.  0.
         25    1    4    4    0    0 -0.36651036310E+02  0.52785114896E+02 -0.92517947749E+03  0.93580667902E+03  0.12509000000E+03 0.  0.
         25    1    4    4    0    0 -0.51482717520E+02 -0.16802075437E+02 -0.67580502007E+03  0.68941476137E+03  0.12509000000E+03 0.  0.
<mgrwt>
<rscale>  2 0.45222492E+03</rscale>
<asrwt>0</asrwt>
<pdfrwt beam="1">  1       21 0.35204609E-02 0.45222492E+03</pdfrwt>
<pdfrwt beam="2">  1       21 0.31407375E+00 0.45222492E+03</pdfrwt>
<totfact> 0.11520410E+04</totfact>
</mgrwt>
</event>
<event>
 7    0  0.4732500E-002  0.4531254E+03  0.7546771E-02  0.1026794E+00
         21   -1    0    0  502  501  0.00000000000E+00  0.00000000000E+00  0.15152050915E+04  0.15152050915E+04  0.00000000000E+00 0. -1.
         21   -1    0    0  501  502 -0.00000000000E+00 -0.00000000000E+00 -0.33877036890E+02  0.33877036890E+02  0.00000000000E+00 0. -1.
      99926    2    1    2    0    0  0.22204460493E-15  0.00000000000E+00  0.14813280546E+04  0.15490821284E+04  0.45312540772E+03 0.  0.
      99925    2    3    3    0    0  0.18526742902E+01 -0.39022855004E+02  0.58245063334E+03  0.64070206356E+03  0.26405336271E+03 0.  0.
         25    1    4    4    0    0 -0.12785590899E+02 -0.24241712402E+02  0.19731370838E+03  0.23522614559E+03  0.12509000000E+03 0.  0.
         25    1    3    3    0    0 -0.18526742902E+01  0.39022855004E+02  0.89887742126E+03  0.90838006483E+03  0.12509000000E+03 0.  0.
         25    1    4    4    0    0  0.14638265189E+02 -0.14781142601E+02  0.38513692497E+03  0.40547591797E+03  0.12509000000E+03 0.  0.
<mgrwt>
<rscale>  2 0.45312541E+03</rscale>
<asrwt>0</asrwt>
<pdfrwt beam="1">  1       21 0.22282423E+00 0.45312541E+03</pdfrwt>
<pdfrwt beam="2">  1       21 0.49819182E-02 0.45312541E+03</pdfrwt>
<totfact> 0.22933533E+04</totfact>
</mgrwt>
</event>
<event>
 7    0  0.4732500E-002  0.4544712E+03  0.7546771E-02  0.1026397E+00
         21   -1    0    0  502  501  0.00000000000E+00  0.00000000000E+00  0.13572187625E+03  0.13572187625E+03  0.00000000000E+00 0.  1.
         21   -1    0    0  501  502 -0.00000000000E+00 -0.00000000000E+00 -0.38045461854E+03  0.38045461854E+03  0.00000000000E+00 0.  1.
      99926    2    1    2    0    0  0.00000000000E+00  0.00000000000E+00 -0.24473274229E+03  0.51617649480E+03  0.45447118570E+03 0.  0.
      99925    2    3    3    0    0  0.10567730550E+03 -0.20791555435E+02 -0.11610907648E+03  0.30691221886E+03  0.26289505657E+03 0.  0.
         25    1    4    4    0    0  0.41333217725E+02 -0.43344314043E+02 -0.35245243618E+02  0.14309751830E+03  0.12509000000E+03 0.  0.
         25    1    3    3    0    0 -0.10567730550E+03  0.20791555435E+02 -0.12862366581E+03  0.20926427593E+03  0.12509000000E+03 0.  0.
         25    1    4    4    0    0  0.64344087780E+02  0.22552758608E+02 -0.80863832863E+02  0.16381470056E+03  0.12509000000E+03 0.  0.
<mgrwt>
<rscale>  2 0.45447119E+03</rscale>
<asrwt>0</asrwt>
<pdfrwt beam="1">  1       21 0.19959100E-01 0.45447119E+03</pdfrwt>
<pdfrwt beam="2">  1       21 0.55949208E-01 0.45447119E+03</pdfrwt>
<totfact> 0.64418394E+04</totfact>
</mgrwt>
</event>
<event>
 7    0  0.4732500E-002  0.4580086E+03  0.7546771E-02  0.1025360E+00
         21   -1    0    0  502  501  0.00000000000E+00  0.00000000000E+00  0.54038625544E+03  0.54038625544E+03  0.00000000000E+00 0.  1.
         21   -1    0    0  501  502 -0.00000000000E+00 -0.00000000000E+00 -0.97047192288E+02  0.97047192288E+02  0.00000000000E+00 0.  1.
      99926    2    1    2    0    0  0.14210854715E-13  0.14210854715E-13  0.44333906315E+03  0.63743344773E+03  0.45800859748E+03 0.  0.
      99925    2    3    3    0    0  0.69370565880E+02  0.92844512305E+02  0.27562796649E+03  0.39825381039E+03  0.26306452193E+03 0.  0.
         25    1    3    3    0    0 -0.69370565880E+02 -0.92844512305E+02  0.16771109666E+03  0.23917963734E+03  0.12509000000E+03 0.  0.
         25    1    4    4    0    0  0.29185799586E+02  0.60641591782E+01  0.14365908915E+03  0.19280567139E+03  0.12509000000E+03 0.  0.
         25    1    4    4    0    0  0.40184766294E+02  0.86780353127E+02  0.13196887734E+03  0.20544813900E+03  0.12509000000E+03 0.  0.
<mgrwt>
<rscale>  2 0.45800860E+03</rscale>
<asrwt>0</asrwt>
<pdfrwt beam="1">  1       21 0.79468565E-01 0.45800860E+03</pdfrwt>
<pdfrwt beam="2">  1       21 0.14271646E-01 0.45800860E+03</pdfrwt>
<totfact> 0.55111003E+04</totfact>
</mgrwt>
</event>
<event>
 7    0  0.4732500E-002  0.4533386E+03  0.7546771E-02  0.1026731E+00
         21   -1    0    0  502  501  0.00000000000E+00  0.00000000000E+00  0.19726162940E+02  0.19726162940E+02  0.00000000000E+00 0.  1.
         21   -1    0    0  501  502 -0.00000000000E+00 -0.00000000000E+00 -0.26046107391E+04  0.26046107391E+04  0.00000000000E+00 0.  1.
      99926    2    1    2    0    0  0.00000000000E+00  0.00000000000E+00 -0.25848845761E+04  0.26243369020E+04  0.45333861885E+03 0.  0.
      99925    2    3    3    0    0  0.97269344026E+02  0.39628670270E+02 -0.18475806535E+04  0.18691572285E+04  0.26298805492E+03 0.  0.
         25    1    4    4    0    0  0.68353666533E+02  0.56988724542E+02 -0.10281592614E+04  0.10395570756E+04  0.12509000000E+03 0.  0.
         25    1    4    4    0    0  0.28915677493E+02 -0.17360054273E+02 -0.81942139209E+03  0.82960015297E+03  0.12509000000E+03 0.  0.
         25    1    3    3    0    0 -0.97269344026E+02 -0.39628670270E+02 -0.73730392262E+03  0.75517967345E+03  0.12509000000E+03 0.  0.
<mgrwt>
<rscale>  2 0.45333862E+03</rscale>
<asrwt>0</asrwt>
<pdfrwt beam="1">  1       21 0.29009048E-02 0.45333862E+03</pdfrwt>
<pdfrwt beam="2">  1       21 0.38303118E+00 0.45333862E+03</pdfrwt>
<totfact> 0.60188745E+03</totfact>
</mgrwt>
</event>
<event>
 7    0  0.4732500E-002  0.4537223E+03  0.7546771E-02  0.1026618E+00
         21   -1    0    0  502  501  0.00000000000E+00  0.00000000000E+00  0.23288082304E+03  0.23288082304E+03  0.00000000000E+00 0. -1.
         21   -1    0    0  501  502 -0.00000000000E+00 -0.00000000000E+00 -0.22099703594E+03  0.22099703594E+03  0.00000000000E+00 0. -1.
      99926    2    1    2    0    0  0.00000000000E+00  0.00000000000E+00  0.11883787103E+02  0.45387785898E+03  0.45372225698E+03 0.  0.
      99925    2    3    3    0    0 -0.10566238662E+03  0.36754835024E+02  0.50806885428E+01  0.28592176920E+03  0.26307791025E+03 0.  0.
         25    1    4    4    0    0 -0.10554626893E+02  0.21354705880E+02 -0.72800977651E+01  0.12754580172E+03  0.12509000000E+03 0.  0.
         25    1    4    4    0    0 -0.95107759728E+02  0.15400129145E+02  0.12360786308E+02  0.15837596748E+03  0.12509000000E+03 0.  0.
         25    1    3    3    0    0  0.10566238662E+03 -0.36754835024E+02  0.68030985604E+01  0.16795608978E+03  0.12509000000E+03 0.  0.
<mgrwt>
<rscale>  2 0.45372226E+03</rscale>
<asrwt>0</asrwt>
<pdfrwt beam="1">  1       21 0.34247180E-01 0.45372226E+03</pdfrwt>
<pdfrwt beam="2">  1       21 0.32499564E-01 0.45372226E+03</pdfrwt>
<totfact> 0.69332237E+04</totfact>
</mgrwt>
</event>
<event>
 7    0  0.4732500E-002  0.4526090E+03  0.7546771E-02  0.1026947E+00
         21   -1    0    0  502  501  0.00000000000E+00  0.00000000000E+00  0.57027942002E+02  0.57027942002E+02  0.00000000000E+00 0. -1.
         21   -1    0    0  501  502 -0.00000000000E+00 -0.00000000000E+00 -0.89804626736E+03  0.89804626736E+03  0.00000000000E+00 0. -1.
      99926    2    1    2    0    0  0.00000000000E+00  0.00000000000E+00 -0.84101832536E+03  0.95507420936E+03  0.45260901648E+03 0.  0.
      99925    2    3    3    0    0 -0.12698215291E+02 -0.39250144680E+02 -0.74759361192E+03  0.79358890443E+03  0.26303102882E+03 0.  0.
         25    1    4    4    0    0 -0.13863971108E+02 -0.19938087012E+02 -0.49387605465E+03  0.51004980390E+03  0.12509000000E+03 0.  0.
         25    1    3    3    0    0  0.12698215291E+02  0.39250144680E+02 -0.93424713443E+02  0.16148530494E+03  0.12509000000E+03 0.  0.
         25    1    4    4    0    0  0.11657558170E+01 -0.19312057668E+02 -0.25371755727E+03  0.28353910052E+03  0.12509000000E+03 0.  0.
<mgrwt>
<rscale>  2 0.45260902E+03</rscale>
<asrwt>0</asrwt>
<pdfrwt beam="1">  1       21 0.83864623E-02 0.45260902E+03</pdfrwt>
<pdfrwt beam="2">  1       21 0.13206562E+00 0.45260902E+03</pdfrwt>
<totfact> 0.41710399E+04</totfact>
</mgrwt>
</event>
<event>
 7    0  0.4732500E-002  0.4532281E+03  0.7546771E-02  0.1026764E+00
         21   -1    0    0  502  501  0.00000000000E+00  0.00000000000E+00  0.70816660039E+02  0.70816660039E+02  0.00000000000E+00 0. -1.
         21   -1    0    0  501  502 -0.00000000000E+00 -0.00000000000E+00 -0.72516718164E+03  0.72516718164E+03  0.00000000000E+00 0. -1.
      99926    2    1    2    0    0  0.00000000000E+00  0.00000000000E+00 -0.65435052160E+03  0.79598384168E+03  0.45322805638E+03 0.  0.
      99925    2    3    3    0    0  0.66813125305E+02 -0.34224612344E+02 -0.26756788411E+03  0.38260310365E+03  0.26297765022E+03 0.  0.
         25    1    4    4    0    0  0.58807160038E+01 -0.43162478698E+02 -0.10976071374E+03  0.17202472139E+03  0.12509000000E+03 0.  0.
         25    1    4    4    0    0  0.60932409302E+02  0.89378663541E+01 -0.15780717036E+03  0.21057838226E+03  0.12509000000E+03 0.  0.
         25    1    3    3    0    0 -0.66813125305E+02  0.34224612344E+02 -0.38678263749E+03  0.41338073803E+03  0.12509000000E+03 0.  0.
<mgrwt>
<rscale>  2 0.45322806E+03</rscale>
<asrwt>0</asrwt>
<pdfrwt beam="1">  1       21 0.10414215E-01 0.45322806E+03</pdfrwt>
<pdfrwt beam="2">  1       21 0.10664223E+00 0.45322806E+03</pdfrwt>
<totfact> 0.48632464E+04</totfact>
</mgrwt>
</event>
<event>
 7    0  0.4732500E-002  0.4530990E+03  0.7546771E-02  0.1026802E+00
         21   -1    0    0  502  501  0.00000000000E+00  0.00000000000E+00  0.10123739325E+03  0.10123739325E+03  0.00000000000E+00 0.  1.
         21   -1    0    0  501  502 -0.00000000000E+00 -0.00000000000E+00 -0.50697360224E+03  0.50697360224E+03  0.00000000000E+00 0.  1.
      99926    2    1    2    0    0  0.00000000000E+00  0.14210854715E-13 -0.40573620899E+03  0.60821099549E+03  0.45309904408E+03 0.  0.
      99925    2    3    3    0    0  0.56339115293E+02  0.95917277792E+02 -0.26296705933E+03  0.38820018147E+03  0.26300852934E+03 0.  0.
         25    1    4    4    0    0  0.19316724323E+02  0.66628119124E+02 -0.87791420935E+02  0.16783111686E+03  0.12509000000E+03 0.  0.
         25    1    3    3    0    0 -0.56339115293E+02 -0.95917277792E+02 -0.14276914965E+03  0.22001081402E+03  0.12509000000E+03 0.  0.
         25    1    4    4    0    0  0.37022390970E+02  0.29289158668E+02 -0.17517563840E+03  0.22036906461E+03  0.12509000000E+03 0.  0.
<mgrwt>
<rscale>  2 0.45309904E+03</rscale>
<asrwt>0</asrwt>
<pdfrwt beam="1">  1       21 0.14887852E-01 0.45309904E+03</pdfrwt>
<pdfrwt beam="2">  1       21 0.74554941E-01 0.45309904E+03</pdfrwt>
<totfact> 0.59057520E+04</totfact>
</mgrwt>
</event>
<event>
 7    0  0.4732500E-002  0.4525489E+03  0.7546771E-02  0.1026965E+00
         21   -1    0    0  502  501  0.00000000000E+00  0.00000000000E+00  0.15589773676E+03  0.15589773676E+03  0.00000000000E+00 0.  1.
         21   -1    0    0  501  502 -0.00000000000E+00 -0.00000000000E+00 -0.32842119201E+03  0.32842119201E+03  0.00000000000E+00 0.  1.
      99926    2    1    2    0    0  0.00000000000E+00  0.14210854715E-13 -0.17252345525E+03  0.48431892877E+03  0.45254887266E+03 0.  0.
      99925    2    3    3    0    0  0.61999092577E+00 -0.10177360321E+03 -0.61691724472E+02  0.28864207437E+03  0.26296411833E+03 0.  0.
         25    1    4    4    0    0 -0.30113616847E+02 -0.46898806518E+02 -0.57614968785E+02  0.14857092818E+03  0.12509000000E+03 0.  0.
         25    1    4    4    0    0  0.30733607772E+02 -0.54874796687E+02 -0.40767556868E+01  0.14007114619E+03  0.12509000000E+03 0.  0.
         25    1    3    3    0    0 -0.61999092577E+00  0.10177360321E+03 -0.11083173078E+03  0.19567685440E+03  0.12509000000E+03 0.  0.
<mgrwt>
<rscale>  2 0.45254887E+03</rscale>
<asrwt>0</asrwt>
<pdfrwt beam="1">  1       21 0.22926138E-01 0.45254887E+03</pdfrwt>
<pdfrwt beam="2">  1       21 0.48297233E-01 0.45254887E+03</pdfrwt>
<totfact> 0.67694690E+04</totfact>
</mgrwt>
</event>
<event>
 7    0  0.4732500E-002  0.4496995E+03  0.7546771E-02  0.1027812E+00
         21   -1    0    0  502  501  0.00000000000E+00  0.00000000000E+00  0.17277865760E+03  0.17277865760E+03  0.00000000000E+00 0.  1.
         21   -1    0    0  501  502 -0.00000000000E+00 -0.00000000000E+00 -0.29261370066E+03  0.29261370066E+03  0.00000000000E+00 0.  1.
      99926    2    1    2    0    0 -0.71054273576E-14  0.00000000000E+00 -0.11983504307E+03  0.46539235826E+03  0.44969946585E+03 0.  0.
      99925    2    3    3    0    0 -0.40294134411E+02  0.27836640611E+02  0.23883361065E+02  0.26866670256E+03  0.26308342080E+03 0.  0.
         25    1    4    4    0    0 -0.47479683511E+02  0.40909520868E+02 -0.26017171589E+01  0.13993636510E+03  0.12509000000E+03 0.  0.
         25    1    4    4    0    0  0.71855490996E+01 -0.13072880257E+02  0.26485078223E+02  0.12873033746E+03  0.12509000000E+03 0.  0.
         25    1    3    3    0    0  0.40294134411E+02 -0.27836640611E+02 -0.14371840413E+03  0.19672565571E+03  0.12509000000E+03 0.  0.
<mgrwt>
<rscale>  2 0.44969947E+03</rscale>
<asrwt>0</asrwt>
<pdfrwt beam="1">  1       21 0.25408627E-01 0.44969947E+03</pdfrwt>
<pdfrwt beam="2">  1       21 0.43031426E-01 0.44969947E+03</pdfrwt>
<totfact> 0.70706605E+04</totfact>
</mgrwt>
</event>
<event>
 7    0  0.4732500E-002  0.4537146E+03  0.7546771E-02  0.1026620E+00
         21   -1    0    0  502  501  0.00000000000E+00  0.00000000000E+00  0.90975883554E+02  0.90975883554E+02  0.00000000000E+00 0. -1.
         21   -1    0    0  501  502 -0.00000000000E+00 -0.00000000000E+00 -0.56569089998E+03  0.56569089998E+03  0.00000000000E+00 0. -1.
      99926    2    1    2    0    0  0.00000000000E+00  0.00000000000E+00 -0.47471501643E+03  0.65666678354E+03  0.45371457744E+03 0.  0.
      99925    2    3    3    0    0  0.63217829834E+02 -0.57097039407E+02 -0.40423153038E+03  0.48971770201E+03  0.26298998381E+03 0.  0.
         25    1    4    4    0    0  0.26656870667E+02 -0.66572352582E+02 -0.23811544410E+03  0.27836835255E+03  0.12509000000E+03 0.  0.
         25    1    3    3    0    0 -0.63217829834E+02  0.57097039407E+02 -0.70483486046E+02  0.16694908153E+03  0.12509000000E+03 0.  0.
         25    1    4    4    0    0  0.36560959167E+02  0.94753131753E+01 -0.16611608629E+03  0.21134934946E+03  0.12509000000E+03 0.  0.
<mgrwt>
<rscale>  2 0.45371458E+03</rscale>
<asrwt>0</asrwt>
<pdfrwt beam="1">  1       21 0.13378806E-01 0.45371458E+03</pdfrwt>
<pdfrwt beam="2">  1       21 0.83189839E-01 0.45371458E+03</pdfrwt>
<totfact> 0.55883347E+04</totfact>
</mgrwt>
</event>
<event>
 7    0  0.5452072E-002  0.4278953E+03  0.7546771E-02  0.1034527E+00
         21   -1    0    0  502  501  0.00000000000E+00  0.00000000000E+00  0.26683553288E+03  0.26683553288E+03  0.00000000000E+00 0. -1.
         21   -1    0    0  501  502 -0.00000000000E+00 -0.00000000000E+00 -0.17154232081E+03  0.17154232081E+03  0.00000000000E+00 0. -1.
      99926    2    1    2    0    0  0.00000000000E+00 -0.71054273576E-14  0.95293212070E+02  0.43837785368E+03  0.42789525159E+03 0.  0.
      99925    2    3    3    0    0 -0.49314421623E+02  0.52241996839E+02  0.14581548146E+02  0.27308109265E+03  0.26305802250E+03 0.  0.
         25    1    3    3    0    0  0.49314421623E+02 -0.52241996839E+02  0.80711663924E+02  0.16529676103E+03  0.12509000000E+03 0.  0.
         25    1    4    4    0    0 -0.46689531943E+02  0.50846244329E+02 -0.17411864355E+02  0.14393030979E+03  0.12509000000E+03 0.  0.
         25    1    4    4    0    0 -0.26248896806E+01  0.13957525104E+01  0.31993412501E+02  0.12915078286E+03  0.12509000000E+03 0.  0.
<mgrwt>
<rscale>  2 0.42789525E+03</rscale>
<asrwt>0</asrwt>
<pdfrwt beam="1">  1       21 0.39240519E-01 0.42789525E+03</pdfrwt>
<pdfrwt beam="2">  1       21 0.25226812E-01 0.42789525E+03</pdfrwt>
<totfact> 0.87140775E+04</totfact>
</mgrwt>
</event>
<event>
 7    0  0.4732500E-002  0.4535506E+03  0.7546771E-02  0.1026668E+00
         21   -1    0    0  502  501  0.00000000000E+00  0.00000000000E+00  0.69604870950E+02  0.69604870950E+02  0.00000000000E+00 0.  1.
         21   -1    0    0  501  502 -0.00000000000E+00 -0.00000000000E+00 -0.73884258616E+03  0.73884258616E+03  0.00000000000E+00 0.  1.
      99926    2    1    2    0    0  0.00000000000E+00  0.14210854715E-13 -0.66923771521E+03  0.80844745711E+03  0.45355062722E+03 0.  0.
      99925    2    3    3    0    0 -0.13231382364E+02 -0.75271308188E+02 -0.27618763769E+03  0.38895167542E+03  0.26298850789E+03 0.  0.
         25    1    3    3    0    0  0.13231382364E+02  0.75271308188E+02 -0.39305007752E+03  0.41949578169E+03  0.12509000000E+03 0.  0.
         25    1    4    4    0    0  0.29145785171E+02 -0.51928460634E+02 -0.12207524464E+03  0.18465079277E+03  0.12509000000E+03 0.  0.
         25    1    4    4    0    0 -0.42377167536E+02 -0.23342847553E+02 -0.15411239304E+03  0.20430088265E+03  0.12509000000E+03 0.  0.
<mgrwt>
<rscale>  2 0.45355063E+03</rscale>
<asrwt>0</asrwt>
<pdfrwt beam="1">  1       21 0.10236011E-01 0.45355063E+03</pdfrwt>
<pdfrwt beam="2">  1       21 0.10865332E+00 0.45355063E+03</pdfrwt>
<totfact> 0.47901424E+04</totfact>
</mgrwt>
</event>
<event>
 7    0  0.4732500E-002  0.4539002E+03  0.7546771E-02  0.1026565E+00
         21   -1    0    0  502  501  0.00000000000E+00  0.00000000000E+00  0.69087683732E+03  0.69087683732E+03  0.00000000000E+00 0. -1.
         21   -1    0    0  501  502 -0.00000000000E+00 -0.00000000000E+00 -0.74552139158E+02  0.74552139158E+02  0.00000000000E+00 0. -1.
      99926    2    1    2    0    0 -0.71054273576E-14 -0.14210854715E-13  0.61632469816E+03  0.76542897647E+03  0.45390019219E+03 0.  0.
      99925    2    3    3    0    0  0.51616641560E+02  0.53221346571E+02  0.24638796439E+03  0.36794000240E+03  0.26301335889E+03 0.  0.
         25    1    4    4    0    0  0.10472232468E+02  0.43421510920E+02  0.16877307302E+03  0.21477186394E+03  0.12509000000E+03 0.  0.
         25    1    4    4    0    0  0.41144409092E+02  0.97998356507E+01  0.77614891370E+02  0.15316813846E+03  0.12509000000E+03 0.  0.
         25    1    3    3    0    0 -0.51616641560E+02 -0.53221346571E+02  0.36993673377E+03  0.39748897407E+03  0.12509000000E+03 0.  0.
<mgrwt>
<rscale>  2 0.45390019E+03</rscale>
<asrwt>0</asrwt>
<pdfrwt beam="1">  1       21 0.10159953E+00 0.45390019E+03</pdfrwt>
<pdfrwt beam="2">  1       21 0.10963550E-01 0.45390019E+03</pdfrwt>
<totfact> 0.49911797E+04</totfact>
</mgrwt>
</event>
<event>
 7    0  0.4732500E-002  0.4467023E+03  0.7546771E-02  0.1028710E+00
         21   -1    0    0  502  501  0.00000000000E+00  0.00000000000E+00  0.91421997738E+03  0.91421997738E+03  0.00000000000E+00 0.  1.
         21   -1    0    0  501  502 -0.00000000000E+00 -0.00000000000E+00 -0.54566452627E+02  0.54566452627E+02  0.00000000000E+00 0.  1.
      99926    2    1    2    0    0  0.00000000000E+00  0.00000000000E+00  0.85965352475E+03  0.96878643001E+03  0.44670232185E+03 0.  0.
      99925    2    3    3    0    0 -0.27182477924E+02  0.77985108310E+02  0.40343149165E+03  0.48857125343E+03  0.26291507565E+03 0.  0.
         25    1    4    4    0    0 -0.31227311676E+02  0.34840696105E+01  0.16928181951E+03  0.21281711926E+03  0.12509000000E+03 0.  0.
         25    1    3    3    0    0  0.27182477924E+02 -0.77985108310E+02  0.45622203310E+03  0.48021517657E+03  0.12509000000E+03 0.  0.
         25    1    4    4    0    0  0.40448337519E+01  0.74501038699E+02  0.23414967214E+03  0.27575413417E+03  0.12509000000E+03 0.  0.
<mgrwt>
<rscale>  2 0.44670232E+03</rscale>
<asrwt>0</asrwt>
<pdfrwt beam="1">  1       21 0.13444411E+00 0.44670232E+03</pdfrwt>
<pdfrwt beam="2">  1       21 0.80244789E-02 0.44670232E+03</pdfrwt>
<totfact> 0.43119295E+04</totfact>
</mgrwt>
</event>
<event>
 7    0  0.4732500E-002  0.4540812E+03  0.7546771E-02  0.1026512E+00
         21   -1    0    0  502  501  0.00000000000E+00  0.00000000000E+00  0.86494779588E+02  0.86494779588E+02  0.00000000000E+00 0.  1.
         21   -1    0    0  501  502 -0.00000000000E+00 -0.00000000000E+00 -0.59596000565E+03  0.59596000565E+03  0.00000000000E+00 0.  1.
      99926    2    1    2    0    0  0.00000000000E+00  0.00000000000E+00 -0.50946522607E+03  0.68245478524E+03  0.45408117923E+03 0.  0.
      99925    2    3    3    0    0 -0.46476265246E+02  0.87941344071E+02 -0.39944918623E+03  0.48843220834E+03  0.26289284230E+03 0.  0.
         25    1    4    4    0    0 -0.53264771316E+02  0.46037885459E+02 -0.25548663712E+03  0.29304872054E+03  0.12509000000E+03 0.  0.
         25    1    3    3    0    0  0.46476265246E+02 -0.87941344071E+02 -0.11001603983E+03  0.19402257691E+03  0.12509000000E+03 0.  0.
         25    1    4    4    0    0  0.67885060699E+01  0.41903458612E+02 -0.14396254911E+03  0.19538348780E+03  0.12509000000E+03 0.  0.
<mgrwt>
<rscale>  2 0.45408118E+03</rscale>
<asrwt>0</asrwt>
<pdfrwt beam="1">  1       21 0.12719821E-01 0.45408118E+03</pdfrwt>
<pdfrwt beam="2">  1       21 0.87641177E-01 0.45408118E+03</pdfrwt>
<totfact> 0.54257720E+04</totfact>
</mgrwt>
</event>
<event>
 7    0  0.4732500E-002  0.4556814E+03  0.7546771E-02  0.1026041E+00
         21   -1    0    0  502  501  0.00000000000E+00  0.00000000000E+00  0.53190180545E+02  0.53190180545E+02  0.00000000000E+00 0.  1.
         21   -1    0    0  501  502 -0.00000000000E+00 -0.00000000000E+00 -0.97595803776E+03  0.97595803776E+03  0.00000000000E+00 0.  1.
      99926    2    1    2    0    0 -0.71054273576E-14  0.00000000000E+00 -0.92276785722E+03  0.10291482183E+04  0.45568139849E+03 0.  0.
      99925    2    3    3    0    0  0.57118224125E+02 -0.27592490840E+02 -0.79374765634E+03  0.83857655878E+03  0.26296666314E+03 0.  0.
         25    1    4    4    0    0 -0.69435360745E+01  0.79054070317E+01 -0.37396466261E+03  0.39447152639E+03  0.12509000000E+03 0.  0.
         25    1    3    3    0    0 -0.57118224125E+02  0.27592490840E+02 -0.12902020088E+03  0.19057165952E+03  0.12509000000E+03 0.  0.
         25    1    4    4    0    0  0.64061760199E+02 -0.35497897871E+02 -0.41978299373E+03  0.44410503239E+03  0.12509000000E+03 0.  0.
<mgrwt>
<rscale>  2 0.45568140E+03</rscale>
<asrwt>0</asrwt>
<pdfrwt beam="1">  1       21 0.78220855E-02 0.45568140E+03</pdfrwt>
<pdfrwt beam="2">  1       21 0.14352324E+00 0.45568140E+03</pdfrwt>
<totfact> 0.37850184E+04</totfact>
</mgrwt>
</event>
<event>
 7    0  0.4732500E-002  0.4700025E+03  0.7546771E-02  0.1021919E+00
         21   -1    0    0  502  501  0.00000000000E+00  0.00000000000E+00  0.48034522457E+02  0.48034522457E+02  0.00000000000E+00 0. -1.
         21   -1    0    0  501  502 -0.00000000000E+00 -0.00000000000E+00 -0.11497063928E+04  0.11497063928E+04  0.00000000000E+00 0. -1.
      99926    2    1    2    0    0  0.00000000000E+00  0.00000000000E+00 -0.11016718704E+04  0.11977409153E+04  0.47000254274E+03 0.  0.
      99925    2    3    3    0    0  0.11093278559E+03 -0.51025678153E+02 -0.76593167393E+03  0.81921919813E+03  0.26374052155E+03 0.  0.
         25    1    4    4    0    0  0.17043548076E+02 -0.45125825893E+02 -0.34582082466E+03  0.37089941165E+03  0.12509000000E+03 0.  0.
         25    1    3    3    0    0 -0.11093278559E+03  0.51025678153E+02 -0.33574019645E+03  0.37852171716E+03  0.12509000000E+03 0.  0.
         25    1    4    4    0    0  0.93889237514E+02 -0.58998522605E+01 -0.42011084927E+03  0.44831978648E+03  0.12509000000E+03 0.  0.
<mgrwt>
<rscale>  2 0.47000254E+03</rscale>
<asrwt>0</asrwt>
<pdfrwt beam="1">  1       21 0.70639003E-02 0.47000254E+03</pdfrwt>
<pdfrwt beam="2">  1       21 0.16907447E+00 0.47000254E+03</pdfrwt>
<totfact> 0.28721171E+04</totfact>
</mgrwt>
</event>
<event>
 7    0  0.4732500E-002  0.4566060E+03  0.7546771E-02  0.1025770E+00
         21   -1    0    0  502  501  0.00000000000E+00  0.00000000000E+00  0.77649785856E+02  0.77649785856E+02  0.00000000000E+00 0.  1.
         21   -1    0    0  501  502 -0.00000000000E+00 -0.00000000000E+00 -0.67124801937E+03  0.67124801937E+03  0.00000000000E+00 0.  1.
      99926    2    1    2    0    0  0.00000000000E+00  0.00000000000E+00 -0.59359823351E+03  0.74889780523E+03  0.45660602256E+03 0.  0.
      99925    2    3    3    0    0 -0.19656415815E+02  0.35816856129E+02 -0.54789646779E+03  0.60959460585E+03  0.26409434337E+03 0.  0.
         25    1    4    4    0    0  0.11554341183E+01 -0.20205920094E+02 -0.29792970110E+03  0.32375797925E+03  0.12509000000E+03 0.  0.
         25    1    4    4    0    0 -0.20811849934E+02  0.56022776223E+02 -0.24996676669E+03  0.28583662660E+03  0.12509000000E+03 0.  0.
         25    1    3    3    0    0  0.19656415815E+02 -0.35816856129E+02 -0.45701765724E+02  0.13930319937E+03  0.12509000000E+03 0.  0.
<mgrwt>
<rscale>  2 0.45660602E+03</rscale>
<asrwt>0</asrwt>
<pdfrwt beam="1">  1       21 0.11419086E-01 0.45660602E+03</pdfrwt>
<pdfrwt beam="2">  1       21 0.98712943E-01 0.45660602E+03</pdfrwt>
<totfact> 0.49696927E+04</totfact>
</mgrwt>
</event>
<event>
 7    0  0.4732500E-002  0.4404754E+03  0.7546771E-02  0.1030601E+00
         21   -1    0    0  502  501  0.00000000000E+00  0.00000000000E+00  0.39574279223E+02  0.39574279223E+02  0.00000000000E+00 0.  1.
         21   -1    0    0  501  502 -0.00000000000E+00 -0.00000000000E+00 -0.12256607759E+04  0.12256607759E+04  0.00000000000E+00 0.  1.
      99926    2    1    2    0    0  0.00000000000E+00  0.00000000000E+00 -0.11860864967E+04  0.12652350551E+04  0.44047538764E+03 0.  0.
      99925    2    3    3    0    0 -0.98810386085E+02 -0.34860591394E+01 -0.76750077937E+03  0.81730966419E+03  0.26298668378E+03 0.  0.
         25    1    4    4    0    0 -0.58183698553E+02 -0.83110122758E+01 -0.50629832900E+03  0.52482370540E+03  0.12509000000E+03 0.  0.
         25    1    4    4    0    0 -0.40626687532E+02  0.48249531365E+01 -0.26120245037E+03  0.29248595880E+03  0.12509000000E+03 0.  0.
         25    1    3    3    0    0  0.98810386085E+02  0.34860591394E+01 -0.41858571733E+03  0.44792539095E+03  0.12509000000E+03 0.  0.
<mgrwt>
<rscale>  2 0.44047539E+03</rscale>
<asrwt>0</asrwt>
<pdfrwt beam="1">  1       21 0.58197467E-02 0.44047539E+03</pdfrwt>
<pdfrwt beam="2">  1       21 0.18024424E+00 0.44047539E+03</pdfrwt>
<totfact> 0.33802631E+04</totfact>
</mgrwt>
</event>
<event>
 7    0  0.4732500E-002  0.4543494E+03  0.7546771E-02  0.1026433E+00
         21   -1    0    0  502  501  0.00000000000E+00  0.00000000000E+00  0.12947761268E+03  0.12947761268E+03  0.00000000000E+00 0.  1.
         21   -1    0    0  501  502 -0.00000000000E+00 -0.00000000000E+00 -0.39858898538E+03  0.39858898538E+03  0.00000000000E+00 0.  1.
      99926    2    1    2    0    0  0.00000000000E+00  0.00000000000E+00 -0.26911137271E+03  0.52806659806E+03  0.45434942618E+03 0.  0.
      99925    2    3    3    0    0 -0.15426289427E+02  0.10870031295E+03 -0.14049484143E+03  0.31772533093E+03  0.26297691345E+03 0.  0.
         25    1    3    3    0    0  0.15426289427E+02 -0.10870031295E+03 -0.12861653127E+03  0.21034126713E+03  0.12509000000E+03 0.  0.
         25    1    4    4    0    0 -0.29530773402E+02  0.50600985271E+02 -0.10796155918E+03  0.17531609353E+03  0.12509000000E+03 0.  0.
         25    1    4    4    0    0  0.14104483975E+02  0.58099327675E+02 -0.32533282248E+02  0.14240923741E+03  0.12509000000E+03 0.  0.
<mgrwt>
<rscale>  2 0.45434943E+03</rscale>
<asrwt>0</asrwt>
<pdfrwt beam="1">  1       21 0.19040825E-01 0.45434943E+03</pdfrwt>
<pdfrwt beam="2">  1       21 0.58616027E-01 0.45434943E+03</pdfrwt>
<totfact> 0.63665278E+04</totfact>
</mgrwt>
</event>
<event>
 7    0  0.4732500E-002  0.4312011E+03  0.7546771E-02  0.1033481E+00
         21   -1    0    0  502  501  0.00000000000E+00  0.00000000000E+00  0.24299595285E+03  0.24299595285E+03  0.00000000000E+00 0. -1.
         21   -1    0    0  501  502 -0.00000000000E+00 -0.00000000000E+00 -0.19129370561E+03  0.19129370561E+03  0.00000000000E+00 0. -1.
      99926    2    1    2    0    0  0.35527136788E-14 -0.14210854715E-13  0.51702247249E+02  0.43428965846E+03  0.43120109586E+03 0.  0.
      99925    2    3    3    0    0 -0.20152342946E+02 -0.85200327558E+02  0.54749939986E+02  0.28157420648E+03  0.26195660916E+03 0.  0.
         25    1    3    3    0    0  0.20152342946E+02  0.85200327558E+02 -0.30476927371E+01  0.15271545198E+03  0.12509000000E+03 0.  0.
         25    1    4    4    0    0  0.61227459078E+01 -0.75172266075E+02  0.45667151746E+02  0.15304036870E+03  0.12509000000E+03 0.  0.
         25    1    4    4    0    0 -0.26275088854E+02 -0.10028061483E+02  0.90827882401E+01  0.12853383778E+03  0.12509000000E+03 0.  0.
<mgrwt>
<rscale>  2 0.43120110E+03</rscale>
<asrwt>0</asrwt>
<pdfrwt beam="1">  1       21 0.35734699E-01 0.43120110E+03</pdfrwt>
<pdfrwt beam="2">  1       21 0.28131427E-01 0.43120110E+03</pdfrwt>
<totfact> 0.85144697E+04</totfact>
</mgrwt>
</event>
<event>
 7    0  0.4732500E-002  0.4555259E+03  0.7546771E-02  0.1026087E+00
         21   -1    0    0  502  501  0.00000000000E+00  0.00000000000E+00  0.26662260346E+03  0.26662260346E+03  0.00000000000E+00 0. -1.
         21   -1    0    0  501  502 -0.00000000000E+00 -0.00000000000E+00 -0.19456696252E+03  0.19456696252E+03  0.00000000000E+00 0. -1.
      99926    2    1    2    0    0  0.00000000000E+00  0.00000000000E+00  0.72055640946E+02  0.46118956598E+03  0.45552585040E+03 0.  0.
      99925    2    3    3    0    0  0.41448388438E+02 -0.82701269131E+02  0.11126934756E+03  0.30074427404E+03  0.26364518171E+03 0.  0.
         25    1    3    3    0    0 -0.41448388438E+02  0.82701269131E+02 -0.39213706617E+02  0.16044529194E+03  0.12509000000E+03 0.  0.
         25    1    4    4    0    0  0.15192847043E+02 -0.55396262430E+02  0.15095992235E+02  0.13847369994E+03  0.12509000000E+03 0.  0.
         25    1    4    4    0    0  0.26255541395E+02 -0.27305006701E+02  0.96173355327E+02  0.16227057410E+03  0.12509000000E+03 0.  0.
<mgrwt>
<rscale>  2 0.45552585E+03</rscale>
<asrwt>0</asrwt>
<pdfrwt beam="1">  1       21 0.39209207E-01 0.45552585E+03</pdfrwt>
<pdfrwt beam="2">  1       21 0.28612788E-01 0.45552585E+03</pdfrwt>
<totfact> 0.67809135E+04</totfact>
</mgrwt>
</event>
<event>
 7    0  0.4732500E-002  0.4550330E+03  0.7546771E-02  0.1026232E+00
         21   -1    0    0  502  501  0.00000000000E+00  0.00000000000E+00  0.51755820819E+02  0.51755820819E+02  0.00000000000E+00 0. -1.
         21   -1    0    0  501  502 -0.00000000000E+00 -0.00000000000E+00 -0.10001533413E+04  0.10001533413E+04  0.00000000000E+00 0. -1.
      99926    2    1    2    0    0 -0.71054273576E-14  0.00000000000E+00 -0.94839752051E+03  0.10519091621E+04  0.45503299716E+03 0.  0.
      99925    2    3    3    0    0  0.59716921233E+02 -0.77803880259E+02 -0.72741568272E+03  0.77969594572E+03  0.26300691596E+03 0.  0.
         25    1    4    4    0    0  0.41889186069E+02 -0.25710004024E+02 -0.46209208648E+03  0.48124038973E+03  0.12509000000E+03 0.  0.
         25    1    3    3    0    0 -0.59716921233E+02  0.77803880259E+02 -0.22098183780E+03  0.27221321643E+03  0.12509000000E+03 0.  0.
         25    1    4    4    0    0  0.17827735164E+02 -0.52093876235E+02 -0.26532359623E+03  0.29845555599E+03  0.12509000000E+03 0.  0.
<mgrwt>
<rscale>  2 0.45503300E+03</rscale>
<asrwt>0</asrwt>
<pdfrwt beam="1">  1       21 0.76111499E-02 0.45503300E+03</pdfrwt>
<pdfrwt beam="2">  1       21 0.14708138E+00 0.45503300E+03</pdfrwt>
<totfact> 0.37197828E+04</totfact>
</mgrwt>
</event>
<event>
 7    0  0.4732500E-002  0.4669050E+03  0.7546771E-02  0.1022797E+00
         21   -1    0    0  502  501  0.00000000000E+00  0.00000000000E+00  0.37215366192E+02  0.37215366192E+02  0.00000000000E+00 0.  1.
         21   -1    0    0  501  502 -0.00000000000E+00 -0.00000000000E+00 -0.14644510109E+04  0.14644510109E+04  0.00000000000E+00 0.  1.
      99926    2    1    2    0    0  0.00000000000E+00  0.26645352591E-14 -0.14272356447E+04  0.15016663770E+04  0.46690504662E+03 0.  0.
      99925    2    3    3    0    0  0.43557692885E+02 -0.46428564348E+01 -0.51551638610E+03  0.58036385167E+03  0.26295670227E+03 0.  0.
         25    1    3    3    0    0 -0.43557692885E+02  0.46428564348E+01 -0.91171925856E+03  0.92130252537E+03  0.12509000000E+03 0.  0.
         25    1    4    4    0    0  0.13972075072E+02 -0.39776301759E+02 -0.28540415359E+03  0.31445255930E+03  0.12509000000E+03 0.  0.
         25    1    4    4    0    0  0.29585617813E+02  0.35133445324E+02 -0.23011223251E+03  0.26591129238E+03  0.12509000000E+03 0.  0.
<mgrwt>
<rscale>  2 0.46690505E+03</rscale>
<asrwt>0</asrwt>
<pdfrwt beam="1">  1       21 0.54728488E-02 0.46690505E+03</pdfrwt>
<pdfrwt beam="2">  1       21 0.21536041E+00 0.46690505E+03</pdfrwt>
<totfact> 0.21664704E+04</totfact>
</mgrwt>
</event>
<event>
 7    0  0.4732500E-002  0.4555115E+03  0.7546771E-02  0.1026091E+00
         21   -1    0    0  502  501  0.00000000000E+00  0.00000000000E+00  0.18350944669E+03  0.18350944669E+03  0.00000000000E+00 0. -1.
         21   -1    0    0  501  502 -0.00000000000E+00 -0.00000000000E+00 -0.28267032398E+03  0.28267032398E+03  0.00000000000E+00 0. -1.
      99926    2    1    2    0    0  0.00000000000E+00  0.00000000000E+00 -0.99160877292E+02  0.46617977067E+03  0.45551146966E+03 0.  0.
      99925    2    3    3    0    0  0.73883270293E+02  0.51661738572E+02  0.84919802112E+01  0.27812573936E+03  0.26297174811E+03 0.  0.
         25    1    3    3    0    0 -0.73883270293E+02 -0.51661738572E+02 -0.10765285750E+03  0.18805403130E+03  0.12509000000E+03 0.  0.
         25    1    4    4    0    0  0.19596182261E+02  0.26521033611E+02  0.41001364241E+02  0.13570554724E+03  0.12509000000E+03 0.  0.
         25    1    4    4    0    0  0.54287088032E+02  0.25140704961E+02 -0.32509384029E+02  0.14242019212E+03  0.12509000000E+03 0.  0.
<mgrwt>
<rscale>  2 0.45551147E+03</rscale>
<asrwt>0</asrwt>
<pdfrwt beam="1">  1       21 0.26986684E-01 0.45551147E+03</pdfrwt>
<pdfrwt beam="2">  1       21 0.41569165E-01 0.45551147E+03</pdfrwt>
<totfact> 0.67447369E+04</totfact>
</mgrwt>
</event>
<event>
 7    0  0.4732500E-002  0.4485224E+03  0.7546771E-02  0.1028164E+00
         21   -1    0    0  502  501  0.00000000000E+00  0.00000000000E+00  0.17125244961E+03  0.17125244961E+03  0.00000000000E+00 0. -1.
         21   -1    0    0  501  502 -0.00000000000E+00 -0.00000000000E+00 -0.29367800511E+03  0.29367800511E+03  0.00000000000E+00 0. -1.
      99926    2    1    2    0    0  0.14210854715E-13  0.44408920985E-14 -0.12242555550E+03  0.46493045472E+03  0.44852236409E+03 0.  0.
      99925    2    3    3    0    0 -0.10514664665E+03  0.60375496159E+01 -0.97357162351E+02  0.29949707919E+03  0.26292168810E+03 0.  0.
         25    1    4    4    0    0 -0.80777410044E+02 -0.27137186850E+02 -0.57466708372E+02  0.16189918948E+03  0.12509000000E+03 0.  0.
         25    1    3    3    0    0  0.10514664665E+03 -0.60375496159E+01 -0.25068393150E+02  0.16543337554E+03  0.12509000000E+03 0.  0.
         25    1    4    4    0    0 -0.24369236606E+02  0.33174736466E+02 -0.39890453979E+02  0.13759788970E+03  0.12509000000E+03 0.  0.
<mgrwt>
<rscale>  2 0.44852236E+03</rscale>
<asrwt>0</asrwt>
<pdfrwt beam="1">  1       21 0.25184184E-01 0.44852236E+03</pdfrwt>
<pdfrwt beam="2">  1       21 0.43187942E-01 0.44852236E+03</pdfrwt>
<totfact> 0.71414446E+04</totfact>
</mgrwt>
</event>
<event>
 7    0  0.4732500E-002  0.4579414E+03  0.7546771E-02  0.1025380E+00
         21   -1    0    0  502  501  0.00000000000E+00  0.00000000000E+00  0.38673862647E+03  0.38673862647E+03  0.00000000000E+00 0. -1.
         21   -1    0    0  501  502 -0.00000000000E+00 -0.00000000000E+00 -0.13556333311E+03  0.13556333311E+03  0.00000000000E+00 0. -1.
      99926    2    1    2    0    0  0.00000000000E+00  0.00000000000E+00  0.25117529335E+03  0.52230195958E+03  0.45794138161E+03 0.  0.
      99925    2    3    3    0    0 -0.81173704404E+02 -0.13842994037E+02  0.25076534256E+03  0.37254056625E+03  0.26291142559E+03 0.  0.
         25    1    4    4    0    0 -0.93521616832E+01  0.44493370504E+00  0.81024650389E+02  0.14933239088E+03  0.12509000000E+03 0.  0.
         25    1    4    4    0    0 -0.71821542720E+02 -0.14287927742E+02  0.16974069217E+03  0.22320817538E+03  0.12509000000E+03 0.  0.
         25    1    3    3    0    0  0.81173704404E+02  0.13842994037E+02  0.40995079495E+00  0.14976139332E+03  0.12509000000E+03 0.  0.
<mgrwt>
<rscale>  2 0.45794138E+03</rscale>
<asrwt>0</asrwt>
<pdfrwt beam="1">  1       21 0.56873327E-01 0.45794138E+03</pdfrwt>
<pdfrwt beam="2">  1       21 0.19935784E-01 0.45794138E+03</pdfrwt>
<totfact> 0.62264946E+04</totfact>
</mgrwt>
</event>
<event>
 7    0  0.4732500E-002  0.4569983E+03  0.7546771E-02  0.1025655E+00
         21   -1    0    0  502  501  0.00000000000E+00  0.00000000000E+00  0.92889657251E+03  0.92889657251E+03  0.00000000000E+00 0. -1.
         21   -1    0    0  501  502 -0.00000000000E+00 -0.00000000000E+00 -0.56208478688E+02  0.56208478688E+02  0.00000000000E+00 0. -1.
      99926    2    1    2    0    0  0.00000000000E+00 -0.71054273576E-14  0.87268809382E+03  0.98510505120E+03  0.45699830721E+03 0.  0.
      99925    2    3    3    0    0  0.22892463820E+01  0.63331860842E+02  0.75510765103E+03  0.80210550509E+03  0.26300097226E+03 0.  0.
         25    1    3    3    0    0 -0.22892463820E+01 -0.63331860842E+02  0.11758044279E+03  0.18299954610E+03  0.12509000000E+03 0.  0.
         25    1    4    4    0    0 -0.91650953988E+00  0.16219971888E+02  0.25587120082E+03  0.28527444152E+03  0.12509000000E+03 0.  0.
         25    1    4    4    0    0  0.32057559219E+01  0.47111888954E+02  0.49923645021E+03  0.51683106357E+03  0.12509000000E+03 0.  0.
<mgrwt>
<rscale>  2 0.45699831E+03</rscale>
<asrwt>0</asrwt>
<pdfrwt beam="1">  1       21 0.13660243E+00 0.45699831E+03</pdfrwt>
<pdfrwt beam="2">  1       21 0.82659533E-02 0.45699831E+03</pdfrwt>
<totfact> 0.39135879E+04</totfact>
</mgrwt>
</event>
<event>
 7    0  0.4732500E-002  0.4556902E+03  0.7546771E-02  0.1026039E+00
         21   -1    0    0  502  501  0.00000000000E+00  0.00000000000E+00  0.78333264252E+02  0.78333264252E+02  0.00000000000E+00 0. -1.
         21   -1    0    0  501  502 -0.00000000000E+00 -0.00000000000E+00 -0.66272465470E+03  0.66272465470E+03  0.00000000000E+00 0. -1.
      99926    2    1    2    0    0  0.00000000000E+00  0.00000000000E+00 -0.58439139045E+03  0.74105791895E+03  0.45569018205E+03 0.  0.
      99925    2    3    3    0    0  0.37537586639E+02  0.10644853113E+03 -0.39209466301E+03  0.48539036201E+03  0.26291675219E+03 0.  0.
         25    1    3    3    0    0 -0.37537586639E+02 -0.10644853113E+03 -0.19229672744E+03  0.25566755694E+03  0.12509000000E+03 0.  0.
         25    1    4    4    0    0  0.20507512442E+01  0.86976997254E+02 -0.24071383947E+03  0.28488570383E+03  0.12509000000E+03 0.  0.
         25    1    4    4    0    0  0.35486835395E+02  0.19471533874E+02 -0.15138082354E+03  0.20050465819E+03  0.12509000000E+03 0.  0.
<mgrwt>
<rscale>  2 0.45569018E+03</rscale>
<asrwt>0</asrwt>
<pdfrwt beam="1">  1       21 0.11519598E-01 0.45569018E+03</pdfrwt>
<pdfrwt beam="2">  1       21 0.97459503E-01 0.45569018E+03</pdfrwt>
<totfact> 0.50455507E+04</totfact>
</mgrwt>
</event>
<event>
 7    0  0.4732500E-002  0.4564229E+03  0.7546771E-02  0.1025824E+00
         21   -1    0    0  502  501  0.00000000000E+00  0.00000000000E+00  0.47549599924E+03  0.47549599924E+03  0.00000000000E+00 0.  1.
         21   -1    0    0  501  502 -0.00000000000E+00 -0.00000000000E+00 -0.10952870776E+03  0.10952870776E+03  0.00000000000E+00 0.  1.
      99926    2    1    2    0    0  0.00000000000E+00 -0.35527136788E-14  0.36596729148E+03  0.58502470701E+03  0.45642288437E+03 0.  0.
      99925    2    3    3    0    0 -0.58669802213E+02 -0.27639968632E+02  0.10874563025E+03  0.29173883168E+03  0.26283040208E+03 0.  0.
         25    1    4    4    0    0 -0.27442608618E+02 -0.49781556602E+02  0.35921141600E+02  0.14201808568E+03  0.12509000000E+03 0.  0.
         25    1    3    3    0    0  0.58669802213E+02  0.27639968632E+02  0.25722166123E+03  0.29328587532E+03  0.12509000000E+03 0.  0.
         25    1    4    4    0    0 -0.31227193595E+02  0.22141587970E+02  0.72824488647E+02  0.14972074601E+03  0.12509000000E+03 0.  0.
<mgrwt>
<rscale>  2 0.45642288E+03</rscale>
<asrwt>0</asrwt>
<pdfrwt beam="1">  1       21 0.69925881E-01 0.45642288E+03</pdfrwt>
<pdfrwt beam="2">  1       21 0.16107163E-01 0.45642288E+03</pdfrwt>
<totfact> 0.58943865E+04</totfact>
</mgrwt>
</event>
<event>
 7    0  0.4732500E-002  0.4308549E+03  0.7546771E-02  0.1033590E+00
         21   -1    0    0  502  501  0.00000000000E+00  0.00000000000E+00  0.15524467178E+03  0.15524467178E+03  0.00000000000E+00 0. -1.
         21   -1    0    0  501  502 -0.00000000000E+00 -0.00000000000E+00 -0.29894087990E+03  0.29894087990E+03  0.00000000000E+00 0. -1.
      99926    2    1    2    0    0  0.00000000000E+00  0.00000000000E+00 -0.14369620812E+03  0.45418555168E+03  0.43085486550E+03 0.  0.
      99925    2    3    3    0    0  0.63819642695E+02  0.16018104804E+02 -0.30796992321E+02  0.27328981512E+03  0.26345652741E+03 0.  0.
         25    1    3    3    0    0 -0.63819642695E+02 -0.16018104804E+02 -0.11289921580E+03  0.18089573656E+03  0.12509000000E+03 0.  0.
         25    1    4    4    0    0  0.60705469203E+02 -0.10621014453E+02 -0.39872119216E+02  0.14503535407E+03  0.12509000000E+03 0.  0.
         25    1    4    4    0    0  0.31141734923E+01  0.26639119257E+02  0.90751268949E+01  0.12825446105E+03  0.12509000000E+03 0.  0.
<mgrwt>
<rscale>  2 0.43085487E+03</rscale>
<asrwt>0</asrwt>
<pdfrwt beam="1">  1       21 0.22830099E-01 0.43085487E+03</pdfrwt>
<pdfrwt beam="2">  1       21 0.43961894E-01 0.43085487E+03</pdfrwt>
<totfact> 0.83519107E+04</totfact>
</mgrwt>
</event>
<event>
 7    0  0.4732500E-002  0.4578220E+03  0.7546771E-02  0.1025415E+00
         21   -1    0    0  502  501  0.00000000000E+00  0.00000000000E+00  0.11588242230E+03  0.11588242230E+03  0.00000000000E+00 0. -1.
         21   -1    0    0  501  502 -0.00000000000E+00 -0.00000000000E+00 -0.45218464878E+03  0.45218464878E+03  0.00000000000E+00 0. -1.
      99926    2    1    2    0    0  0.00000000000E+00 -0.71054273576E-14 -0.33630222647E+03  0.56806707108E+03  0.45782202842E+03 0.  0.
      99925    2    3    3    0    0  0.23605353696E+02  0.47634103340E+02 -0.33857246383E+03  0.43213001725E+03  0.26320869671E+03 0.  0.
         25    1    4    4    0    0  0.25831079986E+02 -0.13727154516E+02 -0.14673498101E+03  0.19502395293E+03  0.12509000000E+03 0.  0.
         25    1    4    4    0    0 -0.22257262898E+01  0.61361257856E+02 -0.19183748282E+03  0.23710606432E+03  0.12509000000E+03 0.  0.
         25    1    3    3    0    0 -0.23605353696E+02 -0.47634103340E+02  0.22702373590E+01  0.13593705382E+03  0.12509000000E+03 0.  0.
<mgrwt>
<rscale>  2 0.45782203E+03</rscale>
<asrwt>0</asrwt>
<pdfrwt beam="1">  1       21 0.17041533E-01 0.45782203E+03</pdfrwt>
<pdfrwt beam="2">  1       21 0.66497743E-01 0.45782203E+03</pdfrwt>
<totfact> 0.59352452E+04</totfact>
</mgrwt>
</event>
<event>
 7    0  0.4732500E-002  0.4470160E+03  0.7546771E-02  0.1028616E+00
         21   -1    0    0  502  501  0.00000000000E+00  0.00000000000E+00  0.14273901476E+03  0.14273901476E+03  0.00000000000E+00 0.  1.
         21   -1    0    0  501  502 -0.00000000000E+00 -0.00000000000E+00 -0.34998019597E+03  0.34998019597E+03  0.00000000000E+00 0.  1.
      99926    2    1    2    0    0  0.35527136788E-14  0.14210854715E-13 -0.20724118122E+03  0.49271921073E+03  0.44701601026E+03 0.  0.
      99925    2    3    3    0    0 -0.28252212689E+02 -0.96195463449E+02 -0.95110792076E+02  0.29708565794E+03  0.26298682604E+03 0.  0.
         25    1    3    3    0    0  0.28252212689E+02  0.96195463449E+02 -0.11213038914E+03  0.19563355279E+03  0.12509000000E+03 0.  0.
         25    1    4    4    0    0 -0.87575161954E+01 -0.34210695534E+02 -0.85953606108E+02  0.15582874023E+03  0.12509000000E+03 0.  0.
         25    1    4    4    0    0 -0.19494696494E+02 -0.61984767916E+02 -0.91571859676E+01  0.14125691771E+03  0.12509000000E+03 0.  0.
<mgrwt>
<rscale>  2 0.44701601E+03</rscale>
<asrwt>0</asrwt>
<pdfrwt beam="1">  1       21 0.20991032E-01 0.44701601E+03</pdfrwt>
<pdfrwt beam="2">  1       21 0.51467675E-01 0.44701601E+03</pdfrwt>
<totfact> 0.70125483E+04</totfact>
</mgrwt>
</event>
<event>
 7    0  0.4732500E-002  0.4565904E+03  0.7546771E-02  0.1025775E+00
         21   -1    0    0  502  501  0.00000000000E+00  0.00000000000E+00  0.18148891041E+03  0.18148891041E+03  0.00000000000E+00 0.  1.
         21   -1    0    0  501  502 -0.00000000000E+00 -0.00000000000E+00 -0.28717293080E+03  0.28717293080E+03  0.00000000000E+00 0.  1.
      99926    2    1    2    0    0  0.35527136788E-14 -0.14210854715E-13 -0.10568402038E+03  0.46866184121E+03  0.45659041738E+03 0.  0.
      99925    2    3    3    0    0 -0.27642463184E+02 -0.85471528166E+02 -0.13953289712E+03  0.31098260207E+03  0.26300429942E+03 0.  0.
         25    1    3    3    0    0  0.27642463184E+02  0.85471528166E+02  0.33848876739E+02  0.15767923914E+03  0.12509000000E+03 0.  0.
         25    1    4    4    0    0  0.70980835174E+01 -0.14826931223E+02 -0.38350359464E+02  0.13186538155E+03  0.12509000000E+03 0.  0.
         25    1    4    4    0    0 -0.34740546701E+02 -0.70644596944E+02 -0.10118253766E+03  0.17911722053E+03  0.12509000000E+03 0.  0.
<mgrwt>
<rscale>  2 0.45659042E+03</rscale>
<asrwt>0</asrwt>
<pdfrwt beam="1">  1       21 0.26689546E-01 0.45659042E+03</pdfrwt>
<pdfrwt beam="2">  1       21 0.42231312E-01 0.45659042E+03</pdfrwt>
<totfact> 0.66690262E+04</totfact>
</mgrwt>
</event>
<event>
 7    0  0.4732500E-002  0.4625650E+03  0.7546771E-02  0.1024040E+00
         21   -1    0    0  502  501  0.00000000000E+00  0.00000000000E+00  0.63508746591E+02  0.63508746591E+02  0.00000000000E+00 0. -1.
         21   -1    0    0  501  502 -0.00000000000E+00 -0.00000000000E+00 -0.84227120049E+03  0.84227120049E+03  0.00000000000E+00 0. -1.
      99926    2    1    2    0    0 -0.14210854715E-13  0.00000000000E+00 -0.77876245390E+03  0.90577994708E+03  0.46256497158E+03 0.  0.
      99925    2    3    3    0    0  0.10364080664E+03 -0.46737104506E+02 -0.41204689589E+03  0.50198100909E+03  0.26320432241E+03 0.  0.
         25    1    4    4    0    0  0.65896070822E+02 -0.48569306964E+02 -0.16604815547E+03  0.22342955884E+03  0.12509000000E+03 0.  0.
         25    1    4    4    0    0  0.37744735813E+02  0.18322024582E+01 -0.24599874042E+03  0.27855145025E+03  0.12509000000E+03 0.  0.
         25    1    3    3    0    0 -0.10364080664E+03  0.46737104506E+02 -0.36671555801E+03  0.40379893799E+03  0.12509000000E+03 0.  0.
<mgrwt>
<rscale>  2 0.46256497E+03</rscale>
<asrwt>0</asrwt>
<pdfrwt beam="1">  1       21 0.93395220E-02 0.46256497E+03</pdfrwt>
<pdfrwt beam="2">  1       21 0.12386341E+00 0.46256497E+03</pdfrwt>
<totfact> 0.40530455E+04</totfact>
</mgrwt>
</event>
<event>
 7    0  0.4732500E-002  0.4553083E+03  0.7546771E-02  0.1026151E+00
         21   -1    0    0  502  501  0.00000000000E+00  0.00000000000E+00  0.56461526950E+03  0.56461526950E+03  0.00000000000E+00 0.  1.
         21   -1    0    0  501  502 -0.00000000000E+00 -0.00000000000E+00 -0.91790683743E+02  0.91790683743E+02  0.00000000000E+00 0.  1.
      99926    2    1    2    0    0  0.00000000000E+00  0.00000000000E+00  0.47282458576E+03  0.65640595324E+03  0.45530834229E+03 0.  0.
      99925    2    3    3    0    0  0.93389486365E+02  0.64165255943E+02  0.28691981428E+03  0.40531459857E+03  0.26290334299E+03 0.  0.
         25    1    3    3    0    0 -0.93389486365E+02 -0.64165255943E+02  0.18590477148E+03  0.25109135468E+03  0.12509000000E+03 0.  0.
         25    1    4    4    0    0  0.68439731532E+02  0.67860122525E+02  0.17328862835E+03  0.23444711535E+03  0.12509000000E+03 0.  0.
         25    1    4    4    0    0  0.24949754833E+02 -0.36948665822E+01  0.11363118592E+03  0.17086748321E+03  0.12509000000E+03 0.  0.
<mgrwt>
<rscale>  2 0.45530834E+03</rscale>
<asrwt>0</asrwt>
<pdfrwt beam="1">  1       21 0.83031655E-01 0.45530834E+03</pdfrwt>
<pdfrwt beam="2">  1       21 0.13498630E-01 0.45530834E+03</pdfrwt>
<totfact> 0.55199577E+04</totfact>
</mgrwt>
</event>
<event>
 7    0  0.4732500E-002  0.4577767E+03  0.7546771E-02  0.1025428E+00
         21   -1    0    0  502  501  0.00000000000E+00  0.00000000000E+00  0.88778015263E+03  0.88778015263E+03  0.00000000000E+00 0.  1.
         21   -1    0    0  501  502 -0.00000000000E+00 -0.00000000000E+00 -0.59012207746E+02  0.59012207746E+02  0.00000000000E+00 0.  1.
      99926    2    1    2    0    0  0.00000000000E+00  0.00000000000E+00  0.82876794488E+03  0.94679236037E+03  0.45777665646E+03 0.  0.
      99925    2    3    3    0    0 -0.42541963731E+02 -0.10458560498E+03  0.57292624650E+03  0.64044215199E+03  0.26300893268E+03 0.  0.
         25    1    3    3    0    0  0.42541963731E+02  0.10458560498E+03  0.25584169839E+03  0.30635020839E+03  0.12509000000E+03 0.  0.
         25    1    4    4    0    0 -0.61027881724E+02 -0.64749084939E+02  0.29750266797E+03  0.33477185052E+03  0.12509000000E+03 0.  0.
         25    1    4    4    0    0  0.18485917993E+02 -0.39836520041E+02  0.27542357853E+03  0.30567030147E+03  0.12509000000E+03 0.  0.
<mgrwt>
<rscale>  2 0.45777666E+03</rscale>
<asrwt>0</asrwt>
<pdfrwt beam="1">  1       21 0.13055590E+00 0.45777666E+03</pdfrwt>
<pdfrwt beam="2">  1       21 0.86782664E-02 0.45777666E+03</pdfrwt>
<totfact> 0.40386855E+04</totfact>
</mgrwt>
</event>
<event>
 7    0  0.4732500E-002  0.4540873E+03  0.7546771E-02  0.1026510E+00
         21   -1    0    0  502  501  0.00000000000E+00  0.00000000000E+00  0.39290841770E+03  0.39290841770E+03  0.00000000000E+00 0. -1.
         21   -1    0    0  501  502 -0.00000000000E+00 -0.00000000000E+00 -0.13119807677E+03  0.13119807677E+03  0.00000000000E+00 0. -1.
      99926    2    1    2    0    0  0.14210854715E-13 -0.17763568394E-14  0.26171034092E+03  0.52410649447E+03  0.45408734291E+03 0.  0.
      99925    2    3    3    0    0  0.10518528545E+03 -0.14186811744E+02  0.20688178549E+03  0.35113572094E+03  0.26311786608E+03 0.  0.
         25    1    4    4    0    0  0.83793757432E+02 -0.82335674491E+00  0.14608027566E+03  0.20978328517E+03  0.12509000000E+03 0.  0.
         25    1    4    4    0    0  0.21391528018E+02 -0.13363454999E+02  0.60801509831E+02  0.14135243577E+03  0.12509000000E+03 0.  0.
         25    1    3    3    0    0 -0.10518528545E+03  0.14186811744E+02  0.54828555438E+02  0.17297077353E+03  0.12509000000E+03 0.  0.
<mgrwt>
<rscale>  2 0.45408734E+03</rscale>
<asrwt>0</asrwt>
<pdfrwt beam="1">  1       21 0.57780650E-01 0.45408734E+03</pdfrwt>
<pdfrwt beam="2">  1       21 0.19293835E-01 0.45408734E+03</pdfrwt>
<totfact> 0.64069514E+04</totfact>
</mgrwt>
</event>
<event>
 7    0  0.4732500E-002  0.4505542E+03  0.7546771E-02  0.1027557E+00
         21   -1    0    0  502  501  0.00000000000E+00  0.00000000000E+00  0.26127943628E+03  0.26127943628E+03  0.00000000000E+00 0.  1.
         21   -1    0    0  501  502 -0.00000000000E+00 -0.00000000000E+00 -0.19423558341E+03  0.19423558341E+03  0.00000000000E+00 0.  1.
      99926    2    1    2    0    0 -0.71054273576E-14 -0.14210854715E-13  0.67043852877E+02  0.45551501969E+03  0.45055416428E+03 0.  0.
      99925    2    3    3    0    0 -0.47539198443E+02 -0.95022356110E+02  0.17939811416E+02  0.28420261927E+03  0.26298301926E+03 0.  0.
         25    1    4    4    0    0 -0.14720627356E+02 -0.52649950778E+02 -0.30265037625E+02  0.13982916287E+03  0.12509000000E+03 0.  0.
         25    1    3    3    0    0  0.47539198443E+02  0.95022356110E+02  0.49104041461E+02  0.17131240042E+03  0.12509000000E+03 0.  0.
         25    1    4    4    0    0 -0.32818571088E+02 -0.42372405332E+02  0.48204849041E+02  0.14437345640E+03  0.12509000000E+03 0.  0.
<mgrwt>
<rscale>  2 0.45055416E+03</rscale>
<asrwt>0</asrwt>
<pdfrwt beam="1">  1       21 0.38423446E-01 0.45055416E+03</pdfrwt>
<pdfrwt beam="2">  1       21 0.28564056E-01 0.45055416E+03</pdfrwt>
<totfact> 0.70992442E+04</totfact>
</mgrwt>
</event>
<event>
 7    0  0.4732500E-002  0.4796996E+03  0.7546771E-02  0.1019218E+00
         21   -1    0    0  502  501  0.00000000000E+00  0.00000000000E+00  0.38093194984E+02  0.38093194984E+02  0.00000000000E+00 0.  1.
         21   -1    0    0  501  502 -0.00000000000E+00 -0.00000000000E+00 -0.15101893042E+04  0.15101893042E+04  0.00000000000E+00 0.  1.
      99926    2    1    2    0    0  0.00000000000E+00  0.00000000000E+00 -0.14720961092E+04  0.15482824992E+04  0.47969963781E+03 0.  0.
      99925    2    3    3    0    0 -0.12834648097E+03  0.27189872265E+02 -0.10107788369E+04  0.10526281416E+04  0.26294493546E+03 0.  0.
         25    1    4    4    0    0 -0.82437568558E+02 -0.21048541990E+02 -0.48151161817E+03  0.50471768382E+03  0.12509000000E+03 0.  0.
         25    1    3    3    0    0  0.12834648097E+03 -0.27189872265E+02 -0.46131727234E+03  0.49565435758E+03  0.12509000000E+03 0.  0.
         25    1    4    4    0    0 -0.45908912410E+02  0.48238414255E+02 -0.52926721874E+03  0.54791045781E+03  0.12509000000E+03 0.  0.
<mgrwt>
<rscale>  2 0.47969964E+03</rscale>
<asrwt>0</asrwt>
<pdfrwt beam="1">  1       21 0.56019407E-02 0.47969964E+03</pdfrwt>
<pdfrwt beam="2">  1       21 0.22208665E+00 0.47969964E+03</pdfrwt>
<totfact> 0.18756113E+04</totfact>
</mgrwt>
</event>
<event>
 7    0  0.4732500E-002  0.4492873E+03  0.7546771E-02  0.1027935E+00
         21   -1    0    0  502  501  0.00000000000E+00  0.00000000000E+00  0.20841077462E+03  0.20841077462E+03  0.00000000000E+00 0.  1.
         21   -1    0    0  501  502 -0.00000000000E+00 -0.00000000000E+00 -0.24214090403E+03  0.24214090403E+03  0.00000000000E+00 0.  1.
      99926    2    1    2    0    0  0.00000000000E+00  0.00000000000E+00 -0.33730129409E+02  0.45055167865E+03  0.44928731732E+03 0.  0.
      99925    2    3    3    0    0 -0.10287415606E+03  0.25847968945E+02 -0.39300090382E+02  0.28644883879E+03  0.26316768544E+03 0.  0.
         25    1    4    4    0    0 -0.87002875748E+02 -0.45189460144E+01 -0.60579588820E+01  0.15255860588E+03  0.12509000000E+03 0.  0.
         25    1    3    3    0    0  0.10287415606E+03 -0.25847968945E+02  0.55699609729E+01  0.16410283986E+03  0.12509000000E+03 0.  0.
         25    1    4    4    0    0 -0.15871280310E+02  0.30366914959E+02 -0.33242131500E+02  0.13389023291E+03  0.12509000000E+03 0.  0.
<mgrwt>
<rscale>  2 0.44928732E+03</rscale>
<asrwt>0</asrwt>
<pdfrwt beam="1">  1       21 0.30648643E-01 0.44928732E+03</pdfrwt>
<pdfrwt beam="2">  1       21 0.35608956E-01 0.44928732E+03</pdfrwt>
<totfact> 0.72103812E+04</totfact>
</mgrwt>
</event>
<event>
 7    0  0.4732500E-002  0.4544335E+03  0.7546771E-02  0.1026408E+00
         21   -1    0    0  502  501  0.00000000000E+00  0.00000000000E+00  0.29266144677E+02  0.29266144677E+02  0.00000000000E+00 0. -1.
         21   -1    0    0  501  502 -0.00000000000E+00 -0.00000000000E+00 -0.17640672122E+04  0.17640672122E+04  0.00000000000E+00 0. -1.
      99926    2    1    2    0    0  0.17763568394E-14  0.00000000000E+00 -0.17348010676E+04  0.17933333569E+04  0.45443347700E+03 0.  0.
      99925    2    3    3    0    0 -0.13694919661E+02  0.10918798756E+03 -0.11897401203E+04  0.12233785238E+04  0.26280009744E+03 0.  0.
         25    1    4    4    0    0  0.15631320363E+01  0.96739487836E+02 -0.64168409730E+03  0.66088346984E+03  0.12509000000E+03 0.  0.
         25    1    3    3    0    0  0.13694919661E+02 -0.10918798756E+03 -0.54506094727E+03  0.56995483311E+03  0.12509000000E+03 0.  0.
         25    1    4    4    0    0 -0.15258051697E+02  0.12448499721E+02 -0.54805602300E+03  0.56249505397E+03  0.12509000000E+03 0.  0.
<mgrwt>
<rscale>  2 0.45443348E+03</rscale>
<asrwt>0</asrwt>
<pdfrwt beam="1">  1       21 0.43038460E-02 0.45443348E+03</pdfrwt>
<pdfrwt beam="2">  1       21 0.25942158E+00 0.45443348E+03</pdfrwt>
<totfact> 0.17464589E+04</totfact>
</mgrwt>
</event>
<event>
 7    0  0.4732500E-002  0.4414571E+03  0.7546771E-02  0.1030301E+00
         21   -1    0    0  502  501  0.00000000000E+00  0.00000000000E+00  0.11012604545E+03  0.11012604545E+03  0.00000000000E+00 0. -1.
         21   -1    0    0  501  502 -0.00000000000E+00 -0.00000000000E+00 -0.44241216761E+03  0.44241216761E+03  0.00000000000E+00 0. -1.
      99926    2    1    2    0    0  0.00000000000E+00  0.00000000000E+00 -0.33228612216E+03  0.55253821306E+03  0.44145714391E+03 0.  0.
      99925    2    3    3    0    0  0.43791762183E+02  0.87564903342E+02 -0.18637395356E+03  0.33684584003E+03  0.26295349142E+03 0.  0.
         25    1    3    3    0    0 -0.43791762183E+02 -0.87564903342E+02 -0.14591216861E+03  0.21569237302E+03  0.12509000000E+03 0.  0.
         25    1    4    4    0    0  0.25685946838E+02  0.39942091161E+02 -0.14095179702E+03  0.19434519725E+03  0.12509000000E+03 0.  0.
         25    1    4    4    0    0  0.18105815345E+02  0.47622812182E+02 -0.45422156537E+02  0.14250064278E+03  0.12509000000E+03 0.  0.
<mgrwt>
<rscale>  2 0.44145714E+03</rscale>
<asrwt>0</asrwt>
<pdfrwt beam="1">  1       21 0.16195007E-01 0.44145714E+03</pdfrwt>
<pdfrwt beam="2">  1       21 0.65060613E-01 0.44145714E+03</pdfrwt>
<totfact> 0.68777004E+04</totfact>
</mgrwt>
</event>
<event>
 7    0  0.4732500E-002  0.4188045E+03  0.7546771E-02  0.1037456E+00
         21   -1    0    0  502  501  0.00000000000E+00  0.00000000000E+00  0.12033569551E+03  0.12033569551E+03  0.00000000000E+00 0. -1.
         21   -1    0    0  501  502 -0.00000000000E+00 -0.00000000000E+00 -0.36439147168E+03  0.36439147168E+03  0.00000000000E+00 0. -1.
      99926    2    1    2    0    0  0.00000000000E+00 -0.35527136788E-14 -0.24405577616E+03  0.48472716719E+03  0.41880449465E+03 0.  0.
      99925    2    3    3    0    0  0.44938588802E+02  0.18871209422E+02 -0.22444746056E+03  0.34905258059E+03  0.26284109678E+03 0.  0.
         25    1    4    4    0    0  0.53230659760E+02  0.33552947217E+02 -0.10237013109E+03  0.17345447600E+03  0.12509000000E+03 0.  0.
         25    1    4    4    0    0 -0.82920709580E+01 -0.14681737795E+02 -0.12207732947E+03  0.17559810459E+03  0.12509000000E+03 0.  0.
         25    1    3    3    0    0 -0.44938588802E+02 -0.18871209422E+02 -0.19608315605E+02  0.13567458660E+03  0.12509000000E+03 0.  0.
<mgrwt>
<rscale>  2 0.41880449E+03</rscale>
<asrwt>0</asrwt>
<pdfrwt beam="1">  1       21 0.17696426E-01 0.41880449E+03</pdfrwt>
<pdfrwt beam="2">  1       21 0.53586982E-01 0.41880449E+03</pdfrwt>
<totfact> 0.89405150E+04</totfact>
</mgrwt>
</event>
<event>
 7    0  0.4732500E-002  0.4519122E+03  0.7546771E-02  0.1027153E+00
         21   -1    0    0  502  501  0.00000000000E+00  0.00000000000E+00  0.13681147967E+04  0.13681147967E+04  0.00000000000E+00 0. -1.
         21   -1    0    0  501  502 -0.00000000000E+00 -0.00000000000E+00 -0.37318626919E+02  0.37318626919E+02  0.00000000000E+00 0. -1.
      99926    2    1    2    0    0  0.00000000000E+00  0.00000000000E+00  0.13307961698E+04  0.14054334236E+04  0.45191222901E+03 0.  0.
      99925    2    3    3    0    0 -0.33225526385E+02 -0.43680517041E+02  0.54095479216E+03  0.60386693663E+03  0.26269995587E+03 0.  0.
         25    1    4    4    0    0 -0.55633515354E+02 -0.29036100508E+02  0.30098495803E+03  0.33193016769E+03  0.12509000000E+03 0.  0.
         25    1    4    4    0    0  0.22407988969E+02 -0.14644416534E+02  0.23996983413E+03  0.27193676893E+03  0.12509000000E+03 0.  0.
         25    1    3    3    0    0  0.33225526385E+02  0.43680517041E+02  0.78984137763E+03  0.80156648700E+03  0.12509000000E+03 0.  0.
<mgrwt>
<rscale>  2 0.45191223E+03</rscale>
<asrwt>0</asrwt>
<pdfrwt beam="1">  1       21 0.20119332E+00 0.45191223E+03</pdfrwt>
<pdfrwt beam="2">  1       21 0.54880343E-02 0.45191223E+03</pdfrwt>
<totfact> 0.26825506E+04</totfact>
</mgrwt>
</event>
<event>
 7    0  0.4732500E-002  0.4818137E+03  0.7546771E-02  0.1018638E+00
         21   -1    0    0  502  501  0.00000000000E+00  0.00000000000E+00  0.39760811128E+03  0.39760811128E+03  0.00000000000E+00 0. -1.
         21   -1    0    0  501  502 -0.00000000000E+00 -0.00000000000E+00 -0.14596308228E+03  0.14596308228E+03  0.00000000000E+00 0. -1.
      99926    2    1    2    0    0  0.00000000000E+00 -0.35527136788E-14  0.25164502900E+03  0.54357119357E+03  0.48181367961E+03 0.  0.
      99925    2    3    3    0    0 -0.12256550971E+03  0.28053751021E+02  0.21553125298E+03  0.36257111060E+03  0.26304899185E+03 0.  0.
         25    1    3    3    0    0  0.12256550971E+03 -0.28053751021E+02  0.36113776020E+02  0.18100008297E+03  0.12509000000E+03 0.  0.
         25    1    4    4    0    0 -0.20000012313E+02  0.27945018249E+02  0.99799460486E+02  0.16367151539E+03  0.12509000000E+03 0.  0.
         25    1    4    4    0    0 -0.10256549740E+03  0.10873277154E+00  0.11573179250E+03  0.19889959521E+03  0.12509000000E+03 0.  0.
<mgrwt>
<rscale>  2 0.48181368E+03</rscale>
<asrwt>0</asrwt>
<pdfrwt beam="1">  1       21 0.58471781E-01 0.48181368E+03</pdfrwt>
<pdfrwt beam="2">  1       21 0.21465159E-01 0.48181368E+03</pdfrwt>
<totfact> 0.50645956E+04</totfact>
</mgrwt>
</event>
<event>
 7    0  0.4732500E-002  0.4569529E+03  0.7546771E-02  0.1025669E+00
         21   -1    0    0  502  501  0.00000000000E+00  0.00000000000E+00  0.73125668705E+03  0.73125668705E+03  0.00000000000E+00 0.  1.
         21   -1    0    0  501  502 -0.00000000000E+00 -0.00000000000E+00 -0.71385986673E+02  0.71385986673E+02  0.00000000000E+00 0.  1.
      99926    2    1    2    0    0  0.00000000000E+00  0.00000000000E+00  0.65987070037E+03  0.80264267372E+03  0.45695286460E+03 0.  0.
      99925    2    3    3    0    0 -0.99966342037E+02 -0.54323723012E+02  0.38524349629E+03  0.48013384322E+03  0.26300498010E+03 0.  0.
         25    1    4    4    0    0 -0.55729197280E+02 -0.43552162937E+02  0.26150747027E+03  0.29838934202E+03  0.12509000000E+03 0.  0.
         25    1    3    3    0    0  0.99966342037E+02  0.54323723012E+02  0.27462720409E+03  0.32250883050E+03  0.12509000000E+03 0.  0.
         25    1    4    4    0    0 -0.44237144758E+02 -0.10771560075E+02  0.12373602602E+03  0.18174450120E+03  0.12509000000E+03 0.  0.
<mgrwt>
<rscale>  2 0.45695286E+03</rscale>
<asrwt>0</asrwt>
<pdfrwt beam="1">  1       21 0.10753774E+00 0.45695286E+03</pdfrwt>
<pdfrwt beam="2">  1       21 0.10497940E-01 0.45695286E+03</pdfrwt>
<totfact> 0.46914131E+04</totfact>
</mgrwt>
</event>
<event>
 7    0  0.4732500E-002  0.4592878E+03  0.7546771E-02  0.1024988E+00
         21   -1    0    0  502  501  0.00000000000E+00  0.00000000000E+00  0.13721795538E+04  0.13721795538E+04  0.00000000000E+00 0. -1.
         21   -1    0    0  501  502 -0.00000000000E+00 -0.00000000000E+00 -0.38432522196E+02  0.38432522196E+02  0.00000000000E+00 0. -1.
      99926    2    1    2    0    0  0.00000000000E+00  0.00000000000E+00  0.13337470316E+04  0.14106120760E+04  0.45928780153E+03 0.  0.
      99925    2    3    3    0    0 -0.50917352830E+02  0.91807625196E+02  0.99596883478E+03  0.10354283407E+04  0.26293860890E+03 0.  0.
         25    1    3    3    0    0  0.50917352830E+02 -0.91807625196E+02  0.33777819679E+03  0.37518373524E+03  0.12509000000E+03 0.  0.
         25    1    4    4    0    0 -0.57267944863E+02  0.32024959791E+02  0.42611363715E+03  0.44891597814E+03  0.12509000000E+03 0.  0.
         25    1    4    4    0    0  0.63505920328E+01  0.59782665405E+02  0.56985519763E+03  0.58651236259E+03  0.12509000000E+03 0.  0.
<mgrwt>
<rscale>  2 0.45928780E+03</rscale>
<asrwt>0</asrwt>
<pdfrwt beam="1">  1       21 0.20179108E+00 0.45928780E+03</pdfrwt>
<pdfrwt beam="2">  1       21 0.56518424E-02 0.45928780E+03</pdfrwt>
<totfact> 0.25200402E+04</totfact>
</mgrwt>
</event>
<event>
 7    0  0.4732500E-002  0.4620078E+03  0.7546771E-02  0.1024201E+00
         21   -1    0    0  502  501  0.00000000000E+00  0.00000000000E+00  0.96175541049E+03  0.96175541049E+03  0.00000000000E+00 0. -1.
         21   -1    0    0  501  502 -0.00000000000E+00 -0.00000000000E+00 -0.55484798321E+02  0.55484798321E+02  0.00000000000E+00 0. -1.
      99926    2    1    2    0    0  0.00000000000E+00  0.00000000000E+00  0.90627061217E+03  0.10172402088E+04  0.46200781372E+03 0.  0.
      99925    2    3    3    0    0  0.45659706286E+02 -0.26180037805E+02  0.80330200511E+03  0.84688691329E+03  0.26296982587E+03 0.  0.
         25    1    3    3    0    0 -0.45659706286E+02  0.26180037805E+02  0.10296860706E+03  0.17035329553E+03  0.12509000000E+03 0.  0.
         25    1    4    4    0    0  0.31246474863E+02  0.81534878309E+01  0.50536879451E+03  0.52162050202E+03  0.12509000000E+03 0.  0.
         25    1    4    4    0    0  0.14413231423E+02 -0.34333525635E+02  0.29793321060E+03  0.32526641127E+03  0.12509000000E+03 0.  0.
<mgrwt>
<rscale>  2 0.46200781E+03</rscale>
<asrwt>0</asrwt>
<pdfrwt beam="1">  1       21 0.14143461E+00 0.46200781E+03</pdfrwt>
<pdfrwt beam="2">  1       21 0.81595298E-02 0.46200781E+03</pdfrwt>
<totfact> 0.36466236E+04</totfact>
</mgrwt>
</event>
<event>
 7    0  0.4732500E-002  0.4438970E+03  0.7546771E-02  0.1029558E+00
         21   -1    0    0  502  501  0.00000000000E+00  0.00000000000E+00  0.11256312431E+03  0.11256312431E+03  0.00000000000E+00 0.  1.
         21   -1    0    0  501  502 -0.00000000000E+00 -0.00000000000E+00 -0.43763130318E+03  0.43763130318E+03  0.00000000000E+00 0.  1.
      99926    2    1    2    0    0 -0.35527136788E-14  0.00000000000E+00 -0.32506817888E+03  0.55019442749E+03  0.44389704564E+03 0.  0.
      99925    2    3    3    0    0  0.28154135527E+02 -0.45364080402E+02 -0.31507276683E+03  0.41382004757E+03  0.26291753124E+03 0.  0.
         25    1    4    4    0    0 -0.29407676479E+00  0.15201283973E+02 -0.13681856984E+03  0.18600536194E+03  0.12509000000E+03 0.  0.
         25    1    3    3    0    0 -0.28154135527E+02  0.45364080402E+02 -0.99954120460E+01  0.13637437993E+03  0.12509000000E+03 0.  0.
         25    1    4    4    0    0  0.28448212292E+02 -0.60565364375E+02 -0.17825419699E+03  0.22781468563E+03  0.12509000000E+03 0.  0.
<mgrwt>
<rscale>  2 0.44389705E+03</rscale>
<asrwt>0</asrwt>
<pdfrwt beam="1">  1       21 0.16553401E-01 0.44389705E+03</pdfrwt>
<pdfrwt beam="2">  1       21 0.64357543E-01 0.44389705E+03</pdfrwt>
<totfact> 0.67598972E+04</totfact>
</mgrwt>
</event>
<event>
 7    0  0.4732500E-002  0.4664846E+03  0.7546771E-02  0.1022917E+00
         21   -1    0    0  502  501  0.00000000000E+00  0.00000000000E+00  0.17215196165E+04  0.17215196165E+04  0.00000000000E+00 0.  1.
         21   -1    0    0  501  502 -0.00000000000E+00 -0.00000000000E+00 -0.31601130892E+02  0.31601130892E+02  0.00000000000E+00 0.  1.
      99926    2    1    2    0    0  0.17763568394E-14  0.00000000000E+00  0.16899184856E+04  0.17531207474E+04  0.46648458381E+03 0.  0.
      99925    2    3    3    0    0 -0.14991429980E+02 -0.12014148766E+03  0.11478627848E+04  0.11837960501E+04  0.26291708873E+03 0.  0.
         25    1    4    4    0    0 -0.17567778797E+02 -0.35348862075E+02  0.40494396749E+03  0.42565865879E+03  0.12509000000E+03 0.  0.
         25    1    3    3    0    0  0.14991429980E+02  0.12014148766E+03  0.54205570079E+03  0.56932469724E+03  0.12509000000E+03 0.  0.
         25    1    4    4    0    0  0.25763488177E+01 -0.84792625589E+02  0.74291881732E+03  0.75813739135E+03  0.12509000000E+03 0.  0.
<mgrwt>
<rscale>  2 0.46648458E+03</rscale>
<asrwt>0</asrwt>
<pdfrwt beam="1">  1       21 0.25316459E+00 0.46648458E+03</pdfrwt>
<pdfrwt beam="2">  1       21 0.46472263E-02 0.46648458E+03</pdfrwt>
<totfact> 0.16643754E+04</totfact>
</mgrwt>
</event>
<event>
 7    0  0.4732500E-002  0.4557209E+03  0.7546771E-02  0.1026030E+00
         21   -1    0    0  502  501  0.00000000000E+00  0.00000000000E+00  0.64639297029E+03  0.64639297029E+03  0.00000000000E+00 0.  1.
         21   -1    0    0  501  502 -0.00000000000E+00 -0.00000000000E+00 -0.80323253794E+02  0.80323253794E+02  0.00000000000E+00 0.  1.
      99926    2    1    2    0    0  0.35527136788E-14  0.00000000000E+00  0.56606971649E+03  0.72671622408E+03  0.45572090847E+03 0.  0.
      99925    2    3    3    0    0  0.22856062827E+02  0.36942205577E+02  0.52365804637E+03  0.58767168437E+03  0.26315989991E+03 0.  0.
         25    1    4    4    0    0 -0.17166099946E+02  0.47286710024E+02  0.27475324122E+03  0.30605156362E+03  0.12509000000E+03 0.  0.
         25    1    4    4    0    0  0.40022162773E+02 -0.10344504446E+02  0.24890480515E+03  0.28162012075E+03  0.12509000000E+03 0.  0.
         25    1    3    3    0    0 -0.22856062827E+02 -0.36942205577E+02  0.42411670122E+02  0.13904453971E+03  0.12509000000E+03 0.  0.
<mgrwt>
<rscale>  2 0.45572091E+03</rscale>
<asrwt>0</asrwt>
<pdfrwt beam="1">  1       21 0.95057787E-01 0.45572091E+03</pdfrwt>
<pdfrwt beam="2">  1       21 0.11812244E-01 0.45572091E+03</pdfrwt>
<totfact> 0.51185562E+04</totfact>
</mgrwt>
</event>
<event>
 7    0  0.4732500E-002  0.4626499E+03  0.7546771E-02  0.1024015E+00
         21   -1    0    0  502  501  0.00000000000E+00  0.00000000000E+00  0.73474976607E+02  0.73474976607E+02  0.00000000000E+00 0. -1.
         21   -1    0    0  501  502 -0.00000000000E+00 -0.00000000000E+00 -0.72829202591E+03  0.72829202591E+03  0.00000000000E+00 0. -1.
      99926    2    1    2    0    0  0.00000000000E+00  0.71054273576E-14 -0.65481704930E+03  0.80176700252E+03  0.46264993058E+03 0.  0.
      99925    2    3    3    0    0 -0.85451524064E+02 -0.51690043378E+02 -0.29289758564E+03  0.40603094171E+03  0.26286556716E+03 0.  0.
         25    1    4    4    0    0 -0.26212388158E+02 -0.44345906979E+02 -0.19076001882E+03  0.23386008988E+03  0.12509000000E+03 0.  0.
         25    1    3    3    0    0  0.85451524064E+02  0.51690043378E+02 -0.36191946366E+03  0.39573606081E+03  0.12509000000E+03 0.  0.
         25    1    4    4    0    0 -0.59239135906E+02 -0.73441363988E+01 -0.10213756682E+03  0.17217085183E+03  0.12509000000E+03 0.  0.
<mgrwt>
<rscale>  2 0.46264993E+03</rscale>
<asrwt>0</asrwt>
<pdfrwt beam="1">  1       21 0.10805144E-01 0.46264993E+03</pdfrwt>
<pdfrwt beam="2">  1       21 0.10710177E+00 0.46264993E+03</pdfrwt>
<totfact> 0.44921321E+04</totfact>
</mgrwt>
</event>
<event>
 6    0  0.4732500E-002  0.4531306E+03  0.7546771E-02  0.1026793E+00
         21   -1    0    0  502  501  0.00000000000E+00  0.00000000000E+00  0.85469908960E+02  0.85469908960E+02  0.00000000000E+00 0. -1.
         21   -1    0    0  501  502 -0.00000000000E+00 -0.00000000000E+00 -0.60058369705E+03  0.60058369705E+03  0.00000000000E+00 0. -1.
      99926    2    1    2    0    0  0.00000000000E+00  0.00000000000E+00 -0.51511378809E+03  0.68605360601E+03  0.45313059446E+03 0.  0.
         25    1    3    3    0    0  0.49858530036E+02  0.10422094075E+03 -0.21403575706E+03  0.27350811854E+03  0.12509000000E+03 0.  0.
         25    1    3    3    0    0 -0.30191198170E+02 -0.79058873709E+02 -0.18604674579E+03  0.23963036885E+03  0.12509000000E+03 0.  0.
         25    1    3    3    0    0 -0.19667331867E+02 -0.25162067039E+02 -0.11503128524E+03  0.17291511861E+03  0.12509000000E+03 0.  0.
<mgrwt>
<rscale>  2 0.45313059E+03</rscale>
<asrwt>0</asrwt>
<pdfrwt beam="1">  1       21 0.12569104E-01 0.45313059E+03</pdfrwt>
<pdfrwt beam="2">  1       21 0.88321134E-01 0.45313059E+03</pdfrwt>
<totfact> 0.54464071E+04</totfact>
</mgrwt>
</event>
<event>
 7    0  0.4732500E-002  0.4533251E+03  0.7546771E-02  0.1026735E+00
         21   -1    0    0  502  501  0.00000000000E+00  0.00000000000E+00  0.14625383130E+03  0.14625383130E+03  0.00000000000E+00 0.  1.
         21   -1    0    0  501  502 -0.00000000000E+00 -0.00000000000E+00 -0.35127906350E+03  0.35127906350E+03  0.00000000000E+00 0.  1.
      99926    2    1    2    0    0  0.14210854715E-13  0.00000000000E+00 -0.20502523220E+03  0.49753289480E+03  0.45332508818E+03 0.  0.
      99925    2    3    3    0    0  0.86786252076E+02 -0.70200833305E+02 -0.13979802475E+03  0.31763818327E+03  0.26247003105E+03 0.  0.
         25    1    4    4    0    0  0.17133786961E+02 -0.12872156973E+01 -0.58688456193E+02  0.13923744672E+03  0.12509000000E+03 0.  0.
         25    1    4    4    0    0  0.69652465115E+02 -0.68913617607E+02 -0.81109568553E+02  0.17840073654E+03  0.12509000000E+03 0.  0.
         25    1    3    3    0    0 -0.86786252076E+02  0.70200833305E+02 -0.65227207453E+02  0.17989471153E+03  0.12509000000E+03 0.  0.
<mgrwt>
<rscale>  2 0.45332509E+03</rscale>
<asrwt>0</asrwt>
<pdfrwt beam="1">  1       21 0.21507917E-01 0.45332509E+03</pdfrwt>
<pdfrwt beam="2">  1       21 0.51658685E-01 0.45332509E+03</pdfrwt>
<totfact> 0.66321757E+04</totfact>
</mgrwt>
</event>
<event>
 6    0  0.4732500E-002  0.4576782E+03  0.7546771E-02  0.1025457E+00
         21   -1    0    0  502  501  0.00000000000E+00  0.00000000000E+00  0.68310807918E+02  0.68310807918E+02  0.00000000000E+00 0. -1.
         21   -1    0    0  501  502 -0.00000000000E+00 -0.00000000000E+00 -0.76660379493E+03  0.76660379493E+03  0.00000000000E+00 0. -1.
      99926    2    1    2    0    0  0.00000000000E+00 -0.71054273576E-14 -0.69829298701E+03  0.83491460285E+03  0.45767816022E+03 0.  0.
         25    1    3    3    0    0  0.80373536778E+02 -0.31033816004E+02 -0.17474028605E+03  0.23152684254E+03  0.12509000000E+03 0.  0.
         25    1    3    3    0    0 -0.10753607320E+03  0.45232988200E+02 -0.29054256306E+03  0.33715355450E+03  0.12509000000E+03 0.  0.
         25    1    3    3    0    0  0.27162536422E+02 -0.14199172196E+02 -0.23301013790E+03  0.26623420580E+03  0.12509000000E+03 0.  0.
<mgrwt>
<rscale>  2 0.45767816E+03</rscale>
<asrwt>0</asrwt>
<pdfrwt beam="1">  1       21 0.10045707E-01 0.45767816E+03</pdfrwt>
<pdfrwt beam="2">  1       21 0.11273585E+00 0.45767816E+03</pdfrwt>
<totfact> 0.45165394E+04</totfact>
</mgrwt>
</event>
<event>
 7    0  0.4732500E-002  0.4535878E+03  0.7546771E-02  0.1026657E+00
         21   -1    0    0  502  501  0.00000000000E+00  0.00000000000E+00  0.10135517533E+04  0.10135517533E+04  0.00000000000E+00 0.  1.
         21   -1    0    0  501  502 -0.00000000000E+00 -0.00000000000E+00 -0.50747757460E+02  0.50747757460E+02  0.00000000000E+00 0.  1.
      99926    2    1    2    0    0  0.00000000000E+00  0.00000000000E+00  0.96280399587E+03  0.10642995108E+04  0.45358782414E+03 0.  0.
      99925    2    3    3    0    0 -0.94972039058E+02  0.41154684457E+02  0.70662476570E+03  0.76100311727E+03  0.26285697390E+03 0.  0.
         25    1    4    4    0    0 -0.60604865893E+02  0.36054724479E+02  0.46555519667E+03  0.48719815493E+03  0.12509000000E+03 0.  0.
         25    1    3    3    0    0  0.94972039058E+02 -0.41154684457E+02  0.25617923017E+03  0.30329639353E+03  0.12509000000E+03 0.  0.
         25    1    4    4    0    0 -0.34367173165E+02  0.50999599784E+01  0.24106956903E+03  0.27380496233E+03  0.12509000000E+03 0.  0.
<mgrwt>
<rscale>  2 0.45358782E+03</rscale>
<asrwt>0</asrwt>
<pdfrwt beam="1">  1       21 0.14905172E+00 0.45358782E+03</pdfrwt>
<pdfrwt beam="2">  1       21 0.74629061E-02 0.45358782E+03</pdfrwt>
<totfact> 0.37164936E+04</totfact>
</mgrwt>
</event>
<event>
 7    0  0.4732500E-002  0.4580406E+03  0.7546771E-02  0.1025351E+00
         21   -1    0    0  502  501  0.00000000000E+00  0.00000000000E+00  0.18406849872E+03  0.18406849872E+03  0.00000000000E+00 0. -1.
         21   -1    0    0  501  502 -0.00000000000E+00 -0.00000000000E+00 -0.28494983195E+03  0.28494983195E+03  0.00000000000E+00 0. -1.
      99926    2    1    2    0    0  0.35527136788E-14  0.00000000000E+00 -0.10088133323E+03  0.46901833067E+03  0.45804055619E+03 0.  0.
      99925    2    3    3    0    0  0.29655044322E+02  0.10566736130E+03 -0.24694457850E+02  0.28599658066E+03  0.26294336844E+03 0.  0.
         25    1    3    3    0    0 -0.29655044322E+02 -0.10566736130E+03 -0.76186875381E+02  0.18302175001E+03  0.12509000000E+03 0.  0.
         25    1    4    4    0    0 -0.28180316428E+01  0.13383910789E+02 -0.45087933321E+01  0.12591627253E+03  0.12509000000E+03 0.  0.
         25    1    4    4    0    0  0.32473075964E+02  0.92283450508E+02 -0.20185664518E+02  0.16008030813E+03  0.12509000000E+03 0.  0.
<mgrwt>
<rscale>  2 0.45804056E+03</rscale>
<asrwt>0</asrwt>
<pdfrwt beam="1">  1       21 0.27068897E-01 0.45804056E+03</pdfrwt>
<pdfrwt beam="2">  1       21 0.41904386E-01 0.45804056E+03</pdfrwt>
<totfact> 0.65905273E+04</totfact>
</mgrwt>
</event>
<event>
 7    0  0.4732500E-002  0.4553016E+03  0.7546771E-02  0.1026153E+00
         21   -1    0    0  502  501  0.00000000000E+00  0.00000000000E+00  0.24892500121E+03  0.24892500121E+03  0.00000000000E+00 0.  1.
         21   -1    0    0  501  502 -0.00000000000E+00 -0.00000000000E+00 -0.20819474807E+03  0.20819474807E+03  0.00000000000E+00 0.  1.
      99926    2    1    2    0    0 -0.35527136788E-14  0.00000000000E+00  0.40730253150E+02  0.45711974928E+03  0.45530156123E+03 0.  0.
      99925    2    3    3    0    0 -0.25266409830E+02  0.86009105201E+02 -0.44217745763E+02  0.28133684834E+03  0.26298147378E+03 0.  0.
         25    1    4    4    0    0  0.79683704344E+01  0.97526579250E+01 -0.36507148427E+02  0.13091558062E+03  0.12509000000E+03 0.  0.
         25    1    3    3    0    0  0.25266409830E+02 -0.86009105201E+02  0.84947998912E+02  0.17578290094E+03  0.12509000000E+03 0.  0.
         25    1    4    4    0    0 -0.33234780265E+02  0.76256447276E+02 -0.77105973356E+01  0.15042126772E+03  0.12509000000E+03 0.  0.
<mgrwt>
<rscale>  2 0.45530156E+03</rscale>
<asrwt>0</asrwt>
<pdfrwt beam="1">  1       21 0.36606618E-01 0.45530156E+03</pdfrwt>
<pdfrwt beam="2">  1       21 0.30616875E-01 0.45530156E+03</pdfrwt>
<totfact> 0.68226495E+04</totfact>
</mgrwt>
</event>
<event>
 7    0  0.4732500E-002  0.4364392E+03  0.7546771E-02  0.1031845E+00
         21   -1    0    0  502  501  0.00000000000E+00  0.00000000000E+00  0.12361734645E+03  0.12361734645E+03  0.00000000000E+00 0.  1.
         21   -1    0    0  501  502 -0.00000000000E+00 -0.00000000000E+00 -0.38521927402E+03  0.38521927402E+03  0.00000000000E+00 0.  1.
      99926    2    1    2    0    0  0.71054273576E-14  0.14210854715E-13 -0.26160192757E+03  0.50883662047E+03  0.43643915707E+03 0.  0.
      99925    2    3    3    0    0 -0.53156564756E+02 -0.62753056621E+02 -0.22224980983E+03  0.35404752602E+03  0.26304202367E+03 0.  0.
         25    1    4    4    0    0 -0.44030903017E+02 -0.72132083801E+01 -0.73839191327E+02  0.15195553650E+03  0.12509000000E+03 0.  0.
         25    1    3    3    0    0  0.53156564756E+02  0.62753056621E+02 -0.39352117741E+02  0.15478909446E+03  0.12509000000E+03 0.  0.
         25    1    4    4    0    0 -0.91256617382E+01 -0.55539848241E+02 -0.14841061850E+03  0.20209198952E+03  0.12509000000E+03 0.  0.
<mgrwt>
<rscale>  2 0.43643916E+03</rscale>
<asrwt>0</asrwt>
<pdfrwt beam="1">  1       21 0.18179022E-01 0.43643916E+03</pdfrwt>
<pdfrwt beam="2">  1       21 0.56649892E-01 0.43643916E+03</pdfrwt>
<totfact> 0.75118426E+04</totfact>
</mgrwt>
</event>
<event>
 7    0  0.4732500E-002  0.4533864E+03  0.7546771E-02  0.1026717E+00
         21   -1    0    0  502  501  0.00000000000E+00  0.00000000000E+00  0.90572015300E+02  0.90572015300E+02  0.00000000000E+00 0. -1.
         21   -1    0    0  501  502 -0.00000000000E+00 -0.00000000000E+00 -0.56739157297E+03  0.56739157297E+03  0.00000000000E+00 0. -1.
      99926    2    1    2    0    0  0.00000000000E+00  0.00000000000E+00 -0.47681955767E+03  0.65796358827E+03  0.45338636163E+03 0.  0.
      99925    2    3    3    0    0  0.67884197560E+02 -0.87894250454E+02 -0.28660671933E+03  0.40466120867E+03  0.26319881971E+03 0.  0.
         25    1    3    3    0    0 -0.67884197560E+02  0.87894250454E+02 -0.19021283834E+03  0.25330237960E+03  0.12509000000E+03 0.  0.
         25    1    4    4    0    0  0.66422351233E+02 -0.63991478324E+02 -0.12865826792E+03  0.20176049179E+03  0.12509000000E+03 0.  0.
         25    1    4    4    0    0  0.14618463267E+01 -0.23902772131E+02 -0.15794845141E+03  0.20290071689E+03  0.12509000000E+03 0.  0.
<mgrwt>
<rscale>  2 0.45338636E+03</rscale>
<asrwt>0</asrwt>
<pdfrwt beam="1">  1       21 0.13319414E-01 0.45338636E+03</pdfrwt>
<pdfrwt beam="2">  1       21 0.83439940E-01 0.45338636E+03</pdfrwt>
<totfact> 0.55953449E+04</totfact>
</mgrwt>
</event>
<event>
 7    0  0.4732500E-002  0.4127269E+03  0.7546771E-02  0.1039460E+00
         21   -1    0    0  502  501  0.00000000000E+00  0.00000000000E+00  0.31176219955E+02  0.31176219955E+02  0.00000000000E+00 0.  1.
         21   -1    0    0  501  502 -0.00000000000E+00 -0.00000000000E+00 -0.13659732818E+04  0.13659732818E+04  0.00000000000E+00 0.  1.
      99926    2    1    2    0    0  0.71054273576E-14  0.00000000000E+00 -0.13347970619E+04  0.13971495018E+04  0.41272694842E+03 0.  0.
      99925    2    3    3    0    0  0.28712726156E+02  0.55457935091E+02 -0.80332113108E+03  0.84759133714E+03  0.26303275833E+03 0.  0.
         25    1    3    3    0    0 -0.28712726156E+02 -0.55457935091E+02 -0.53147593082E+03  0.54955816466E+03  0.12509000000E+03 0.  0.
         25    1    4    4    0    0  0.46245912235E+02  0.51132296247E+02 -0.46457173340E+03  0.48603250888E+03  0.12509000000E+03 0.  0.
         25    1    4    4    0    0 -0.17533186078E+02  0.43256388438E+01 -0.33874939768E+03  0.36155882826E+03  0.12509000000E+03 0.  0.
<mgrwt>
<rscale>  2 0.41272695E+03</rscale>
<asrwt>0</asrwt>
<pdfrwt beam="1">  1       21 0.45847387E-02 0.41272695E+03</pdfrwt>
<pdfrwt beam="2">  1       21 0.20087840E+00 0.41272695E+03</pdfrwt>
<totfact> 0.37213750E+04</totfact>
</mgrwt>
</event>
<event>
 7    0  0.4732500E-002  0.4550068E+03  0.7546771E-02  0.1026239E+00
         21   -1    0    0  502  501  0.00000000000E+00  0.00000000000E+00  0.10836125516E+03  0.10836125516E+03  0.00000000000E+00 0.  1.
         21   -1    0    0  501  502 -0.00000000000E+00 -0.00000000000E+00 -0.47764127657E+03  0.47764127657E+03  0.00000000000E+00 0.  1.
      99926    2    1    2    0    0  0.00000000000E+00  0.00000000000E+00 -0.36928002141E+03  0.58600253173E+03  0.45500684938E+03 0.  0.
      99925    2    3    3    0    0  0.56946913313E+02 -0.90268636951E+02 -0.18976693331E+03  0.34256088646E+03  0.26447134855E+03 0.  0.
         25    1    4    4    0    0  0.45586102015E+02 -0.34315483592E+02 -0.49474778907E+02  0.14611949548E+03  0.12509000000E+03 0.  0.
         25    1    4    4    0    0  0.11360811298E+02 -0.55953153359E+02 -0.14029215440E+03  0.19644139098E+03  0.12509000000E+03 0.  0.
         25    1    3    3    0    0 -0.56946913313E+02  0.90268636951E+02 -0.17951308810E+03  0.24344164527E+03  0.12509000000E+03 0.  0.
<mgrwt>
<rscale>  2 0.45500685E+03</rscale>
<asrwt>0</asrwt>
<pdfrwt beam="1">  1       21 0.15935479E-01 0.45500685E+03</pdfrwt>
<pdfrwt beam="2">  1       21 0.70241364E-01 0.45500685E+03</pdfrwt>
<totfact> 0.59545001E+04</totfact>
</mgrwt>
</event>
<event>
 7    0  0.4732500E-002  0.4562408E+03  0.7546771E-02  0.1025877E+00
         21   -1    0    0  502  501  0.00000000000E+00  0.00000000000E+00  0.20280406632E+03  0.20280406632E+03  0.00000000000E+00 0. -1.
         21   -1    0    0  501  502 -0.00000000000E+00 -0.00000000000E+00 -0.25659696015E+03  0.25659696015E+03  0.00000000000E+00 0. -1.
      99926    2    1    2    0    0 -0.71054273576E-14  0.71054273576E-14 -0.53792893828E+02  0.45940102646E+03  0.45624075628E+03 0.  0.
      99925    2    3    3    0    0  0.55815276289E+02 -0.58091599971E+02 -0.11545876028E+03  0.29834151498E+03  0.26303413311E+03 0.  0.
         25    1    3    3    0    0 -0.55815276289E+02  0.58091599971E+02  0.61665866454E+02  0.16105951149E+03  0.12509000000E+03 0.  0.
         25    1    4    4    0    0  0.10279328651E+02  0.16373864104E+01 -0.29303659555E+02  0.12889747164E+03  0.12509000000E+03 0.  0.
         25    1    4    4    0    0  0.45535947638E+02 -0.59728986381E+02 -0.86155100727E+02  0.16944404334E+03  0.12509000000E+03 0.  0.
<mgrwt>
<rscale>  2 0.45624076E+03</rscale>
<asrwt>0</asrwt>
<pdfrwt beam="1">  1       21 0.29824128E-01 0.45624076E+03</pdfrwt>
<pdfrwt beam="2">  1       21 0.37734847E-01 0.45624076E+03</pdfrwt>
<totfact> 0.67553260E+04</totfact>
</mgrwt>
</event>
<event>
 7    0  0.4732500E-002  0.4461207E+03  0.7546771E-02  0.1028885E+00
         21   -1    0    0  502  501  0.00000000000E+00  0.00000000000E+00  0.40170971184E+02  0.40170971184E+02  0.00000000000E+00 0. -1.
         21   -1    0    0  501  502 -0.00000000000E+00 -0.00000000000E+00 -0.12386039122E+04  0.12386039122E+04  0.00000000000E+00 0. -1.
      99926    2    1    2    0    0  0.35527136788E-14  0.00000000000E+00 -0.11984329411E+04  0.12787748834E+04  0.44612071042E+03 0.  0.
      99925    2    3    3    0    0  0.24924701369E+02 -0.88548033989E+02 -0.90327379252E+03  0.94526562399E+03  0.26298585625E+03 0.  0.
         25    1    4    4    0    0  0.13740269414E+02 -0.79655947968E+02 -0.56571376051E+03  0.58499011272E+03  0.12509000000E+03 0.  0.
         25    1    4    4    0    0  0.11184431955E+02 -0.88920860216E+01 -0.33756003201E+03  0.36027551127E+03  0.12509000000E+03 0.  0.
         25    1    3    3    0    0 -0.24924701369E+02  0.88548033989E+02 -0.29515914854E+03  0.33350925943E+03  0.12509000000E+03 0.  0.
<mgrwt>
<rscale>  2 0.44612071E+03</rscale>
<asrwt>0</asrwt>
<pdfrwt beam="1">  1       21 0.59074970E-02 0.44612071E+03</pdfrwt>
<pdfrwt beam="2">  1       21 0.18214759E+00 0.44612071E+03</pdfrwt>
<totfact> 0.31883386E+04</totfact>
</mgrwt>
</event>
<event>
 7    0  0.4732500E-002  0.4556850E+03  0.7546771E-02  0.1026040E+00
         21   -1    0    0  502  501  0.00000000000E+00  0.00000000000E+00  0.46161930968E+03  0.46161930968E+03  0.00000000000E+00 0. -1.
         21   -1    0    0  501  502 -0.00000000000E+00 -0.00000000000E+00 -0.11245675216E+03  0.11245675216E+03  0.00000000000E+00 0. -1.
      99926    2    1    2    0    0  0.00000000000E+00  0.14210854715E-13  0.34916255752E+03  0.57407606184E+03  0.45568501534E+03 0.  0.
      99925    2    3    3    0    0 -0.16265659194E+02 -0.11036523702E+03  0.24817435842E+03  0.37839473502E+03  0.26295818318E+03 0.  0.
         25    1    3    3    0    0  0.16265659194E+02  0.11036523702E+03  0.10098819910E+03  0.19568132683E+03  0.12509000000E+03 0.  0.
         25    1    4    4    0    0 -0.37396229775E+02 -0.30632681521E+02  0.96714385651E+02  0.16534212915E+03  0.12509000000E+03 0.  0.
         25    1    4    4    0    0  0.21130570581E+02 -0.79732555494E+02  0.15145997277E+03  0.21305260587E+03  0.12509000000E+03 0.  0.
<mgrwt>
<rscale>  2 0.45568502E+03</rscale>
<asrwt>0</asrwt>
<pdfrwt beam="1">  1       21 0.67885192E-01 0.45568502E+03</pdfrwt>
<pdfrwt beam="2">  1       21 0.16537758E-01 0.45568502E+03</pdfrwt>
<totfact> 0.59977496E+04</totfact>
</mgrwt>
</event>
<event>
 7    0  0.4732500E-002  0.4592210E+03  0.7546771E-02  0.1025007E+00
         21   -1    0    0  502  501  0.00000000000E+00  0.00000000000E+00  0.13943462192E+04  0.13943462192E+04  0.00000000000E+00 0. -1.
         21   -1    0    0  501  502 -0.00000000000E+00 -0.00000000000E+00 -0.37810540947E+02  0.37810540947E+02  0.00000000000E+00 0. -1.
      99926    2    1    2    0    0  0.00000000000E+00  0.35527136788E-14  0.13565356782E+04  0.14321567601E+04  0.45922101352E+03 0.  0.
      99925    2    3    3    0    0 -0.11420081537E+03 -0.24046369611E+02  0.83918657043E+03  0.88725524465E+03  0.26337751431E+03 0.  0.
         25    1    3    3    0    0  0.11420081537E+03  0.24046369611E+02  0.51734910779E+03  0.54490151546E+03  0.12509000000E+03 0.  0.
         25    1    4    4    0    0 -0.70894506783E+02 -0.37341034347E+02  0.53513040039E+03  0.55536693947E+03  0.12509000000E+03 0.  0.
         25    1    4    4    0    0 -0.43306308588E+02  0.13294664736E+02  0.30405617004E+03  0.33188830518E+03  0.12509000000E+03 0.  0.
<mgrwt>
<rscale>  2 0.45922101E+03</rscale>
<asrwt>0</asrwt>
<pdfrwt beam="1">  1       21 0.20505088E+00 0.45922101E+03</pdfrwt>
<pdfrwt beam="2">  1       21 0.55603746E-02 0.45922101E+03</pdfrwt>
<totfact> 0.24668527E+04</totfact>
</mgrwt>
</event>
<event>
 7    0  0.4732500E-002  0.4393165E+03  0.7546771E-02  0.1030957E+00
         21   -1    0    0  502  501  0.00000000000E+00  0.00000000000E+00  0.26661811356E+03  0.26661811356E+03  0.00000000000E+00 0.  1.
         21   -1    0    0  501  502 -0.00000000000E+00 -0.00000000000E+00 -0.18096953251E+03  0.18096953251E+03  0.00000000000E+00 0.  1.
      99926    2    1    2    0    0  0.00000000000E+00  0.17763568394E-14  0.85648581049E+02  0.44758764607E+03  0.43931653904E+03 0.  0.
      99925    2    3    3    0    0  0.19810913739E+02  0.10316624251E+02 -0.42267028362E+02  0.26728563202E+03  0.26297566876E+03 0.  0.
         25    1    4    4    0    0 -0.62550291218E+01 -0.84637637860E+01  0.14197278974E+02  0.12633222676E+03  0.12509000000E+03 0.  0.
         25    1    4    4    0    0  0.26065942860E+02  0.18780388037E+02 -0.56464307337E+02  0.14095340526E+03  0.12509000000E+03 0.  0.
         25    1    3    3    0    0 -0.19810913739E+02 -0.10316624251E+02  0.12791560941E+03  0.18030201405E+03  0.12509000000E+03 0.  0.
<mgrwt>
<rscale>  2 0.43931654E+03</rscale>
<asrwt>0</asrwt>
<pdfrwt beam="1">  1       21 0.39208546E-01 0.43931654E+03</pdfrwt>
<pdfrwt beam="2">  1       21 0.26613167E-01 0.43931654E+03</pdfrwt>
<totfact> 0.78453642E+04</totfact>
</mgrwt>
</event>
<event>
 7    0  0.4732500E-002  0.4591418E+03  0.7546771E-02  0.1025030E+00
         21   -1    0    0  502  501  0.00000000000E+00  0.00000000000E+00  0.78256107638E+03  0.78256107638E+03  0.00000000000E+00 0.  1.
         21   -1    0    0  501  502 -0.00000000000E+00 -0.00000000000E+00 -0.67346570812E+02  0.67346570812E+02  0.00000000000E+00 0.  1.
      99926    2    1    2    0    0  0.00000000000E+00  0.00000000000E+00  0.71521450557E+03  0.84990764720E+03  0.45914182970E+03 0.  0.
      99925    2    3    3    0    0  0.27013339037E+02  0.86798044726E+02  0.31274190879E+03  0.41875185132E+03  0.26321472303E+03 0.  0.
         25    1    3    3    0    0 -0.27013339037E+02 -0.86798044726E+02  0.40247259678E+03  0.43115579587E+03  0.12509000000E+03 0.  0.
         25    1    4    4    0    0  0.45781167022E+02  0.35813402920E+02  0.19327149719E+03  0.23744450890E+03  0.12509000000E+03 0.  0.
         25    1    4    4    0    0 -0.18767827985E+02  0.50984641805E+02  0.11947041160E+03  0.18130734242E+03  0.12509000000E+03 0.  0.
<mgrwt>
<rscale>  2 0.45914183E+03</rscale>
<asrwt>0</asrwt>
<pdfrwt beam="1">  1       21 0.11508251E+00 0.45914183E+03</pdfrwt>
<pdfrwt beam="2">  1       21 0.99039079E-02 0.45914183E+03</pdfrwt>
<totfact> 0.43996497E+04</totfact>
</mgrwt>
</event>
<event>
 7    0  0.4732500E-002  0.4479479E+03  0.7546771E-02  0.1028336E+00
         21   -1    0    0  502  501  0.00000000000E+00  0.00000000000E+00  0.10811122366E+04  0.10811122366E+04  0.00000000000E+00 0. -1.
         21   -1    0    0  501  502 -0.00000000000E+00 -0.00000000000E+00 -0.46400677487E+02  0.46400677487E+02  0.00000000000E+00 0. -1.
      99926    2    1    2    0    0  0.00000000000E+00 -0.71054273576E-14  0.10347115591E+04  0.11275129141E+04  0.44794794437E+03 0.  0.
      99925    2    3    3    0    0 -0.52242807284E+02 -0.51576591084E+02  0.46171693657E+03  0.53644625015E+03  0.26306385939E+03 0.  0.
         25    1    3    3    0    0  0.52242807284E+02  0.51576591084E+02  0.57299462252E+03  0.59106666392E+03  0.12509000000E+03 0.  0.
         25    1    4    4    0    0 -0.97001506800E+01 -0.53329680394E+02  0.18507189670E+03  0.22986357428E+03  0.12509000000E+03 0.  0.
         25    1    4    4    0    0 -0.42542656604E+02  0.17530893103E+01  0.27664503988E+03  0.30658267587E+03  0.12509000000E+03 0.  0.
<mgrwt>
<rscale>  2 0.44794794E+03</rscale>
<asrwt>0</asrwt>
<pdfrwt beam="1">  1       21 0.15898708E+00 0.44794794E+03</pdfrwt>
<pdfrwt beam="2">  1       21 0.68236297E-02 0.44794794E+03</pdfrwt>
<totfact> 0.36508196E+04</totfact>
</mgrwt>
</event>
<event>
 7    0  0.4732500E-002  0.4478257E+03  0.7546771E-02  0.1028372E+00
         21   -1    0    0  502  501  0.00000000000E+00  0.00000000000E+00  0.53998726447E+02  0.53998726447E+02  0.00000000000E+00 0. -1.
         21   -1    0    0  501  502 -0.00000000000E+00 -0.00000000000E+00 -0.92848426917E+03  0.92848426917E+03  0.00000000000E+00 0. -1.
      99926    2    1    2    0    0 -0.35527136788E-14  0.00000000000E+00 -0.87448554272E+03  0.98248299561E+03  0.44782571637E+03 0.  0.
      99925    2    3    3    0    0  0.18681111243E+02 -0.59292729819E+02 -0.74322604904E+03  0.79080312054E+03  0.26290683475E+03 0.  0.
         25    1    4    4    0    0 -0.14780381870E+02 -0.42930087465E+02 -0.28841902578E+03  0.31763893752E+03  0.12509000000E+03 0.  0.
         25    1    4    4    0    0  0.33461493113E+02 -0.16362642354E+02 -0.45480702326E+03  0.47316418302E+03  0.12509000000E+03 0.  0.
         25    1    3    3    0    0 -0.18681111243E+02  0.59292729819E+02 -0.13125949368E+03  0.19167987507E+03  0.12509000000E+03 0.  0.
<mgrwt>
<rscale>  2 0.44782572E+03</rscale>
<asrwt>0</asrwt>
<pdfrwt beam="1">  1       21 0.79409894E-02 0.44782572E+03</pdfrwt>
<pdfrwt beam="2">  1       21 0.13654180E+00 0.44782572E+03</pdfrwt>
<totfact> 0.42168023E+04</totfact>
</mgrwt>
</event>
<event>
 7    0  0.4732500E-002  0.4551197E+03  0.7546771E-02  0.1026206E+00
         21   -1    0    0  502  501  0.00000000000E+00  0.00000000000E+00  0.37770381457E+02  0.37770381457E+02  0.00000000000E+00 0.  1.
         21   -1    0    0  501  502 -0.00000000000E+00 -0.00000000000E+00 -0.13710078726E+04  0.13710078726E+04  0.00000000000E+00 0.  1.
      99926    2    1    2    0    0  0.00000000000E+00 -0.17763568394E-14 -0.13332374912E+04  0.14087782541E+04  0.45511972196E+03 0.  0.
      99925    2    3    3    0    0 -0.47238589089E+02  0.11738284411E+02 -0.11559908970E+04  0.11864426185E+04  0.26260590502E+03 0.  0.
         25    1    3    3    0    0  0.47238589089E+02 -0.11738284411E+02 -0.17724659418E+03  0.22233563562E+03  0.12509000000E+03 0.  0.
         25    1    4    4    0    0 -0.54742242183E+02 -0.10190027762E+02 -0.68643323572E+03  0.69995617359E+03  0.12509000000E+03 0.  0.
         25    1    4    4    0    0  0.75036530936E+01  0.21928312172E+02 -0.46955766129E+03  0.48648644489E+03  0.12509000000E+03 0.  0.
<mgrwt>
<rscale>  2 0.45511972E+03</rscale>
<asrwt>0</asrwt>
<pdfrwt beam="1">  1       21 0.55544673E-02 0.45511972E+03</pdfrwt>
<pdfrwt beam="2">  1       21 0.20161882E+00 0.45511972E+03</pdfrwt>
<totfact> 0.26074745E+04</totfact>
</mgrwt>
</event>
<event>
 7    0  0.4732500E-002  0.4532816E+03  0.7546771E-02  0.1026748E+00
         21   -1    0    0  502  501  0.00000000000E+00  0.00000000000E+00  0.13927478718E+04  0.13927478718E+04  0.00000000000E+00 0. -1.
         21   -1    0    0  501  502 -0.00000000000E+00 -0.00000000000E+00 -0.36881081713E+02  0.36881081713E+02  0.00000000000E+00 0. -1.
      99926    2    1    2    0    0  0.00000000000E+00  0.14210854715E-13  0.13558667901E+04  0.14296289535E+04  0.45328158165E+03 0.  0.
      99925    2    3    3    0    0  0.15699540809E+02  0.79164387457E+02  0.10973745019E+04  0.11313350599E+04  0.26301092084E+03 0.  0.
         25    1    4    4    0    0 -0.83642268119E+01  0.88447796686E+01  0.41469448071E+03  0.43332114056E+03  0.12509000000E+03 0.  0.
         25    1    3    3    0    0 -0.15699540809E+02 -0.79164387457E+02  0.25849228817E+03  0.29829389362E+03  0.12509000000E+03 0.  0.
         25    1    4    4    0    0  0.24063767621E+02  0.70319607788E+02  0.68268002122E+03  0.69801391937E+03  0.12509000000E+03 0.  0.
<mgrwt>
<rscale>  2 0.45328158E+03</rscale>
<asrwt>0</asrwt>
<pdfrwt beam="1">  1       21 0.20481583E+00 0.45328158E+03</pdfrwt>
<pdfrwt beam="2">  1       21 0.54236894E-02 0.45328158E+03</pdfrwt>
<totfact> 0.25897126E+04</totfact>
</mgrwt>
</event>
<event>
 7    0  0.4732500E-002  0.4461367E+03  0.7546771E-02  0.1028880E+00
         21   -1    0    0  502  501  0.00000000000E+00  0.00000000000E+00  0.24299130764E+03  0.24299130764E+03  0.00000000000E+00 0.  1.
         21   -1    0    0  501  502 -0.00000000000E+00 -0.00000000000E+00 -0.20477892610E+03  0.20477892610E+03  0.00000000000E+00 0.  1.
      99926    2    1    2    0    0  0.00000000000E+00  0.71054273576E-14  0.38212381541E+02  0.44777023374E+03  0.44613674599E+03 0.  0.
      99925    2    3    3    0    0  0.80187309688E+02 -0.63150240345E+02  0.47675403489E+02  0.28604511394E+03  0.26292756725E+03 0.  0.
         25    1    3    3    0    0 -0.80187309688E+02  0.63150240345E+02 -0.94630219477E+01  0.16172511980E+03  0.12509000000E+03 0.  0.
         25    1    4    4    0    0  0.36226352971E+02 -0.72237315954E+02  0.30830774672E+02  0.15208097591E+03  0.12509000000E+03 0.  0.
         25    1    4    4    0    0  0.43960956716E+02  0.90870756094E+01  0.16844628817E+02  0.13396413803E+03  0.12509000000E+03 0.  0.
<mgrwt>
<rscale>  2 0.44613675E+03</rscale>
<asrwt>0</asrwt>
<pdfrwt beam="1">  1       21 0.35734016E-01 0.44613675E+03</pdfrwt>
<pdfrwt beam="2">  1       21 0.30114548E-01 0.44613675E+03</pdfrwt>
<totfact> 0.74187903E+04</totfact>
</mgrwt>
</event>
<event>
 7    0  0.4732500E-002  0.4463711E+03  0.7546771E-02  0.1028810E+00
         21   -1    0    0  502  501  0.00000000000E+00  0.00000000000E+00  0.29773908683E+02  0.29773908683E+02  0.00000000000E+00 0. -1.
         21   -1    0    0  501  502 -0.00000000000E+00 -0.00000000000E+00 -0.16730011763E+04  0.16730011763E+04  0.00000000000E+00 0. -1.
      99926    2    1    2    0    0  0.00000000000E+00 -0.26645352591E-14 -0.16432272676E+04  0.17027750850E+04  0.44637107545E+03 0.  0.
      99925    2    3    3    0    0  0.86549235709E+02  0.58779273669E+01 -0.12671722345E+04  0.12970778872E+04  0.26298337100E+03 0.  0.
         25    1    3    3    0    0 -0.86549235709E+02 -0.58779273669E+01 -0.37605503315E+03  0.40569719779E+03  0.12509000000E+03 0.  0.
         25    1    4    4    0    0  0.42702665982E+01  0.17066786398E+02 -0.54199657562E+03  0.55652251208E+03  0.12509000000E+03 0.  0.
         25    1    4    4    0    0  0.82278969111E+02 -0.11188859031E+02 -0.72517565884E+03  0.74055537510E+03  0.12509000000E+03 0.  0.
<mgrwt>
<rscale>  2 0.44637108E+03</rscale>
<asrwt>0</asrwt>
<pdfrwt beam="1">  1       21 0.43785142E-02 0.44637108E+03</pdfrwt>
<pdfrwt beam="2">  1       21 0.24602969E+00 0.44637108E+03</pdfrwt>
<totfact> 0.20546453E+04</totfact>
</mgrwt>
</event>
<event>
 7    0  0.4732500E-002  0.4555648E+03  0.7546771E-02  0.1026075E+00
         21   -1    0    0  502  501  0.00000000000E+00  0.00000000000E+00  0.12782594071E+03  0.12782594071E+03  0.00000000000E+00 0.  1.
         21   -1    0    0  501  502 -0.00000000000E+00 -0.00000000000E+00 -0.40590213146E+03  0.40590213146E+03  0.00000000000E+00 0.  1.
      99926    2    1    2    0    0 -0.71054273576E-14  0.14210854715E-13 -0.27807619075E+03  0.53372807217E+03  0.45556480018E+03 0.  0.
      99925    2    3    3    0    0  0.42255993769E+02 -0.10271053119E+03 -0.20394395789E+03  0.35075780608E+03  0.26287426336E+03 0.  0.
         25    1    3    3    0    0 -0.42255993769E+02  0.10271053119E+03 -0.74132232861E+02  0.18297026610E+03  0.12509000000E+03 0.  0.
         25    1    4    4    0    0 -0.16019364830E+01 -0.27170408928E+02 -0.61475343381E+02  0.14201240532E+03  0.12509000000E+03 0.  0.
         25    1    4    4    0    0  0.43857930252E+02 -0.75540122259E+02 -0.14246861451E+03  0.20874540076E+03  0.12509000000E+03 0.  0.
<mgrwt>
<rscale>  2 0.45556480E+03</rscale>
<asrwt>0</asrwt>
<pdfrwt beam="1">  1       21 0.18797932E-01 0.45556480E+03</pdfrwt>
<pdfrwt beam="2">  1       21 0.59691490E-01 0.45556480E+03</pdfrwt>
<totfact> 0.62673792E+04</totfact>
</mgrwt>
</event>
<event>
 7    0  0.4732500E-002  0.4539451E+03  0.7546771E-02  0.1026552E+00
         21   -1    0    0  502  501  0.00000000000E+00  0.00000000000E+00  0.88417555539E+03  0.88417555539E+03  0.00000000000E+00 0.  1.
         21   -1    0    0  501  502 -0.00000000000E+00 -0.00000000000E+00 -0.58265047171E+02  0.58265047171E+02  0.00000000000E+00 0.  1.
      99926    2    1    2    0    0 -0.14210854715E-13 -0.88817841970E-15  0.82591050822E+03  0.94244060256E+03  0.45394506470E+03 0.  0.
      99925    2    3    3    0    0 -0.96993989627E+02 -0.64507489932E+01  0.40410542473E+03  0.49186709830E+03  0.26302585787E+03 0.  0.
         25    1    4    4    0    0 -0.87724741180E+02 -0.20440500674E+02  0.21722245517E+03  0.26635793101E+03  0.12509000000E+03 0.  0.
         25    1    3    3    0    0  0.96993989627E+02  0.64507489932E+01  0.42180508348E+03  0.45057350426E+03  0.12509000000E+03 0.  0.
         25    1    4    4    0    0 -0.92692484469E+01  0.13989751681E+02  0.18688296956E+03  0.22550916729E+03  0.12509000000E+03 0.  0.
<mgrwt>
<rscale>  2 0.45394506E+03</rscale>
<asrwt>0</asrwt>
<pdfrwt beam="1">  1       21 0.13002581E+00 0.45394506E+03</pdfrwt>
<pdfrwt beam="2">  1       21 0.85683898E-02 0.45394506E+03</pdfrwt>
<totfact> 0.41792150E+04</totfact>
</mgrwt>
</event>
<event>
 7    0  0.4732500E-002  0.4588008E+03  0.7546771E-02  0.1025130E+00
         21   -1    0    0  502  501  0.00000000000E+00  0.00000000000E+00  0.51917436613E+02  0.51917436613E+02  0.00000000000E+00 0.  1.
         21   -1    0    0  501  502 -0.00000000000E+00 -0.00000000000E+00 -0.10136199849E+04  0.10136199849E+04  0.00000000000E+00 0.  1.
      99926    2    1    2    0    0  0.00000000000E+00  0.00000000000E+00 -0.96170254825E+03  0.10655374215E+04  0.45880083397E+03 0.  0.
      99925    2    3    3    0    0 -0.10663818020E+03 -0.40959544872E+02 -0.65868653179E+03  0.71838385298E+03  0.26297913845E+03 0.  0.
         25    1    4    4    0    0 -0.45585237692E+02  0.24015295005E+01 -0.23226275625E+03  0.26772612364E+03  0.12509000000E+03 0.  0.
         25    1    3    3    0    0  0.10663818020E+03  0.40959544872E+02 -0.30301601645E+03  0.34715356850E+03  0.12509000000E+03 0.  0.
         25    1    4    4    0    0 -0.61052942508E+02 -0.43361074373E+02 -0.42642377555E+03  0.45065772934E+03  0.12509000000E+03 0.  0.
<mgrwt>
<rscale>  2 0.45880083E+03</rscale>
<asrwt>0</asrwt>
<pdfrwt beam="1">  1       21 0.76349171E-02 0.45880083E+03</pdfrwt>
<pdfrwt beam="2">  1       21 0.14906176E+00 0.45880083E+03</pdfrwt>
<totfact> 0.35643354E+04</totfact>
</mgrwt>
</event>
<event>
 7    0  0.4732500E-002  0.4427386E+03  0.7546771E-02  0.1029910E+00
         21   -1    0    0  502  501  0.00000000000E+00  0.00000000000E+00  0.31064675292E+03  0.31064675292E+03  0.00000000000E+00 0.  1.
         21   -1    0    0  501  502 -0.00000000000E+00 -0.00000000000E+00 -0.15774949940E+03  0.15774949940E+03  0.00000000000E+00 0.  1.
      99926    2    1    2    0    0  0.00000000000E+00 -0.71054273576E-14  0.15289725352E+03  0.46839625231E+03  0.44273861255E+03 0.  0.
      99925    2    3    3    0    0  0.47629389563E+02 -0.60751127781E+02  0.28215599923E+02  0.27564698222E+03  0.26310811552E+03 0.  0.
         25    1    3    3    0    0 -0.47629389563E+02  0.60751127781E+02  0.12468165360E+03  0.19274927009E+03  0.12509000000E+03 0.  0.
         25    1    4    4    0    0  0.23822667459E+02 -0.69863397752E+02  0.16625830446E+01  0.14525386781E+03  0.12509000000E+03 0.  0.
         25    1    4    4    0    0  0.23806722104E+02  0.91122699708E+01  0.26553016878E+02  0.13039311441E+03  0.12509000000E+03 0.  0.
<mgrwt>
<rscale>  2 0.44273861E+03</rscale>
<asrwt>0</asrwt>
<pdfrwt beam="1">  1       21 0.45683346E-01 0.44273861E+03</pdfrwt>
<pdfrwt beam="2">  1       21 0.23198456E-01 0.44273861E+03</pdfrwt>
<totfact> 0.74549205E+04</totfact>
</mgrwt>
</event>
<event>
 7    0  0.4732500E-002  0.4546792E+03  0.7546771E-02  0.1026336E+00
         21   -1    0    0  502  501  0.00000000000E+00  0.00000000000E+00  0.82382536238E+02  0.82382536238E+02  0.00000000000E+00 0.  1.
         21   -1    0    0  501  502 -0.00000000000E+00 -0.00000000000E+00 -0.62735733380E+03  0.62735733380E+03  0.00000000000E+00 0.  1.
      99926    2    1    2    0    0  0.00000000000E+00  0.00000000000E+00 -0.54497479756E+03  0.70973987004E+03  0.45467917606E+03 0.  0.
      99925    2    3    3    0    0  0.35604823400E+02  0.44699878068E+02 -0.49498822814E+03  0.56341165071E+03  0.26297064401E+03 0.  0.
         25    1    4    4    0    0  0.28347319315E+02  0.13664787136E+02 -0.16756704832E+03  0.21146281163E+03  0.12509000000E+03 0.  0.
         25    1    4    4    0    0  0.72575040854E+01  0.31035090932E+02 -0.32742117982E+03  0.35194883908E+03  0.12509000000E+03 0.  0.
         25    1    3    3    0    0 -0.35604823400E+02 -0.44699878068E+02 -0.49986569419E+02  0.14632821933E+03  0.12509000000E+03 0.  0.
<mgrwt>
<rscale>  2 0.45467918E+03</rscale>
<asrwt>0</asrwt>
<pdfrwt beam="1">  1       21 0.12115078E-01 0.45467918E+03</pdfrwt>
<pdfrwt beam="2">  1       21 0.92258436E-01 0.45467918E+03</pdfrwt>
<totfact> 0.52509759E+04</totfact>
</mgrwt>
</event>
<event>
 7    0  0.4732500E-002  0.4265913E+03  0.7546771E-02  0.1034942E+00
         21   -1    0    0  502  501  0.00000000000E+00  0.00000000000E+00  0.16573289876E+04  0.16573289876E+04  0.00000000000E+00 0.  1.
         21   -1    0    0  501  502 -0.00000000000E+00 -0.00000000000E+00 -0.27450812622E+02  0.27450812622E+02  0.00000000000E+00 0.  1.
      99926    2    1    2    0    0  0.14210854715E-13  0.35527136788E-14  0.16298781750E+04  0.16847798002E+04  0.42659126804E+03 0.  0.
      99925    2    3    3    0    0 -0.78648647410E+02  0.27655503925E+02  0.10199723632E+04  0.10566213457E+04  0.26297264093E+03 0.  0.
         25    1    4    4    0    0 -0.65085204429E+02 -0.17411048203E+02  0.54243326458E+03  0.56073218478E+03  0.12509000000E+03 0.  0.
         25    1    4    4    0    0 -0.13563442980E+02  0.45066552128E+02  0.47753909865E+03  0.49588916095E+03  0.12509000000E+03 0.  0.
         25    1    3    3    0    0  0.78648647410E+02 -0.27655503925E+02  0.60990581177E+03  0.62815845450E+03  0.12509000000E+03 0.  0.
<mgrwt>
<rscale>  2 0.42659127E+03</rscale>
<asrwt>0</asrwt>
<pdfrwt beam="1">  1       21 0.24372478E+00 0.42659127E+03</pdfrwt>
<pdfrwt beam="2">  1       21 0.40368853E-02 0.42659127E+03</pdfrwt>
<totfact> 0.24568180E+04</totfact>
</mgrwt>
</event>
<event>
 7    0  0.4732500E-002  0.4554208E+03  0.7546771E-02  0.1026118E+00
         21   -1    0    0  502  501  0.00000000000E+00  0.00000000000E+00  0.16154040790E+03  0.16154040790E+03  0.00000000000E+00 0.  1.
         21   -1    0    0  501  502 -0.00000000000E+00 -0.00000000000E+00 -0.32098491215E+03  0.32098491215E+03  0.00000000000E+00 0.  1.
      99926    2    1    2    0    0  0.14210854715E-13  0.00000000000E+00 -0.15944450425E+03  0.48252532005E+03  0.45542083237E+03 0.  0.
      99925    2    3    3    0    0 -0.75026276323E+02  0.84019755076E+02 -0.85390631954E+02  0.29862386415E+03  0.26305206867E+03 0.  0.
         25    1    4    4    0    0 -0.51988845212E+02  0.42707905674E+01 -0.49307331565E+02  0.14422136015E+03  0.12509000000E+03 0.  0.
         25    1    3    3    0    0  0.75026276323E+02 -0.84019755076E+02 -0.74053872299E+02  0.18390145591E+03  0.12509000000E+03 0.  0.
         25    1    4    4    0    0 -0.23037431112E+02  0.79748964508E+02 -0.36083300389E+02  0.15440250399E+03  0.12509000000E+03 0.  0.
<mgrwt>
<rscale>  2 0.45542083E+03</rscale>
<asrwt>0</asrwt>
<pdfrwt beam="1">  1       21 0.23755943E-01 0.45542083E+03</pdfrwt>
<pdfrwt beam="2">  1       21 0.47203663E-01 0.45542083E+03</pdfrwt>
<totfact> 0.66294994E+04</totfact>
</mgrwt>
</event>
<event>
 7    0  0.4732500E-002  0.4415479E+03  0.7546771E-02  0.1030273E+00
         21   -1    0    0  502  501  0.00000000000E+00  0.00000000000E+00  0.15553924842E+03  0.15553924842E+03  0.00000000000E+00 0. -1.
         21   -1    0    0  501  502 -0.00000000000E+00 -0.00000000000E+00 -0.31336876941E+03  0.31336876941E+03  0.00000000000E+00 0. -1.
      99926    2    1    2    0    0  0.17763568394E-14  0.00000000000E+00 -0.15782952099E+03  0.46890801784E+03  0.44154792661E+03 0.  0.
      99925    2    3    3    0    0  0.12060572732E+02  0.74236404197E+02 -0.30561772382E+02  0.27525603861E+03  0.26301209808E+03 0.  0.
         25    1    3    3    0    0 -0.12060572732E+02 -0.74236404197E+02 -0.12726774861E+03  0.19365197923E+03  0.12509000000E+03 0.  0.
         25    1    4    4    0    0 -0.10119439327E+02  0.64019233464E+02  0.10705005506E+02  0.14129037670E+03  0.12509000000E+03 0.  0.
         25    1    4    4    0    0  0.22180012059E+02  0.10217170733E+02 -0.41266777888E+02  0.13396566191E+03  0.12509000000E+03 0.  0.
<mgrwt>
<rscale>  2 0.44154793E+03</rscale>
<asrwt>0</asrwt>
<pdfrwt beam="1">  1       21 0.22873419E-01 0.44154793E+03</pdfrwt>
<pdfrwt beam="2">  1       21 0.46083642E-01 0.44154793E+03</pdfrwt>
<totfact> 0.75233629E+04</totfact>
</mgrwt>
</event>
<event>
 7    0  0.4732500E-002  0.4573096E+03  0.7546771E-02  0.1025564E+00
         21   -1    0    0  502  501  0.00000000000E+00  0.00000000000E+00  0.10929988154E+03  0.10929988154E+03  0.00000000000E+00 0. -1.
         21   -1    0    0  501  502 -0.00000000000E+00 -0.00000000000E+00 -0.47834461690E+03  0.47834461690E+03  0.00000000000E+00 0. -1.
      99926    2    1    2    0    0  0.00000000000E+00  0.22204460493E-14 -0.36904473537E+03  0.58764449844E+03  0.45730956675E+03 0.  0.
      99925    2    3    3    0    0 -0.11031714548E+03 -0.36713778031E+01 -0.27456774553E+03  0.39592396926E+03  0.26303039928E+03 0.  0.
         25    1    3    3    0    0  0.11031714548E+03  0.36713778031E+01 -0.94476989833E+02  0.19172052918E+03  0.12509000000E+03 0.  0.
         25    1    4    4    0    0 -0.60708948298E+02 -0.20892613764E+02 -0.90308074363E+02  0.16710815093E+03  0.12509000000E+03 0.  0.
         25    1    4    4    0    0 -0.49608197179E+02  0.17221235961E+02 -0.18425967117E+03  0.22881581832E+03  0.12509000000E+03 0.  0.
<mgrwt>
<rscale>  2 0.45730957E+03</rscale>
<asrwt>0</asrwt>
<pdfrwt beam="1">  1       21 0.16073512E-01 0.45730957E+03</pdfrwt>
<pdfrwt beam="2">  1       21 0.70344796E-01 0.45730957E+03</pdfrwt>
<totfact> 0.58372385E+04</totfact>
</mgrwt>
</event>
<event>
 7    0  0.4732500E-002  0.4640748E+03  0.7546771E-02  0.1023606E+00
         21   -1    0    0  502  501  0.00000000000E+00  0.00000000000E+00  0.11000058865E+04  0.11000058865E+04  0.00000000000E+00 0. -1.
         21   -1    0    0  501  502 -0.00000000000E+00 -0.00000000000E+00 -0.48946432274E+02  0.48946432274E+02  0.00000000000E+00 0. -1.
      99926    2    1    2    0    0 -0.35527136788E-14  0.00000000000E+00  0.10510594543E+04  0.11489523188E+04  0.46407483718E+03 0.  0.
      99925    2    3    3    0    0  0.30551129206E+02 -0.11608453368E+03  0.70215748155E+03  0.75935113154E+03  0.26302095283E+03 0.  0.
         25    1    3    3    0    0 -0.30551129206E+02  0.11608453368E+03  0.34890197271E+03  0.38960118726E+03  0.12509000000E+03 0.  0.
         25    1    4    4    0    0  0.25732823077E+02 -0.10136925887E+03  0.39130169307E+03  0.42391323160E+03  0.12509000000E+03 0.  0.
         25    1    4    4    0    0  0.48183061292E+01 -0.14715274805E+02  0.31085578847E+03  0.33543789994E+03  0.12509000000E+03 0.  0.
<mgrwt>
<rscale>  2 0.46407484E+03</rscale>
<asrwt>0</asrwt>
<pdfrwt beam="1">  1       21 0.16176556E+00 0.46407484E+03</pdfrwt>
<pdfrwt beam="2">  1       21 0.71980054E-02 0.46407484E+03</pdfrwt>
<totfact> 0.31527763E+04</totfact>
</mgrwt>
</event>
<event>
 7    0  0.4732500E-002  0.4545065E+03  0.7546771E-02  0.1026387E+00
         21   -1    0    0  502  501  0.00000000000E+00  0.00000000000E+00  0.15095800018E+03  0.15095800018E+03  0.00000000000E+00 0. -1.
         21   -1    0    0  501  502 -0.00000000000E+00 -0.00000000000E+00 -0.34210864196E+03  0.34210864196E+03  0.00000000000E+00 0. -1.
      99926    2    1    2    0    0  0.00000000000E+00  0.00000000000E+00 -0.19115064177E+03  0.49306664214E+03  0.45450648592E+03 0.  0.
      99925    2    3    3    0    0 -0.98041384063E+02 -0.45230185254E+02 -0.84259069577E+02  0.29626420579E+03  0.26270707296E+03 0.  0.
         25    1    4    4    0    0 -0.34435501306E+02 -0.16704116921E+02 -0.79305332705E+02  0.15297606077E+03  0.12509000000E+03 0.  0.
         25    1    4    4    0    0 -0.63605882756E+02 -0.28526068333E+02 -0.49537368716E+01  0.14328814503E+03  0.12509000000E+03 0.  0.
         25    1    3    3    0    0  0.98041384063E+02  0.45230185254E+02 -0.10689157220E+03  0.19680243635E+03  0.12509000000E+03 0.  0.
<mgrwt>
<rscale>  2 0.45450649E+03</rscale>
<asrwt>0</asrwt>
<pdfrwt beam="1">  1       21 0.22199706E-01 0.45450649E+03</pdfrwt>
<pdfrwt beam="2">  1       21 0.50310095E-01 0.45450649E+03</pdfrwt>
<totfact> 0.66018813E+04</totfact>
</mgrwt>
</event>
<event>
 7    0  0.4732500E-002  0.4551945E+03  0.7546771E-02  0.1026184E+00
         21   -1    0    0  502  501  0.00000000000E+00  0.00000000000E+00  0.43608856706E+03  0.43608856706E+03  0.00000000000E+00 0. -1.
         21   -1    0    0  501  502 -0.00000000000E+00 -0.00000000000E+00 -0.11878437580E+03  0.11878437580E+03  0.00000000000E+00 0. -1.
      99926    2    1    2    0    0  0.00000000000E+00  0.00000000000E+00  0.31730419126E+03  0.55487294286E+03  0.45519450011E+03 0.  0.
      99925    2    3    3    0    0  0.67989177665E+02  0.85398049830E+02  0.23683288340E+03  0.37037769988E+03  0.26301040039E+03 0.  0.
         25    1    4    4    0    0  0.46398488765E+01  0.51781234422E+02  0.79945627528E+02  0.15729474211E+03  0.12509000000E+03 0.  0.
         25    1    4    4    0    0  0.63349328788E+02  0.33616815407E+02  0.15688725587E+03  0.21308295777E+03  0.12509000000E+03 0.  0.
         25    1    3    3    0    0 -0.67989177665E+02 -0.85398049830E+02  0.80471307864E+02  0.18449524298E+03  0.12509000000E+03 0.  0.
<mgrwt>
<rscale>  2 0.45519450E+03</rscale>
<asrwt>0</asrwt>
<pdfrwt beam="1">  1       21 0.64130671E-01 0.45519450E+03</pdfrwt>
<pdfrwt beam="2">  1       21 0.17468291E-01 0.45519450E+03</pdfrwt>
<totfact> 0.61451040E+04</totfact>
</mgrwt>
</event>
<event>
 7    0  0.4732500E-002  0.4529822E+03  0.7546771E-02  0.1026836E+00
         21   -1    0    0  502  501  0.00000000000E+00  0.00000000000E+00  0.50902222506E+03  0.50902222506E+03  0.00000000000E+00 0. -1.
         21   -1    0    0  501  502 -0.00000000000E+00 -0.00000000000E+00 -0.10077794766E+03  0.10077794766E+03  0.00000000000E+00 0. -1.
      99926    2    1    2    0    0  0.00000000000E+00 -0.44408920985E-15  0.40824427741E+03  0.60980017272E+03  0.45298218575E+03 0.  0.
      99925    2    3    3    0    0  0.10001918076E+03 -0.38151793991E+01  0.19141895908E+03  0.34020952214E+03  0.26283627783E+03 0.  0.
         25    1    3    3    0    0 -0.10001918076E+03  0.38151793991E+01  0.21682531833E+03  0.26959065058E+03  0.12509000000E+03 0.  0.
         25    1    4    4    0    0  0.57481800602E+02 -0.11779541772E+02  0.51109413062E+02  0.14731800707E+03  0.12509000000E+03 0.  0.
         25    1    4    4    0    0  0.42537380158E+02  0.79643623726E+01  0.14030954602E+03  0.19289151506E+03  0.12509000000E+03 0.  0.
<mgrwt>
<rscale>  2 0.45298219E+03</rscale>
<asrwt>0</asrwt>
<pdfrwt beam="1">  1       21 0.74856209E-01 0.45298219E+03</pdfrwt>
<pdfrwt beam="2">  1       21 0.14820287E-01 0.45298219E+03</pdfrwt>
<totfact> 0.59014048E+04</totfact>
</mgrwt>
</event>
<event>
 7    0  0.4732500E-002  0.4565969E+03  0.7546771E-02  0.1025773E+00
         21   -1    0    0  502  501  0.00000000000E+00  0.00000000000E+00  0.16166906084E+03  0.16166906084E+03  0.00000000000E+00 0. -1.
         21   -1    0    0  501  502 -0.00000000000E+00 -0.00000000000E+00 -0.32238810466E+03  0.32238810466E+03  0.00000000000E+00 0. -1.
      99926    2    1    2    0    0  0.71054273576E-14  0.00000000000E+00 -0.16071904382E+03  0.48405716551E+03  0.45659689928E+03 0.  0.
      99925    2    3    3    0    0 -0.32378111531E+02 -0.10745917997E+03 -0.12572999367E+03  0.31239598994E+03  0.26303498960E+03 0.  0.
         25    1    3    3    0    0  0.32378111531E+02  0.10745917997E+03 -0.34989050148E+02  0.17166117557E+03  0.12509000000E+03 0.  0.
         25    1    4    4    0    0 -0.40335876094E+01 -0.24417129585E+02 -0.26599616387E+02  0.13025940940E+03  0.12509000000E+03 0.  0.
         25    1    4    4    0    0 -0.28344523921E+02 -0.83042050388E+02 -0.99130377284E+02  0.18213658054E+03  0.12509000000E+03 0.  0.
<mgrwt>
<rscale>  2 0.45659690E+03</rscale>
<asrwt>0</asrwt>
<pdfrwt beam="1">  1       21 0.23774862E-01 0.45659690E+03</pdfrwt>
<pdfrwt beam="2">  1       21 0.47410015E-01 0.45659690E+03</pdfrwt>
<totfact> 0.65570789E+04</totfact>
</mgrwt>
</event>
<event>
 7    0  0.4732500E-002  0.4562532E+03  0.7546771E-02  0.1025874E+00
         21   -1    0    0  502  501  0.00000000000E+00  0.00000000000E+00  0.72523470429E+02  0.72523470429E+02  0.00000000000E+00 0.  1.
         21   -1    0    0  501  502 -0.00000000000E+00 -0.00000000000E+00 -0.71758482384E+03  0.71758482384E+03  0.00000000000E+00 0.  1.
      99926    2    1    2    0    0  0.00000000000E+00  0.00000000000E+00 -0.64506135341E+03  0.79010829427E+03  0.45625318301E+03 0.  0.
      99925    2    3    3    0    0  0.60942626391E+02 -0.76564404907E+02 -0.30291596907E+03  0.41289869214E+03  0.26296603174E+03 0.  0.
         25    1    3    3    0    0 -0.60942626391E+02  0.76564404907E+02 -0.34214538434E+03  0.37720960213E+03  0.12509000000E+03 0.  0.
         25    1    4    4    0    0  0.14557348629E+02 -0.74840869363E+02 -0.17268675326E+03  0.22645373694E+03  0.12509000000E+03 0.  0.
         25    1    4    4    0    0  0.46385277762E+02 -0.17235355441E+01 -0.13022921581E+03  0.18644495520E+03  0.12509000000E+03 0.  0.
<mgrwt>
<rscale>  2 0.45625318E+03</rscale>
<asrwt>0</asrwt>
<pdfrwt beam="1">  1       21 0.10665216E-01 0.45625318E+03</pdfrwt>
<pdfrwt beam="2">  1       21 0.10552718E+00 0.45625318E+03</pdfrwt>
<totfact> 0.47775369E+04</totfact>
</mgrwt>
</event>
<event>
 7    0  0.4732500E-002  0.4539698E+03  0.7546771E-02  0.1026545E+00
         21   -1    0    0  502  501  0.00000000000E+00  0.00000000000E+00  0.13442347479E+04  0.13442347479E+04  0.00000000000E+00 0.  1.
         21   -1    0    0  501  502 -0.00000000000E+00 -0.00000000000E+00 -0.38328242211E+02  0.38328242211E+02  0.00000000000E+00 0.  1.
      99926    2    1    2    0    0  0.00000000000E+00  0.00000000000E+00  0.13059065057E+04  0.13825629901E+04  0.45396984484E+03 0.  0.
      99925    2    3    3    0    0 -0.53245197546E+02 -0.94924029363E+02  0.73969946661E+03  0.79257693806E+03  0.26301573989E+03 0.  0.
         25    1    4    4    0    0 -0.43396151455E+02 -0.16063019054E+02  0.29282950627E+03  0.32177301687E+03  0.12509000000E+03 0.  0.
         25    1    3    3    0    0  0.53245197546E+02  0.94924029363E+02  0.56620703910E+03  0.58998605207E+03  0.12509000000E+03 0.  0.
         25    1    4    4    0    0 -0.98490460909E+01 -0.78861010309E+02  0.44686996034E+03  0.47080392119E+03  0.12509000000E+03 0.  0.
<mgrwt>
<rscale>  2 0.45396984E+03</rscale>
<asrwt>0</asrwt>
<pdfrwt beam="1">  1       21 0.19768155E+00 0.45396984E+03</pdfrwt>
<pdfrwt beam="2">  1       21 0.56365071E-02 0.45396984E+03</pdfrwt>
<totfact> 0.27016053E+04</totfact>
</mgrwt>
</event>
<event>
 7    0  0.4732500E-002  0.4578761E+03  0.7546771E-02  0.1025399E+00
         21   -1    0    0  502  501  0.00000000000E+00  0.00000000000E+00  0.82383093935E+03  0.82383093935E+03  0.00000000000E+00 0. -1.
         21   -1    0    0  501  502 -0.00000000000E+00 -0.00000000000E+00 -0.63620620641E+02  0.63620620641E+02  0.00000000000E+00 0. -1.
      99926    2    1    2    0    0 -0.26645352591E-14  0.00000000000E+00  0.76021031871E+03  0.88745155999E+03  0.45787612152E+03 0.  0.
      99925    2    3    3    0    0 -0.66500427076E+01  0.61277267376E+02  0.66715730957E+03  0.71980461795E+03  0.26309824353E+03 0.  0.
         25    1    3    3    0    0  0.66500427076E+01 -0.61277267376E+02  0.93053009142E+02  0.16764694204E+03  0.12509000000E+03 0.  0.
         25    1    4    4    0    0  0.34828843578E+02  0.43152814381E+02  0.35690293257E+03  0.38223346937E+03  0.12509000000E+03 0.  0.
         25    1    4    4    0    0 -0.41478886286E+02  0.18124452995E+02  0.31025437700E+03  0.33757114858E+03  0.12509000000E+03 0.  0.
<mgrwt>
<rscale>  2 0.45787612E+03</rscale>
<asrwt>0</asrwt>
<pdfrwt beam="1">  1       21 0.12115160E+00 0.45787612E+03</pdfrwt>
<pdfrwt beam="2">  1       21 0.93559741E-02 0.45787612E+03</pdfrwt>
<totfact> 0.42808357E+04</totfact>
</mgrwt>
</event>
<event>
 7    0  0.4732500E-002  0.4591417E+03  0.7546771E-02  0.1025030E+00
         21   -1    0    0  502  501  0.00000000000E+00  0.00000000000E+00  0.95099071818E+02  0.95099071818E+02  0.00000000000E+00 0. -1.
         21   -1    0    0  501  502 -0.00000000000E+00 -0.00000000000E+00 -0.55418799921E+03  0.55418799921E+03  0.00000000000E+00 0. -1.
      99926    2    1    2    0    0  0.17763568394E-14  0.00000000000E+00 -0.45908892740E+03  0.64928707103E+03  0.45914165282E+03 0.  0.
      99925    2    3    3    0    0 -0.68509141793E+01  0.10794037059E+03 -0.22497663818E+03  0.36266165226E+03  0.26307969831E+03 0.  0.
         25    1    4    4    0    0 -0.24302722787E+02  0.60285144125E+02 -0.70838225681E+02  0.15776718054E+03  0.12509000000E+03 0.  0.
         25    1    3    3    0    0  0.68509141793E+01 -0.10794037059E+03 -0.23411228921E+03  0.28662541878E+03  0.12509000000E+03 0.  0.
         25    1    4    4    0    0  0.17451808608E+02  0.47655226460E+02 -0.15413841250E+03  0.20489447172E+03  0.12509000000E+03 0.  0.
<mgrwt>
<rscale>  2 0.45914165E+03</rscale>
<asrwt>0</asrwt>
<pdfrwt beam="1">  1       21 0.13985157E-01 0.45914165E+03</pdfrwt>
<pdfrwt beam="2">  1       21 0.81498236E-01 0.45914165E+03</pdfrwt>
<totfact> 0.53957764E+04</totfact>
</mgrwt>
</event>
<event>
 7    0  0.4732500E-002  0.4519620E+03  0.7546771E-02  0.1027139E+00
         21   -1    0    0  502  501  0.00000000000E+00  0.00000000000E+00  0.60625298698E+03  0.60625298698E+03  0.00000000000E+00 0. -1.
         21   -1    0    0  501  502 -0.00000000000E+00 -0.00000000000E+00 -0.84234491802E+02  0.84234491802E+02  0.00000000000E+00 0. -1.
      99926    2    1    2    0    0  0.00000000000E+00 -0.35527136788E-14  0.52201849518E+03  0.69048747878E+03  0.45196199956E+03 0.  0.
      99925    2    3    3    0    0 -0.49187832779E+02 -0.19121866844E+02  0.18135717521E+03  0.32376860593E+03  0.26296501003E+03 0.  0.
         25    1    4    4    0    0  0.51010248922E+01 -0.22616175885E+02  0.57852680291E+02  0.13975676221E+03  0.12509000000E+03 0.  0.
         25    1    3    3    0    0  0.49187832779E+02  0.19121866844E+02  0.34066131996E+03  0.36671887285E+03  0.12509000000E+03 0.  0.
         25    1    4    4    0    0 -0.54288857672E+02  0.34943090411E+01  0.12350449492E+03  0.18401184372E+03  0.12509000000E+03 0.  0.
<mgrwt>
<rscale>  2 0.45196200E+03</rscale>
<asrwt>0</asrwt>
<pdfrwt beam="1">  1       21 0.89154849E-01 0.45196200E+03</pdfrwt>
<pdfrwt beam="2">  1       21 0.12387426E-01 0.45196200E+03</pdfrwt>
<totfact> 0.54719463E+04</totfact>
</mgrwt>
</event>
<event>
 7    0  0.4732500E-002  0.4510709E+03  0.7546771E-02  0.1027403E+00
         21   -1    0    0  502  501  0.00000000000E+00  0.00000000000E+00  0.12336625266E+03  0.12336625266E+03  0.00000000000E+00 0.  1.
         21   -1    0    0  501  502 -0.00000000000E+00 -0.00000000000E+00 -0.41231883778E+03  0.41231883778E+03  0.00000000000E+00 0.  1.
      99926    2    1    2    0    0 -0.17763568394E-14  0.00000000000E+00 -0.28895258512E+03  0.53568509044E+03  0.45107085881E+03 0.  0.
      99925    2    3    3    0    0 -0.67729820507E+01  0.94351487324E+01 -0.31172031336E+03  0.40801061034E+03  0.26299849633E+03 0.  0.
         25    1    4    4    0    0 -0.11038761581E+02 -0.22045100347E+01 -0.21658274399E+03  0.25036434893E+03  0.12509000000E+03 0.  0.
         25    1    3    3    0    0  0.67729820507E+01 -0.94351487324E+01  0.22767728244E+02  0.12767448009E+03  0.12509000000E+03 0.  0.
         25    1    4    4    0    0  0.42657795307E+01  0.11639658767E+02 -0.95137569373E+02  0.15764626141E+03  0.12509000000E+03 0.  0.
<mgrwt>
<rscale>  2 0.45107086E+03</rscale>
<asrwt>0</asrwt>
<pdfrwt beam="1">  1       21 0.18142096E-01 0.45107086E+03</pdfrwt>
<pdfrwt beam="2">  1       21 0.60635122E-01 0.45107086E+03</pdfrwt>
<totfact> 0.64814699E+04</totfact>
</mgrwt>
</event>
<event>
 7    0  0.4732500E-002  0.4555734E+03  0.7546771E-02  0.1026073E+00
         21   -1    0    0  502  501  0.00000000000E+00  0.00000000000E+00  0.16340294614E+03  0.16340294614E+03  0.00000000000E+00 0.  1.
         21   -1    0    0  501  502 -0.00000000000E+00 -0.00000000000E+00 -0.31753879342E+03  0.31753879342E+03  0.00000000000E+00 0.  1.
      99926    2    1    2    0    0  0.00000000000E+00  0.00000000000E+00 -0.15413584728E+03  0.48094173957E+03  0.45557337218E+03 0.  0.
      99925    2    3    3    0    0 -0.53491281474E+02  0.97775078440E+02 -0.73647873016E+02  0.29507322352E+03  0.26310247980E+03 0.  0.
         25    1    4    4    0    0  0.12852923275E+02  0.34773286036E+02 -0.27068125645E+02  0.13324627794E+03  0.12509000000E+03 0.  0.
         25    1    4    4    0    0 -0.66344204749E+02  0.63001792404E+02 -0.46579747372E+02  0.16182694558E+03  0.12509000000E+03 0.  0.
         25    1    3    3    0    0  0.53491281474E+02 -0.97775078440E+02 -0.80487974263E+02  0.18586851605E+03  0.12509000000E+03 0.  0.
<mgrwt>
<rscale>  2 0.45557337E+03</rscale>
<asrwt>0</asrwt>
<pdfrwt beam="1">  1       21 0.24029845E-01 0.45557337E+03</pdfrwt>
<pdfrwt beam="2">  1       21 0.46696881E-01 0.45557337E+03</pdfrwt>
<totfact> 0.66329219E+04</totfact>
</mgrwt>
</event>
<event>
 7    0  0.4732500E-002  0.4524300E+03  0.7546771E-02  0.1027000E+00
         21   -1    0    0  502  501  0.00000000000E+00  0.00000000000E+00  0.57250688300E+02  0.57250688300E+02  0.00000000000E+00 0. -1.
         21   -1    0    0  501  502 -0.00000000000E+00 -0.00000000000E+00 -0.89384461933E+03  0.89384461933E+03  0.00000000000E+00 0. -1.
      99926    2    1    2    0    0  0.71054273576E-14  0.00000000000E+00 -0.83659393103E+03  0.95109530763E+03  0.45242997111E+03 0.  0.
      99925    2    3    3    0    0  0.45148497414E+02  0.26305374239E+02 -0.73284954325E+03  0.78038864218E+03  0.26307341232E+03 0.  0.
         25    1    4    4    0    0 -0.18215263678E+02  0.70809838669E+01 -0.33710545434E+03  0.36009655873E+03  0.12509000000E+03 0.  0.
         25    1    4    4    0    0  0.63363761092E+02  0.19224390372E+02 -0.39574408891E+03  0.42029208345E+03  0.12509000000E+03 0.  0.
         25    1    3    3    0    0 -0.45148497414E+02 -0.26305374239E+02 -0.10374438778E+03  0.17070666545E+03  0.12509000000E+03 0.  0.
<mgrwt>
<rscale>  2 0.45242997E+03</rscale>
<asrwt>0</asrwt>
<pdfrwt beam="1">  1       21 0.84192193E-02 0.45242997E+03</pdfrwt>
<pdfrwt beam="2">  1       21 0.13144773E+00 0.45242997E+03</pdfrwt>
<totfact> 0.41932883E+04</totfact>
</mgrwt>
</event>
<event>
 7    0  0.4732500E-002  0.4366982E+03  0.7546771E-02  0.1031765E+00
         21   -1    0    0  502  501  0.00000000000E+00  0.00000000000E+00  0.94462478566E+02  0.94462478566E+02  0.00000000000E+00 0. -1.
         21   -1    0    0  501  502 -0.00000000000E+00 -0.00000000000E+00 -0.50471184603E+03  0.50471184603E+03  0.00000000000E+00 0. -1.
      99926    2    1    2    0    0  0.00000000000E+00  0.00000000000E+00 -0.41024936746E+03  0.59917432459E+03  0.43669821130E+03 0.  0.
      99925    2    3    3    0    0 -0.40948158770E+02  0.51653909517E+02 -0.35657018564E+03  0.44793332243E+03  0.26297734880E+03 0.  0.
         25    1    4    4    0    0  0.10058668331E+02  0.47954616609E+02 -0.20227292978E+03  0.24282229775E+03  0.12509000000E+03 0.  0.
         25    1    3    3    0    0  0.40948158770E+02 -0.51653909517E+02 -0.53679181826E+02  0.15124100217E+03  0.12509000000E+03 0.  0.
         25    1    4    4    0    0 -0.51006827101E+02  0.36992929079E+01 -0.15429725586E+03  0.20511102468E+03  0.12509000000E+03 0.  0.
<mgrwt>
<rscale>  2 0.43669821E+03</rscale>
<asrwt>0</asrwt>
<pdfrwt beam="1">  1       21 0.13891541E-01 0.43669821E+03</pdfrwt>
<pdfrwt beam="2">  1       21 0.74222329E-01 0.43669821E+03</pdfrwt>
<totfact> 0.68047696E+04</totfact>
</mgrwt>
</event>
<event>
 7    0  0.4732500E-002  0.4593578E+03  0.7546771E-02  0.1024968E+00
         21   -1    0    0  502  501  0.00000000000E+00  0.00000000000E+00  0.51651082668E+02  0.51651082668E+02  0.00000000000E+00 0.  1.
         21   -1    0    0  501  502 -0.00000000000E+00 -0.00000000000E+00 -0.10213220643E+04  0.10213220643E+04  0.00000000000E+00 0.  1.
      99926    2    1    2    0    0  0.14210854715E-13  0.53290705182E-14 -0.96967098165E+03  0.10729731470E+04  0.45935777070E+03 0.  0.
      99925    2    3    3    0    0  0.11696881033E+03  0.83238785634E+01 -0.61057754074E+03  0.67504526790E+03  0.26292620813E+03 0.  0.
         25    1    4    4    0    0  0.70210966003E+02 -0.28054373502E+02 -0.36448545894E+03  0.39270063088E+03  0.12509000000E+03 0.  0.
         25    1    4    4    0    0  0.46757844329E+02  0.36378252065E+02 -0.24609208180E+03  0.28234463702E+03  0.12509000000E+03 0.  0.
         25    1    3    3    0    0 -0.11696881033E+03 -0.83238785634E+01 -0.35909344092E+03  0.39792787909E+03  0.12509000000E+03 0.  0.
<mgrwt>
<rscale>  2 0.45935777E+03</rscale>
<asrwt>0</asrwt>
<pdfrwt beam="1">  1       21 0.75957477E-02 0.45935777E+03</pdfrwt>
<pdfrwt beam="2">  1       21 0.15019442E+00 0.45935777E+03</pdfrwt>
<totfact> 0.35232152E+04</totfact>
</mgrwt>
</event>
<event>
 7    0  0.4732500E-002  0.4531842E+03  0.7546771E-02  0.1026777E+00
         21   -1    0    0  502  501  0.00000000000E+00  0.00000000000E+00  0.21822035052E+02  0.21822035052E+02  0.00000000000E+00 0. -1.
         21   -1    0    0  501  502 -0.00000000000E+00 -0.00000000000E+00 -0.23528504394E+04  0.23528504394E+04  0.00000000000E+00 0. -1.
      99926    2    1    2    0    0 -0.14210854715E-13  0.17763568394E-14 -0.23310284043E+04  0.23746724744E+04  0.45318422197E+03 0.  0.
      99925    2    3    3    0    0 -0.11007363277E+03 -0.13095899686E+02 -0.14083613464E+04  0.14369893109E+04  0.26299979181E+03 0.  0.
         25    1    3    3    0    0  0.11007363277E+03  0.13095899686E+02 -0.92266705793E+03  0.93768316350E+03  0.12509000000E+03 0.  0.
         25    1    4    4    0    0 -0.25219056707E+02  0.22876567331E+02 -0.67808955865E+03  0.69037112904E+03  0.12509000000E+03 0.  0.
         25    1    4    4    0    0 -0.84854576062E+02 -0.35972467016E+02 -0.73027178772E+03  0.74661818187E+03  0.12509000000E+03 0.  0.
<mgrwt>
<rscale>  2 0.45318422E+03</rscale>
<asrwt>0</asrwt>
<pdfrwt beam="1">  1       21 0.32091240E-02 0.45318422E+03</pdfrwt>
<pdfrwt beam="2">  1       21 0.34600729E+00 0.45318422E+03</pdfrwt>
<totfact> 0.86215614E+03</totfact>
</mgrwt>
</event>
<event>
 7    0  0.4732500E-002  0.4515178E+03  0.7546771E-02  0.1027270E+00
         21   -1    0    0  502  501  0.00000000000E+00  0.00000000000E+00  0.33365891972E+03  0.33365891972E+03  0.00000000000E+00 0. -1.
         21   -1    0    0  501  502 -0.00000000000E+00 -0.00000000000E+00 -0.15275203960E+03  0.15275203960E+03  0.00000000000E+00 0. -1.
      99926    2    1    2    0    0  0.00000000000E+00 -0.35527136788E-14  0.18090688012E+03  0.48641095933E+03  0.45151779818E+03 0.  0.
      99925    2    3    3    0    0 -0.82199365677E+02 -0.17238905520E+02  0.19053142216E+03  0.33543395614E+03  0.26298250991E+03 0.  0.
         25    1    4    4    0    0 -0.12871601412E+02 -0.30311571159E+02  0.11544194342E+03  0.17337479594E+03  0.12509000000E+03 0.  0.
         25    1    3    3    0    0  0.82199365677E+02  0.17238905520E+02 -0.96245420415E+01  0.15097700318E+03  0.12509000000E+03 0.  0.
         25    1    4    4    0    0 -0.69327764265E+02  0.13072665640E+02  0.75089478747E+02  0.16205916020E+03  0.12509000000E+03 0.  0.
<mgrwt>
<rscale>  2 0.45151780E+03</rscale>
<asrwt>0</asrwt>
<pdfrwt beam="1">  1       21 0.49067488E-01 0.45151780E+03</pdfrwt>
<pdfrwt beam="2">  1       21 0.22463535E-01 0.45151780E+03</pdfrwt>
<totfact> 0.68099465E+04</totfact>
</mgrwt>
</event>
<event>
 7    0  0.4732500E-002  0.4560926E+03  0.7546771E-02  0.1025921E+00
         21   -1    0    0  502  501  0.00000000000E+00  0.00000000000E+00  0.21243109797E+03  0.21243109797E+03  0.00000000000E+00 0. -1.
         21   -1    0    0  501  502 -0.00000000000E+00 -0.00000000000E+00 -0.24480936821E+03  0.24480936821E+03  0.00000000000E+00 0. -1.
      99926    2    1    2    0    0  0.00000000000E+00  0.71054273576E-14 -0.32378270240E+02  0.45724046618E+03  0.45609263482E+03 0.  0.
      99925    2    3    3    0    0  0.17307021263E+02  0.59523552192E+02  0.75690503457E+02  0.28069315185E+03  0.26309125210E+03 0.  0.
         25    1    4    4    0    0 -0.16371611524E+02 -0.35496699110E+01  0.36225946453E+02  0.13130292120E+03  0.12509000000E+03 0.  0.
         25    1    4    4    0    0  0.33678632787E+02  0.63073222103E+02  0.39464557004E+02  0.14939023065E+03  0.12509000000E+03 0.  0.
         25    1    3    3    0    0 -0.17307021263E+02 -0.59523552192E+02 -0.10806877370E+03  0.17654731433E+03  0.12509000000E+03 0.  0.
<mgrwt>
<rscale>  2 0.45609263E+03</rscale>
<asrwt>0</asrwt>
<pdfrwt beam="1">  1       21 0.31239867E-01 0.45609263E+03</pdfrwt>
<pdfrwt beam="2">  1       21 0.36001378E-01 0.45609263E+03</pdfrwt>
<totfact> 0.67789098E+04</totfact>
</mgrwt>
</event>
<event>
 7    0  0.4732500E-002  0.4482161E+03  0.7546771E-02  0.1028255E+00
         21   -1    0    0  502  501  0.00000000000E+00  0.00000000000E+00  0.69908660514E+02  0.69908660514E+02  0.00000000000E+00 0.  1.
         21   -1    0    0  501  502 -0.00000000000E+00 -0.00000000000E+00 -0.71842907917E+03  0.71842907917E+03  0.00000000000E+00 0.  1.
      99926    2    1    2    0    0  0.14210854715E-13 -0.71054273576E-14 -0.64852041866E+03  0.78833773968E+03  0.44821608449E+03 0.  0.
      99925    2    3    3    0    0 -0.79065366028E+02  0.41545403964E+02 -0.30757339461E+03  0.41434611678E+03  0.26287631830E+03 0.  0.
         25    1    4    4    0    0 -0.77977974090E+02  0.34169643133E+02 -0.15055730734E+03  0.21345524086E+03  0.12509000000E+03 0.  0.
         25    1    3    3    0    0  0.79065366028E+02 -0.41545403964E+02 -0.34094702404E+03  0.37399162290E+03  0.12509000000E+03 0.  0.
         25    1    4    4    0    0 -0.10873919385E+01  0.73757608310E+01 -0.15701608727E+03  0.20089087593E+03  0.12509000000E+03 0.  0.
<mgrwt>
<rscale>  2 0.44821608E+03</rscale>
<asrwt>0</asrwt>
<pdfrwt beam="1">  1       21 0.10280685E-01 0.44821608E+03</pdfrwt>
<pdfrwt beam="2">  1       21 0.10565134E+00 0.44821608E+03</pdfrwt>
<totfact> 0.50995598E+04</totfact>
</mgrwt>
</event>
<event>
 7    0  0.4732500E-002  0.4579034E+03  0.7546771E-02  0.1025391E+00
         21   -1    0    0  502  501  0.00000000000E+00  0.00000000000E+00  0.13092109342E+03  0.13092109342E+03  0.00000000000E+00 0. -1.
         21   -1    0    0  501  502 -0.00000000000E+00 -0.00000000000E+00 -0.40038527951E+03  0.40038527951E+03  0.00000000000E+00 0. -1.
      99926    2    1    2    0    0  0.00000000000E+00  0.00000000000E+00 -0.26946418609E+03  0.53130637293E+03  0.45790338974E+03 0.  0.
      99925    2    3    3    0    0  0.10504080949E+03  0.41759709660E+02 -0.19845971715E+03  0.34836761892E+03  0.26305188380E+03 0.  0.
         25    1    4    4    0    0  0.55836399231E+02  0.15263853254E+02 -0.14831478794E+03  0.20247338866E+03  0.12509000000E+03 0.  0.
         25    1    3    3    0    0 -0.10504080949E+03 -0.41759709660E+02 -0.71004468939E+02  0.18293875401E+03  0.12509000000E+03 0.  0.
         25    1    4    4    0    0  0.49204410263E+02  0.26495856406E+02 -0.50144929206E+02  0.14589423025E+03  0.12509000000E+03 0.  0.
<mgrwt>
<rscale>  2 0.45790339E+03</rscale>
<asrwt>0</asrwt>
<pdfrwt beam="1">  1       21 0.19253102E-01 0.45790339E+03</pdfrwt>
<pdfrwt beam="2">  1       21 0.58880189E-01 0.45790339E+03</pdfrwt>
<totfact> 0.61686353E+04</totfact>
</mgrwt>
</event>
<event>
 7    0  0.4732500E-002  0.3902524E+03  0.7546771E-02  0.1047208E+00
         21   -1    0    0  502  501  0.00000000000E+00  0.00000000000E+00  0.41610389785E+02  0.41610389785E+02  0.00000000000E+00 0. -1.
         21   -1    0    0  501  502 -0.00000000000E+00 -0.00000000000E+00 -0.91501736680E+03  0.91501736680E+03  0.00000000000E+00 0. -1.
      99926    2    1    2    0    0  0.00000000000E+00  0.00000000000E+00 -0.87340697701E+03  0.95662775658E+03  0.39025237625E+03 0.  0.
      99925    2    3    3    0    0  0.12503336473E+02 -0.11316225770E+02 -0.63397483839E+03  0.68596256212E+03  0.26141184083E+03 0.  0.
         25    1    4    4    0    0  0.10978302885E+02  0.37553358423E+01 -0.41189052886E+03  0.43062273691E+03  0.12509000000E+03 0.  0.
         25    1    3    3    0    0 -0.12503336473E+02  0.11316225770E+02 -0.23943213862E+03  0.27066519446E+03  0.12509000000E+03 0.  0.
         25    1    4    4    0    0  0.15250335879E+01 -0.15071561613E+02 -0.22208430954E+03  0.25533982521E+03  0.12509000000E+03 0.  0.
<mgrwt>
<rscale>  2 0.39025238E+03</rscale>
<asrwt>0</asrwt>
<pdfrwt beam="1">  1       21 0.61191747E-02 0.39025238E+03</pdfrwt>
<pdfrwt beam="2">  1       21 0.13456138E+00 0.39025238E+03</pdfrwt>
<totfact> 0.70260522E+04</totfact>
</mgrwt>
</event>
<event>
 7    0  0.4732500E-002  0.4386776E+03  0.7546771E-02  0.1031153E+00
         21   -1    0    0  502  501  0.00000000000E+00  0.00000000000E+00  0.33922446092E+03  0.33922446092E+03  0.00000000000E+00 0.  1.
         21   -1    0    0  501  502 -0.00000000000E+00 -0.00000000000E+00 -0.14182204720E+03  0.14182204720E+03  0.00000000000E+00 0.  1.
      99926    2    1    2    0    0 -0.35527136788E-14  0.88817841970E-15  0.19740241373E+03  0.48104650812E+03  0.43867759235E+03 0.  0.
      99925    2    3    3    0    0  0.14881871521E+02 -0.43663117677E+01  0.21103663709E+02  0.26432250821E+03  0.26302184120E+03 0.  0.
         25    1    3    3    0    0 -0.14881871521E+02  0.43663117677E+01  0.17629875002E+03  0.21672399991E+03  0.12509000000E+03 0.  0.
         25    1    4    4    0    0  0.34110558316E+02 -0.17108500307E+02 -0.16163849056E+02  0.13177636012E+03  0.12509000000E+03 0.  0.
         25    1    4    4    0    0 -0.19228686796E+02  0.12742188539E+02  0.37267512766E+02  0.13254614809E+03  0.12509000000E+03 0.  0.
<mgrwt>
<rscale>  2 0.43867759E+03</rscale>
<asrwt>0</asrwt>
<pdfrwt beam="1">  1       21 0.49885950E-01 0.43867759E+03</pdfrwt>
<pdfrwt beam="2">  1       21 0.20856183E-01 0.43867759E+03</pdfrwt>
<totfact> 0.76005250E+04</totfact>
</mgrwt>
</event>
<event>
 7    0  0.4732500E-002  0.4446362E+03  0.7546771E-02  0.1029334E+00
         21   -1    0    0  502  501  0.00000000000E+00  0.00000000000E+00  0.18164959149E+03  0.18164959149E+03  0.00000000000E+00 0.  1.
         21   -1    0    0  501  502 -0.00000000000E+00 -0.00000000000E+00 -0.27209170533E+03  0.27209170533E+03  0.00000000000E+00 0.  1.
      99926    2    1    2    0    0  0.00000000000E+00  0.00000000000E+00 -0.90442113841E+02  0.45374129682E+03  0.44463624288E+03 0.  0.
      99925    2    3    3    0    0  0.55433912121E+02  0.39126247336E+02  0.21739416058E+02  0.27253427269E+03  0.26305616461E+03 0.  0.
         25    1    4    4    0    0  0.11830230576E+01  0.64236015776E+01 -0.18596249261E+02  0.12663329257E+03  0.12509000000E+03 0.  0.
         25    1    4    4    0    0  0.54250889063E+02  0.32702645758E+02  0.40335665319E+02  0.14590098012E+03  0.12509000000E+03 0.  0.
         25    1    3    3    0    0 -0.55433912121E+02 -0.39126247336E+02 -0.11218152990E+03  0.18120702413E+03  0.12509000000E+03 0.  0.
<mgrwt>
<rscale>  2 0.44463624E+03</rscale>
<asrwt>0</asrwt>
<pdfrwt beam="1">  1       21 0.26713175E-01 0.44463624E+03</pdfrwt>
<pdfrwt beam="2">  1       21 0.40013486E-01 0.44463624E+03</pdfrwt>
<totfact> 0.74612213E+04</totfact>
</mgrwt>
</event>
<event>
 7    0  0.4732500E-002  0.4548987E+03  0.7546771E-02  0.1026271E+00
         21   -1    0    0  502  501  0.00000000000E+00  0.00000000000E+00  0.73800882416E+02  0.73800882416E+02  0.00000000000E+00 0. -1.
         21   -1    0    0  501  502 -0.00000000000E+00 -0.00000000000E+00 -0.70098348587E+03  0.70098348587E+03  0.00000000000E+00 0. -1.
      99926    2    1    2    0    0  0.00000000000E+00 -0.14210854715E-13 -0.62718260345E+03  0.77478436828E+03  0.45489866923E+03 0.  0.
      99925    2    3    3    0    0 -0.53621251625E+02 -0.98363625005E+02 -0.42029656313E+03  0.50832614805E+03  0.26305062338E+03 0.  0.
         25    1    4    4    0    0 -0.36995394669E+02 -0.90641568993E+02 -0.21702479273E+03  0.26894576036E+03  0.12509000000E+03 0.  0.
         25    1    3    3    0    0  0.53621251625E+02  0.98363625005E+02 -0.20688604032E+03  0.26645822023E+03  0.12509000000E+03 0.  0.
         25    1    4    4    0    0 -0.16625856956E+02 -0.77220560116E+01 -0.20327177040E+03  0.23938038769E+03  0.12509000000E+03 0.  0.
<mgrwt>
<rscale>  2 0.45489867E+03</rscale>
<asrwt>0</asrwt>
<pdfrwt beam="1">  1       21 0.10853071E-01 0.45489867E+03</pdfrwt>
<pdfrwt beam="2">  1       21 0.10308581E+00 0.45489867E+03</pdfrwt>
<totfact> 0.49047658E+04</totfact>
</mgrwt>
</event>
<event>
 7    0  0.4732500E-002  0.4446669E+03  0.7546771E-02  0.1029324E+00
         21   -1    0    0  502  501  0.00000000000E+00  0.00000000000E+00  0.31035301740E+02  0.31035301740E+02  0.00000000000E+00 0. -1.
         21   -1    0    0  501  502 -0.00000000000E+00 -0.00000000000E+00 -0.15927723463E+04  0.15927723463E+04  0.00000000000E+00 0. -1.
      99926    2    1    2    0    0  0.00000000000E+00  0.00000000000E+00 -0.15617370446E+04  0.16238076481E+04  0.44466693320E+03 0.  0.
      99925    2    3    3    0    0 -0.49135803137E+02 -0.15540732105E+02 -0.13187264375E+04  0.13456754767E+04  0.26295860906E+03 0.  0.
         25    1    4    4    0    0 -0.33452319326E+01 -0.15232518735E+02 -0.47239750166E+03  0.48892752825E+03  0.12509000000E+03 0.  0.
         25    1    4    4    0    0 -0.45790571204E+02 -0.30821336988E+00 -0.84632893582E+03  0.85674794842E+03  0.12509000000E+03 0.  0.
         25    1    3    3    0    0  0.49135803137E+02  0.15540732105E+02 -0.24301060712E+03  0.27813217141E+03  0.12509000000E+03 0.  0.
<mgrwt>
<rscale>  2 0.44466693E+03</rscale>
<asrwt>0</asrwt>
<pdfrwt beam="1">  1       21 0.45640137E-02 0.44466693E+03</pdfrwt>
<pdfrwt beam="2">  1       21 0.23423129E+00 0.44466693E+03</pdfrwt>
<totfact> 0.22661509E+04</totfact>
</mgrwt>
</event>
<event>
 7    0  0.4732500E-002  0.4613009E+03  0.7546771E-02  0.1024405E+00
         21   -1    0    0  502  501  0.00000000000E+00  0.00000000000E+00  0.84613892670E+02  0.84613892670E+02  0.00000000000E+00 0.  1.
         21   -1    0    0  501  502 -0.00000000000E+00 -0.00000000000E+00 -0.62873394055E+03  0.62873394055E+03  0.00000000000E+00 0.  1.
      99926    2    1    2    0    0  0.00000000000E+00  0.00000000000E+00 -0.54412004788E+03  0.71334783322E+03  0.46130088300E+03 0.  0.
      99925    2    3    3    0    0  0.38887291480E+02 -0.11252786970E+03 -0.34126437399E+03  0.44694085991E+03  0.26290685880E+03 0.  0.
         25    1    3    3    0    0 -0.38887291480E+02  0.11252786970E+03 -0.20285567389E+03  0.26640697331E+03  0.12509000000E+03 0.  0.
         25    1    4    4    0    0  0.35885374708E+02 -0.51581360946E+02 -0.11439632804E+03  0.18078281136E+03  0.12509000000E+03 0.  0.
         25    1    4    4    0    0  0.30019167722E+01 -0.60946508754E+02 -0.22686804595E+03  0.26615804855E+03  0.12509000000E+03 0.  0.
<mgrwt>
<rscale>  2 0.46130088E+03</rscale>
<asrwt>0</asrwt>
<pdfrwt beam="1">  1       21 0.12443220E-01 0.46130088E+03</pdfrwt>
<pdfrwt beam="2">  1       21 0.92460867E-01 0.46130088E+03</pdfrwt>
<totfact> 0.49675678E+04</totfact>
</mgrwt>
</event>
<event>
 7    0  0.4732500E-002  0.4546121E+03  0.7546771E-02  0.1026356E+00
         21   -1    0    0  502  501  0.00000000000E+00  0.00000000000E+00  0.55090854690E+02  0.55090854690E+02  0.00000000000E+00 0. -1.
         21   -1    0    0  501  502 -0.00000000000E+00 -0.00000000000E+00 -0.93786960742E+03  0.93786960742E+03  0.00000000000E+00 0. -1.
      99926    2    1    2    0    0  0.00000000000E+00  0.71054273576E-14 -0.88277875273E+03  0.99296046211E+03  0.45461209073E+03 0.  0.
      99925    2    3    3    0    0 -0.90347847898E+02  0.50649742440E+02 -0.65341378736E+03  0.71191967242E+03  0.26296751214E+03 0.  0.
         25    1    4    4    0    0 -0.27160847984E+02  0.57121435983E+02 -0.37055763730E+03  0.39618308997E+03  0.12509000000E+03 0.  0.
         25    1    4    4    0    0 -0.63186999915E+02 -0.64716935423E+01 -0.28285615005E+03  0.31573658245E+03  0.12509000000E+03 0.  0.
         25    1    3    3    0    0  0.90347847898E+02 -0.50649742440E+02 -0.22936496537E+03  0.28104078969E+03  0.12509000000E+03 0.  0.
<mgrwt>
<rscale>  2 0.45461209E+03</rscale>
<asrwt>0</asrwt>
<pdfrwt beam="1">  1       21 0.81015965E-02 0.45461209E+03</pdfrwt>
<pdfrwt beam="2">  1       21 0.13792200E+00 0.45461209E+03</pdfrwt>
<totfact> 0.39561423E+04</totfact>
</mgrwt>
</event>
<event>
 7    0  0.4732500E-002  0.4570312E+03  0.7546771E-02  0.1025646E+00
         21   -1    0    0  502  501  0.00000000000E+00  0.00000000000E+00  0.23750554916E+03  0.23750554916E+03  0.00000000000E+00 0. -1.
         21   -1    0    0  501  502 -0.00000000000E+00 -0.00000000000E+00 -0.21986595753E+03  0.21986595753E+03  0.00000000000E+00 0. -1.
      99926    2    1    2    0    0  0.35527136788E-14  0.00000000000E+00  0.17639591630E+02  0.45737150670E+03  0.45703122426E+03 0.  0.
      99925    2    3    3    0    0  0.22786989126E+02 -0.90347953099E+02  0.79240597358E+02  0.28966881886E+03  0.26257751779E+03 0.  0.
         25    1    3    3    0    0 -0.22786989126E+02  0.90347953099E+02 -0.61601005728E+02  0.16770268784E+03  0.12509000000E+03 0.  0.
         25    1    4    4    0    0  0.29930795496E+02 -0.78055515648E+02  0.61469119759E+02  0.16252531134E+03  0.12509000000E+03 0.  0.
         25    1    4    4    0    0 -0.71438063696E+01 -0.12292437451E+02  0.17771477599E+02  0.12714350752E+03  0.12509000000E+03 0.  0.
<mgrwt>
<rscale>  2 0.45703122E+03</rscale>
<asrwt>0</asrwt>
<pdfrwt beam="1">  1       21 0.34927287E-01 0.45703122E+03</pdfrwt>
<pdfrwt beam="2">  1       21 0.32333229E-01 0.45703122E+03</pdfrwt>
<totfact> 0.67275465E+04</totfact>
</mgrwt>
</event>
<event>
 7    0  0.4732500E-002  0.4550721E+03  0.7546771E-02  0.1026220E+00
         21   -1    0    0  502  501  0.00000000000E+00  0.00000000000E+00  0.63231430276E+02  0.63231430276E+02  0.00000000000E+00 0.  1.
         21   -1    0    0  501  502 -0.00000000000E+00 -0.00000000000E+00 -0.81878043178E+03  0.81878043178E+03  0.00000000000E+00 0.  1.
      99926    2    1    2    0    0  0.00000000000E+00  0.00000000000E+00 -0.75554900150E+03  0.88201186206E+03  0.45507211641E+03 0.  0.
      99925    2    3    3    0    0  0.10763055969E+03  0.12881535992E+02 -0.53935841608E+03  0.60973232064E+03  0.26289870766E+03 0.  0.
         25    1    4    4    0    0  0.92303583604E+02  0.41687517108E+01 -0.33746333035E+03  0.37157278892E+03  0.12509000000E+03 0.  0.
         25    1    4    4    0    0  0.15326976084E+02  0.87127842810E+01 -0.20189508573E+03  0.23815953172E+03  0.12509000000E+03 0.  0.
         25    1    3    3    0    0 -0.10763055969E+03 -0.12881535992E+02 -0.21619058543E+03  0.27227954142E+03  0.12509000000E+03 0.  0.
<mgrwt>
<rscale>  2 0.45507212E+03</rscale>
<asrwt>0</asrwt>
<pdfrwt beam="1">  1       21 0.92987408E-02 0.45507212E+03</pdfrwt>
<pdfrwt beam="2">  1       21 0.12040887E+00 0.45507212E+03</pdfrwt>
<totfact> 0.43995747E+04</totfact>
</mgrwt>
</event>
<event>
 7    0  0.4732500E-002  0.4524350E+03  0.7546771E-02  0.1026998E+00
         21   -1    0    0  502  501  0.00000000000E+00  0.00000000000E+00  0.46681728291E+03  0.46681728291E+03  0.00000000000E+00 0. -1.
         21   -1    0    0  501  502 -0.00000000000E+00 -0.00000000000E+00 -0.10962395743E+03  0.10962395743E+03  0.00000000000E+00 0. -1.
      99926    2    1    2    0    0 -0.14210854715E-13 -0.35527136788E-14  0.35719332548E+03  0.57644124034E+03  0.45243500284E+03 0.  0.
      99925    2    3    3    0    0 -0.90757390820E+02 -0.16810028818E+02  0.30300507948E+03  0.41181027374E+03  0.26316561764E+03 0.  0.
         25    1    4    4    0    0 -0.79889151672E+02 -0.45079630569E+01  0.12784809938E+03  0.19594704106E+03  0.12509000000E+03 0.  0.
         25    1    4    4    0    0 -0.10868239149E+02 -0.12302065762E+02  0.17515698010E+03  0.21586323268E+03  0.12509000000E+03 0.  0.
         25    1    3    3    0    0  0.90757390820E+02  0.16810028818E+02  0.54188245997E+02  0.16463096659E+03  0.12509000000E+03 0.  0.
<mgrwt>
<rscale>  2 0.45243500E+03</rscale>
<asrwt>0</asrwt>
<pdfrwt beam="1">  1       21 0.68649599E-01 0.45243500E+03</pdfrwt>
<pdfrwt beam="2">  1       21 0.16121170E-01 0.45243500E+03</pdfrwt>
<totfact> 0.61387820E+04</totfact>
</mgrwt>
</event>
<event>
 7    0  0.4732500E-002  0.4551993E+03  0.7546771E-02  0.1026183E+00
         21   -1    0    0  502  501  0.00000000000E+00  0.00000000000E+00  0.59135662343E+02  0.59135662343E+02  0.00000000000E+00 0.  1.
         21   -1    0    0  501  502 -0.00000000000E+00 -0.00000000000E+00 -0.87597913861E+03  0.87597913861E+03  0.00000000000E+00 0.  1.
      99926    2    1    2    0    0  0.00000000000E+00  0.00000000000E+00 -0.81684347626E+03  0.93511480095E+03  0.45519932583E+03 0.  0.
      99925    2    3    3    0    0 -0.21515631578E+02  0.23928524397E+02 -0.29060782895E+03  0.39325968998E+03  0.26299197104E+03 0.  0.
         25    1    4    4    0    0 -0.45999982514E+01  0.12200881893E+02 -0.85298367107E+02  0.15196493357E+03  0.12509000000E+03 0.  0.
         25    1    4    4    0    0 -0.16915633326E+02  0.11727642504E+02 -0.20530946185E+03  0.24129475642E+03  0.12509000000E+03 0.  0.
         25    1    3    3    0    0  0.21515631578E+02 -0.23928524397E+02 -0.52623564731E+03  0.54185511097E+03  0.12509000000E+03 0.  0.
<mgrwt>
<rscale>  2 0.45519933E+03</rscale>
<asrwt>0</asrwt>
<pdfrwt beam="1">  1       21 0.86964211E-02 0.45519933E+03</pdfrwt>
<pdfrwt beam="2">  1       21 0.12882046E+00 0.45519933E+03</pdfrwt>
<totfact> 0.41684486E+04</totfact>
</mgrwt>
</event>
<event>
 7    0  0.4732500E-002  0.4644161E+03  0.7546771E-02  0.1023508E+00
         21   -1    0    0  502  501  0.00000000000E+00  0.00000000000E+00  0.93874016850E+02  0.93874016850E+02  0.00000000000E+00 0. -1.
         21   -1    0    0  501  502 -0.00000000000E+00 -0.00000000000E+00 -0.57439295786E+03  0.57439295786E+03  0.00000000000E+00 0. -1.
      99926    2    1    2    0    0  0.14210854715E-13 -0.14210854715E-13 -0.48051894101E+03  0.66826697471E+03  0.46441608157E+03 0.  0.
      99925    2    3    3    0    0  0.99531523834E+02 -0.60763107313E+02 -0.25281574369E+03  0.38349525277E+03  0.26373116841E+03 0.  0.
         25    1    4    4    0    0  0.44213802616E+02 -0.66391052772E+02 -0.10330433690E+03  0.18078143254E+03  0.12509000000E+03 0.  0.
         25    1    3    3    0    0 -0.99531523834E+02  0.60763107313E+02 -0.22770319732E+03  0.28477172194E+03  0.12509000000E+03 0.  0.
         25    1    4    4    0    0  0.55317721218E+02  0.56279454591E+01 -0.14951140679E+03  0.20271382023E+03  0.12509000000E+03 0.  0.
<mgrwt>
<rscale>  2 0.46441608E+03</rscale>
<asrwt>0</asrwt>
<pdfrwt beam="1">  1       21 0.13805002E-01 0.46441608E+03</pdfrwt>
<pdfrwt beam="2">  1       21 0.84469555E-01 0.46441608E+03</pdfrwt>
<totfact> 0.50783563E+04</totfact>
</mgrwt>
</event>
<event>
 7    0  0.4732500E-002  0.4564891E+03  0.7546771E-02  0.1025804E+00
         21   -1    0    0  502  501  0.00000000000E+00  0.00000000000E+00  0.54377838918E+02  0.54377838918E+02  0.00000000000E+00 0. -1.
         21   -1    0    0  501  502 -0.00000000000E+00 -0.00000000000E+00 -0.95802961170E+03  0.95802961170E+03  0.00000000000E+00 0. -1.
      99926    2    1    2    0    0  0.00000000000E+00  0.71054273576E-14 -0.90365177278E+03  0.10124074506E+04  0.45648912322E+03 0.  0.
      99925    2    3    3    0    0 -0.86825261830E+02  0.58025818428E+02 -0.67234858105E+03  0.72946877121E+03  0.26299515593E+03 0.  0.
         25    1    4    4    0    0 -0.39063300639E+02 -0.12198364426E+02 -0.30067654671E+03  0.32822040673E+03  0.12509000000E+03 0.  0.
         25    1    3    3    0    0  0.86825261830E+02 -0.58025818428E+02 -0.23130319173E+03  0.28293867940E+03  0.12509000000E+03 0.  0.
         25    1    4    4    0    0 -0.47761961191E+02  0.70224182853E+02 -0.37167203433E+03  0.40124836448E+03  0.12509000000E+03 0.  0.
<mgrwt>
<rscale>  2 0.45648912E+03</rscale>
<asrwt>0</asrwt>
<pdfrwt beam="1">  1       21 0.79967416E-02 0.45648912E+03</pdfrwt>
<pdfrwt beam="2">  1       21 0.14088670E+00 0.45648912E+03</pdfrwt>
<totfact> 0.38241027E+04</totfact>
</mgrwt>
</event>
<event>
 7    0  0.4732500E-002  0.4382993E+03  0.7546771E-02  0.1031270E+00
         21   -1    0    0  502  501  0.00000000000E+00  0.00000000000E+00  0.53567186754E+03  0.53567186754E+03  0.00000000000E+00 0. -1.
         21   -1    0    0  501  502 -0.00000000000E+00 -0.00000000000E+00 -0.89656687042E+02  0.89656687042E+02  0.00000000000E+00 0. -1.
      99926    2    1    2    0    0  0.00000000000E+00  0.00000000000E+00  0.44601518049E+03  0.62532855458E+03  0.43829928124E+03 0.  0.
      99925    2    3    3    0    0  0.39864794425E+02  0.25454422180E+02  0.16469246772E+03  0.31383681109E+03  0.26293118040E+03 0.  0.
         25    1    3    3    0    0 -0.39864794425E+02 -0.25454422180E+02  0.28132271277E+03  0.31149174349E+03  0.12509000000E+03 0.  0.
         25    1    4    4    0    0 -0.14955496580E+02  0.26501368402E+02  0.98294661687E+02  0.16197326329E+03  0.12509000000E+03 0.  0.
         25    1    4    4    0    0  0.54820291004E+02 -0.10469462213E+01  0.66397806037E+02  0.15186354779E+03  0.12509000000E+03 0.  0.
<mgrwt>
<rscale>  2 0.43829928E+03</rscale>
<asrwt>0</asrwt>
<pdfrwt beam="1">  1       21 0.78775273E-01 0.43829928E+03</pdfrwt>
<pdfrwt beam="2">  1       21 0.13184807E-01 0.43829928E+03</pdfrwt>
<totfact> 0.65343871E+04</totfact>
</mgrwt>
</event>
<event>
 7    0  0.4732500E-002  0.4355068E+03  0.7546771E-02  0.1032134E+00
         21   -1    0    0  502  501  0.00000000000E+00  0.00000000000E+00  0.95320673893E+02  0.95320673893E+02  0.00000000000E+00 0.  1.
         21   -1    0    0  501  502 -0.00000000000E+00 -0.00000000000E+00 -0.49744239120E+03  0.49744239120E+03  0.00000000000E+00 0.  1.
      99926    2    1    2    0    0  0.71054273576E-14 -0.71054273576E-14 -0.40212171731E+03  0.59276306510E+03  0.43550680340E+03 0.  0.
      99925    2    3    3    0    0  0.38716912941E+02 -0.32206123475E+02 -0.36544662987E+03  0.45301756830E+03  0.26294000108E+03 0.  0.
         25    1    3    3    0    0 -0.38716912941E+02  0.32206123475E+02 -0.36675087442E+02  0.13974549680E+03  0.12509000000E+03 0.  0.
         25    1    4    4    0    0  0.37374076180E+02 -0.45087013939E+02 -0.15285037148E+03  0.20601069040E+03  0.12509000000E+03 0.  0.
         25    1    4    4    0    0  0.13428367612E+01  0.12880890464E+02 -0.21259625839E+03  0.24700687790E+03  0.12509000000E+03 0.  0.
<mgrwt>
<rscale>  2 0.43550680E+03</rscale>
<asrwt>0</asrwt>
<pdfrwt beam="1">  1       21 0.14017746E-01 0.43550680E+03</pdfrwt>
<pdfrwt beam="2">  1       21 0.73153292E-01 0.43550680E+03</pdfrwt>
<totfact> 0.69182709E+04</totfact>
</mgrwt>
</event>
<event>
 7    0  0.4732500E-002  0.4484549E+03  0.7546771E-02  0.1028184E+00
         21   -1    0    0  502  501  0.00000000000E+00  0.00000000000E+00  0.65580023639E+02  0.65580023639E+02  0.00000000000E+00 0. -1.
         21   -1    0    0  501  502 -0.00000000000E+00 -0.00000000000E+00 -0.76666576178E+03  0.76666576178E+03  0.00000000000E+00 0. -1.
      99926    2    1    2    0    0  0.00000000000E+00  0.00000000000E+00 -0.70108573815E+03  0.83224578542E+03  0.44845494213E+03 0.  0.
      99925    2    3    3    0    0  0.10627851326E+03  0.38033773848E+01 -0.42434258294E+03  0.51046345199E+03  0.26305269445E+03 0.  0.
         25    1    4    4    0    0  0.47957737374E+02  0.92973805574E-01 -0.13670007987E+03  0.19140107929E+03  0.12509000000E+03 0.  0.
         25    1    3    3    0    0 -0.10627851326E+03 -0.38033773848E+01 -0.27674315520E+03  0.32178233344E+03  0.12509000000E+03 0.  0.
         25    1    4    4    0    0  0.58320775885E+02  0.37104035792E+01 -0.28764250307E+03  0.31906237269E+03  0.12509000000E+03 0.  0.
<mgrwt>
<rscale>  2 0.44845494E+03</rscale>
<asrwt>0</asrwt>
<pdfrwt beam="1">  1       21 0.96441218E-02 0.44845494E+03</pdfrwt>
<pdfrwt beam="2">  1       21 0.11274496E+00 0.44845494E+03</pdfrwt>
<totfact> 0.48697267E+04</totfact>
</mgrwt>
</event>
<event>
 7    0  0.4732500E-002  0.4526507E+03  0.7546771E-02  0.1026935E+00
         21   -1    0    0  502  501  0.00000000000E+00  0.00000000000E+00  0.94364112021E+02  0.94364112021E+02  0.00000000000E+00 0.  1.
         21   -1    0    0  501  502 -0.00000000000E+00 -0.00000000000E+00 -0.54282465414E+03  0.54282465414E+03  0.00000000000E+00 0.  1.
      99926    2    1    2    0    0 -0.14210854715E-13  0.00000000000E+00 -0.44846054212E+03  0.63718876616E+03  0.45265071068E+03 0.  0.
      99925    2    3    3    0    0  0.81789734543E+02  0.70876253867E+02 -0.31626448540E+03  0.42544290540E+03  0.26318327642E+03 0.  0.
         25    1    4    4    0    0  0.12048704203E+02  0.21119138555E+01 -0.14145352063E+03  0.18922536313E+03  0.12509000000E+03 0.  0.
         25    1    3    3    0    0 -0.81789734543E+02 -0.70876253867E+02 -0.13219605672E+03  0.21174586076E+03  0.12509000000E+03 0.  0.
         25    1    4    4    0    0  0.69741030340E+02  0.68764340012E+02 -0.17481096477E+03  0.23621754227E+03  0.12509000000E+03 0.  0.
<mgrwt>
<rscale>  2 0.45265071E+03</rscale>
<asrwt>0</asrwt>
<pdfrwt beam="1">  1       21 0.13877075E-01 0.45265071E+03</pdfrwt>
<pdfrwt beam="2">  1       21 0.79827157E-01 0.45265071E+03</pdfrwt>
<totfact> 0.57504431E+04</totfact>
</mgrwt>
</event>
<event>
 7    0  0.4732500E-002  0.4579090E+03  0.7546771E-02  0.1025389E+00
         21   -1    0    0  502  501  0.00000000000E+00  0.00000000000E+00  0.26109616337E+03  0.26109616337E+03  0.00000000000E+00 0. -1.
         21   -1    0    0  501  502 -0.00000000000E+00 -0.00000000000E+00 -0.20076957447E+03  0.20076957447E+03  0.00000000000E+00 0. -1.
      99926    2    1    2    0    0  0.26645352591E-14  0.00000000000E+00  0.60326588902E+02  0.46186573784E+03  0.45790901112E+03 0.  0.
      99925    2    3    3    0    0  0.45367614472E+01 -0.51481961395E+02 -0.65004100996E+02  0.27740364287E+03  0.26468145643E+03 0.  0.
         25    1    3    3    0    0 -0.45367614472E+01  0.51481961395E+02  0.12533068990E+03  0.18446209498E+03  0.12509000000E+03 0.  0.
         25    1    4    4    0    0 -0.15102680267E+02 -0.61312608297E+02 -0.15054023768E+02  0.14093068729E+03  0.12509000000E+03 0.  0.
         25    1    4    4    0    0  0.19639441714E+02  0.98306469026E+01 -0.49950077228E+02  0.13647295558E+03  0.12509000000E+03 0.  0.
<mgrwt>
<rscale>  2 0.45790901E+03</rscale>
<asrwt>0</asrwt>
<pdfrwt beam="1">  1       21 0.38396495E-01 0.45790901E+03</pdfrwt>
<pdfrwt beam="2">  1       21 0.29524937E-01 0.45790901E+03</pdfrwt>
<totfact> 0.66488895E+04</totfact>
</mgrwt>
</event>
<event>
 7    0  0.4732500E-002  0.4637801E+03  0.7546771E-02  0.1023691E+00
         21   -1    0    0  502  501  0.00000000000E+00  0.00000000000E+00  0.40675524641E+03  0.40675524641E+03  0.00000000000E+00 0.  1.
         21   -1    0    0  501  502 -0.00000000000E+00 -0.00000000000E+00 -0.13219988471E+03  0.13219988471E+03  0.00000000000E+00 0.  1.
      99926    2    1    2    0    0  0.14210854715E-13  0.00000000000E+00  0.27455536170E+03  0.53895513111E+03  0.46378010600E+03 0.  0.
      99925    2    3    3    0    0 -0.11050556875E+03 -0.43090661244E+02  0.13992363145E+03  0.32022813987E+03  0.26248648177E+03 0.  0.
         25    1    3    3    0    0  0.11050556875E+03  0.43090661244E+02  0.13463173025E+03  0.21872699125E+03  0.12509000000E+03 0.  0.
         25    1    4    4    0    0 -0.86838941968E+02 -0.34484710229E+01  0.54013859890E+02  0.16161033059E+03  0.12509000000E+03 0.  0.
         25    1    4    4    0    0 -0.23666626781E+02 -0.39642190221E+02  0.85909771559E+02  0.15861780927E+03  0.12509000000E+03 0.  0.
<mgrwt>
<rscale>  2 0.46378011E+03</rscale>
<asrwt>0</asrwt>
<pdfrwt beam="1">  1       21 0.59816948E-01 0.46378011E+03</pdfrwt>
<pdfrwt beam="2">  1       21 0.19441160E-01 0.46378011E+03</pdfrwt>
<totfact> 0.58431328E+04</totfact>
</mgrwt>
</event>
<event>
 7    0  0.4732500E-002  0.4427512E+03  0.7546771E-02  0.1029906E+00
         21   -1    0    0  502  501  0.00000000000E+00  0.00000000000E+00  0.13448060306E+03  0.13448060306E+03  0.00000000000E+00 0. -1.
         21   -1    0    0  501  502 -0.00000000000E+00 -0.00000000000E+00 -0.36441805053E+03  0.36441805053E+03  0.00000000000E+00 0. -1.
      99926    2    1    2    0    0  0.71054273576E-14  0.71054273576E-14 -0.22993744747E+03  0.49889865359E+03  0.44275121322E+03 0.  0.
      99925    2    3    3    0    0 -0.52676635545E+02 -0.52985967016E+02 -0.22346445659E+03  0.35305027909E+03  0.26291784948E+03 0.  0.
         25    1    4    4    0    0 -0.15663728644E+02 -0.65416034121E+02 -0.10856553240E+03  0.17876966421E+03  0.12509000000E+03 0.  0.
         25    1    3    3    0    0  0.52676635545E+02  0.52985967016E+02 -0.64729908846E+01  0.14584837450E+03  0.12509000000E+03 0.  0.
         25    1    4    4    0    0 -0.37012906901E+02  0.12430067105E+02 -0.11489892418E+03  0.17428061488E+03  0.12509000000E+03 0.  0.
<mgrwt>
<rscale>  2 0.44275121E+03</rscale>
<asrwt>0</asrwt>
<pdfrwt beam="1">  1       21 0.19776560E-01 0.44275121E+03</pdfrwt>
<pdfrwt beam="2">  1       21 0.53590888E-01 0.44275121E+03</pdfrwt>
<totfact> 0.72107457E+04</totfact>
</mgrwt>
</event>
<event>
 7    0  0.4732500E-002  0.4458546E+03  0.7546771E-02  0.1028966E+00
         21   -1    0    0  502  501  0.00000000000E+00  0.00000000000E+00  0.36391017291E+02  0.36391017291E+02  0.00000000000E+00 0.  1.
         21   -1    0    0  501  502 -0.00000000000E+00 -0.00000000000E+00 -0.13656275089E+04  0.13656275089E+04  0.00000000000E+00 0.  1.
      99926    2    1    2    0    0  0.00000000000E+00  0.71054273576E-14 -0.13292364916E+04  0.14020185262E+04  0.44585456952E+03 0.  0.
      99925    2    3    3    0    0  0.66432699539E+02 -0.58696577569E+02 -0.10173427136E+04  0.10544788470E+04  0.26283236095E+03 0.  0.
         25    1    4    4    0    0  0.61113305479E+02 -0.45940843780E+00 -0.52290806567E+03  0.54112420054E+03  0.12509000000E+03 0.  0.
         25    1    4    4    0    0  0.53193940601E+01 -0.58237169132E+02 -0.49443464796E+03  0.51335464645E+03  0.12509000000E+03 0.  0.
         25    1    3    3    0    0 -0.66432699539E+02  0.58696577569E+02 -0.31189377800E+03  0.34753967923E+03  0.12509000000E+03 0.  0.
<mgrwt>
<rscale>  2 0.44585457E+03</rscale>
<asrwt>0</asrwt>
<pdfrwt beam="1">  1       21 0.53516209E-02 0.44585457E+03</pdfrwt>
<pdfrwt beam="2">  1       21 0.20082755E+00 0.44585457E+03</pdfrwt>
<totfact> 0.28232074E+04</totfact>
</mgrwt>
</event>
<event>
 7    0  0.4732500E-002  0.4532640E+03  0.7546771E-02  0.1026753E+00
         21   -1    0    0  502  501  0.00000000000E+00  0.00000000000E+00  0.71223429083E+03  0.71223429083E+03  0.00000000000E+00 0. -1.
         21   -1    0    0  501  502 -0.00000000000E+00 -0.00000000000E+00 -0.72114004722E+02  0.72114004722E+02  0.00000000000E+00 0. -1.
      99926    2    1    2    0    0 -0.14210854715E-13  0.00000000000E+00  0.64012028610E+03  0.78434829555E+03  0.45326401583E+03 0.  0.
      99925    2    3    3    0    0 -0.68134326864E+02 -0.39031502410E+02  0.26565998756E+03  0.38181411320E+03  0.26275662383E+03 0.  0.
         25    1    4    4    0    0 -0.44899519795E+02 -0.57670364475E+02  0.15500490988E+03  0.21216943231E+03  0.12509000000E+03 0.  0.
         25    1    3    3    0    0  0.68134326864E+02  0.39031502410E+02  0.37446029854E+03  0.40253418235E+03  0.12509000000E+03 0.  0.
         25    1    4    4    0    0 -0.23234807069E+02  0.18638862065E+02  0.11065507768E+03  0.16964468089E+03  0.12509000000E+03 0.  0.
<mgrwt>
<rscale>  2 0.45326402E+03</rscale>
<asrwt>0</asrwt>
<pdfrwt beam="1">  1       21 0.10474033E+00 0.45326402E+03</pdfrwt>
<pdfrwt beam="2">  1       21 0.10605001E-01 0.45326402E+03</pdfrwt>
<totfact> 0.49198151E+04</totfact>
</mgrwt>
</event>
<event>
 7    0  0.4732500E-002  0.4511116E+03  0.7546771E-02  0.1027391E+00
         21   -1    0    0  502  501  0.00000000000E+00  0.00000000000E+00  0.11995003214E+04  0.11995003214E+04  0.00000000000E+00 0. -1.
         21   -1    0    0  501  502 -0.00000000000E+00 -0.00000000000E+00 -0.42413847077E+02  0.42413847077E+02  0.00000000000E+00 0. -1.
      99926    2    1    2    0    0 -0.14210854715E-13  0.00000000000E+00  0.11570864744E+04  0.12419141685E+04  0.45111161901E+03 0.  0.
      99925    2    3    3    0    0  0.10693944653E+03 -0.19695312590E+02  0.76542657701E+03  0.81662728434E+03  0.26301772976E+03 0.  0.
         25    1    3    3    0    0 -0.10693944653E+03  0.19695312590E+02  0.39165989734E+03  0.42528688417E+03  0.12509000000E+03 0.  0.
         25    1    4    4    0    0  0.37962354786E+02  0.19444313757E+01  0.26093101957E+03  0.29185171966E+03  0.12509000000E+03 0.  0.
         25    1    4    4    0    0  0.68977091742E+02 -0.21639743965E+02  0.50449555744E+03  0.52477556468E+03  0.12509000000E+03 0.  0.
<mgrwt>
<rscale>  2 0.45111162E+03</rscale>
<asrwt>0</asrwt>
<pdfrwt beam="1">  1       21 0.17639708E+00 0.45111162E+03</pdfrwt>
<pdfrwt beam="2">  1       21 0.62373312E-02 0.45111162E+03</pdfrwt>
<totfact> 0.31801182E+04</totfact>
</mgrwt>
</event>
<event>
 7    0  0.4732500E-002  0.4660723E+03  0.7546771E-02  0.1023035E+00
         21   -1    0    0  502  501  0.00000000000E+00  0.00000000000E+00  0.56998230015E+02  0.56998230015E+02  0.00000000000E+00 0.  1.
         21   -1    0    0  501  502 -0.00000000000E+00 -0.00000000000E+00 -0.95276385059E+03  0.95276385059E+03  0.00000000000E+00 0.  1.
      99926    2    1    2    0    0  0.14210854715E-13 -0.71054273576E-14 -0.89576562058E+03  0.10097620806E+04  0.46607232531E+03 0.  0.
      99925    2    3    3    0    0  0.95039810332E+02 -0.56222216538E+02 -0.67684820390E+03  0.73450611499E+03  0.26302516736E+03 0.  0.
         25    1    4    4    0    0  0.45252417554E+02 -0.69046189080E+02 -0.34405944829E+03  0.37528598373E+03  0.12509000000E+03 0.  0.
         25    1    3    3    0    0 -0.95039810332E+02  0.56222216538E+02 -0.21891741668E+03  0.27525596562E+03  0.12509000000E+03 0.  0.
         25    1    4    4    0    0  0.49787392778E+02  0.12823972542E+02 -0.33278875560E+03  0.35922013127E+03  0.12509000000E+03 0.  0.
<mgrwt>
<rscale>  2 0.46607233E+03</rscale>
<asrwt>0</asrwt>
<pdfrwt beam="1">  1       21 0.83820929E-02 0.46607233E+03</pdfrwt>
<pdfrwt beam="2">  1       21 0.14011233E+00 0.46607233E+03</pdfrwt>
<totfact> 0.35609240E+04</totfact>
</mgrwt>
</event>
<event>
 7    0  0.4732500E-002  0.4436282E+03  0.7546771E-02  0.1029639E+00
         21   -1    0    0  502  501  0.00000000000E+00  0.00000000000E+00  0.66619291067E+02  0.66619291067E+02  0.00000000000E+00 0.  1.
         21   -1    0    0  501  502 -0.00000000000E+00 -0.00000000000E+00 -0.73854723147E+03  0.73854723147E+03  0.00000000000E+00 0.  1.
      99926    2    1    2    0    0  0.00000000000E+00 -0.69388939039E-15 -0.67192794041E+03  0.80516652254E+03  0.44362819108E+03 0.  0.
      99925    2    3    3    0    0  0.88990812306E+02  0.17903509071E+00 -0.51776117443E+03  0.58760205724E+03  0.26321122165E+03 0.  0.
         25    1    4    4    0    0  0.51956221856E+02  0.32628660356E+02 -0.31359173041E+03  0.34314918031E+03  0.12509000000E+03 0.  0.
         25    1    4    4    0    0  0.37034590450E+02 -0.32449625265E+02 -0.20416944402E+03  0.24445287693E+03  0.12509000000E+03 0.  0.
         25    1    3    3    0    0 -0.88990812306E+02 -0.17903509071E+00 -0.15416676598E+03  0.21756446530E+03  0.12509000000E+03 0.  0.
<mgrwt>
<rscale>  2 0.44362819E+03</rscale>
<asrwt>0</asrwt>
<pdfrwt beam="1">  1       21 0.97969550E-02 0.44362819E+03</pdfrwt>
<pdfrwt beam="2">  1       21 0.10860988E+00 0.44362819E+03</pdfrwt>
<totfact> 0.52003796E+04</totfact>
</mgrwt>
</event>
<event>
 7    0  0.4732500E-002  0.4453575E+03  0.7546771E-02  0.1029116E+00
         21   -1    0    0  502  501  0.00000000000E+00  0.00000000000E+00  0.18840607816E+03  0.18840607816E+03  0.00000000000E+00 0. -1.
         21   -1    0    0  501  502 -0.00000000000E+00 -0.00000000000E+00 -0.26318595155E+03  0.26318595155E+03  0.00000000000E+00 0. -1.
      99926    2    1    2    0    0  0.00000000000E+00  0.00000000000E+00 -0.74779873390E+02  0.45159202971E+03  0.44535753259E+03 0.  0.
      99925    2    3    3    0    0 -0.33087366988E+02 -0.20247361185E+02  0.50346738758E+02  0.27045973922E+03  0.26288580591E+03 0.  0.
         25    1    3    3    0    0  0.33087366988E+02  0.20247361185E+02 -0.12512661215E+03  0.18113229049E+03  0.12509000000E+03 0.  0.
         25    1    4    4    0    0 -0.54713202151E+01  0.15389634030E+02  0.54516722939E+02  0.13742764409E+03  0.12509000000E+03 0.  0.
         25    1    4    4    0    0 -0.27616046773E+02 -0.35636995215E+02 -0.41699841810E+01  0.13303209513E+03  0.12509000000E+03 0.  0.
<mgrwt>
<rscale>  2 0.44535753E+03</rscale>
<asrwt>0</asrwt>
<pdfrwt beam="1">  1       21 0.27706776E-01 0.44535753E+03</pdfrwt>
<pdfrwt beam="2">  1       21 0.38703816E-01 0.44535753E+03</pdfrwt>
<totfact> 0.74352431E+04</totfact>
</mgrwt>
</event>
<event>
 7    0  0.4732500E-002  0.4550955E+03  0.7546771E-02  0.1026213E+00
         21   -1    0    0  502  501  0.00000000000E+00  0.00000000000E+00  0.27901145976E+02  0.27901145976E+02  0.00000000000E+00 0. -1.
         21   -1    0    0  501  502 -0.00000000000E+00 -0.00000000000E+00 -0.18557656329E+04  0.18557656329E+04  0.00000000000E+00 0. -1.
      99926    2    1    2    0    0  0.00000000000E+00  0.00000000000E+00 -0.18278644869E+04  0.18836667789E+04  0.45509554083E+03 0.  0.
      99925    2    3    3    0    0  0.30814663194E+02 -0.37852202156E+02 -0.15731712172E+04  0.15957457786E+04  0.26297258126E+03 0.  0.
         25    1    3    3    0    0 -0.30814663194E+02  0.37852202156E+02 -0.25469326966E+03  0.28792100025E+03  0.12509000000E+03 0.  0.
         25    1    4    4    0    0  0.29880915789E+02 -0.50590860377E+02 -0.95165527621E+03  0.96163796573E+03  0.12509000000E+03 0.  0.
         25    1    4    4    0    0  0.93374740488E+00  0.12738658221E+02 -0.62151594103E+03  0.63410781288E+03  0.12509000000E+03 0.  0.
<mgrwt>
<rscale>  2 0.45509554E+03</rscale>
<asrwt>0</asrwt>
<pdfrwt beam="1">  1       21 0.41031080E-02 0.45509554E+03</pdfrwt>
<pdfrwt beam="2">  1       21 0.27290682E+00 0.45509554E+03</pdfrwt>
<totfact> 0.15691875E+04</totfact>
</mgrwt>
</event>
<event>
 7    0  0.4732500E-002  0.4473048E+03  0.7546771E-02  0.1028529E+00
         21   -1    0    0  502  501  0.00000000000E+00  0.00000000000E+00  0.14829986401E+03  0.14829986401E+03  0.00000000000E+00 0. -1.
         21   -1    0    0  501  502 -0.00000000000E+00 -0.00000000000E+00 -0.33729218700E+03  0.33729218700E+03  0.00000000000E+00 0. -1.
      99926    2    1    2    0    0  0.00000000000E+00  0.00000000000E+00 -0.18899232299E+03  0.48559205101E+03  0.44730475277E+03 0.  0.
      99925    2    3    3    0    0  0.47649453074E+02  0.43101672503E+02 -0.28465057750E+02  0.27217992498E+03  0.26295137858E+03 0.  0.
         25    1    3    3    0    0 -0.47649453074E+02 -0.43101672503E+02 -0.16052726524E+03  0.21341212603E+03  0.12509000000E+03 0.  0.
         25    1    4    4    0    0  0.48052837436E+02  0.51260090833E+02  0.70822470807E+00  0.14347362747E+03  0.12509000000E+03 0.  0.
         25    1    4    4    0    0 -0.40338436143E+00 -0.81584183303E+01 -0.29173282458E+02  0.12870629751E+03  0.12509000000E+03 0.  0.
<mgrwt>
<rscale>  2 0.44730475E+03</rscale>
<asrwt>0</asrwt>
<pdfrwt beam="1">  1       21 0.21808804E-01 0.44730475E+03</pdfrwt>
<pdfrwt beam="2">  1       21 0.49601792E-01 0.44730475E+03</pdfrwt>
<totfact> 0.70504937E+04</totfact>
</mgrwt>
</event>
<event>
 7    0  0.4732500E-002  0.4508100E+03  0.7546771E-02  0.1027481E+00
         21   -1    0    0  502  501  0.00000000000E+00  0.00000000000E+00  0.25317004368E+03  0.25317004368E+03  0.00000000000E+00 0. -1.
         21   -1    0    0  501  502 -0.00000000000E+00 -0.00000000000E+00 -0.20068493754E+03  0.20068493754E+03  0.00000000000E+00 0. -1.
      99926    2    1    2    0    0  0.00000000000E+00 -0.71054273576E-14  0.52485106134E+02  0.45385498122E+03  0.45081000168E+03 0.  0.
      99925    2    3    3    0    0 -0.51655515237E+02 -0.56685667675E+02  0.11141893113E+03  0.29573394845E+03  0.26298827518E+03 0.  0.
         25    1    4    4    0    0 -0.81602833447E+01 -0.46232805184E+02  0.90188187445E+02  0.16120012331E+03  0.12509000000E+03 0.  0.
         25    1    4    4    0    0 -0.43495231892E+02 -0.10452862491E+02  0.21230743683E+02  0.13453382515E+03  0.12509000000E+03 0.  0.
         25    1    3    3    0    0  0.51655515237E+02  0.56685667675E+02 -0.58933824994E+02  0.15812103276E+03  0.12509000000E+03 0.  0.
<mgrwt>
<rscale>  2 0.45081000E+03</rscale>
<asrwt>0</asrwt>
<pdfrwt beam="1">  1       21 0.37230889E-01 0.45081000E+03</pdfrwt>
<pdfrwt beam="2">  1       21 0.29512491E-01 0.45081000E+03</pdfrwt>
<totfact> 0.70972741E+04</totfact>
</mgrwt>
</event>
<event>
 7    0  0.4732500E-002  0.4608514E+03  0.7546771E-02  0.1024535E+00
         21   -1    0    0  502  501  0.00000000000E+00  0.00000000000E+00  0.87326418733E+02  0.87326418733E+02  0.00000000000E+00 0.  1.
         21   -1    0    0  501  502 -0.00000000000E+00 -0.00000000000E+00 -0.60801756049E+03  0.60801756049E+03  0.00000000000E+00 0.  1.
      99926    2    1    2    0    0 -0.14210854715E-13  0.17763568394E-14 -0.52069114176E+03  0.69534397922E+03  0.46085136903E+03 0.  0.
      99925    2    3    3    0    0  0.10232514314E+03 -0.10868336354E+02 -0.41480086930E+03  0.50182701988E+03  0.26302479171E+03 0.  0.
         25    1    3    3    0    0 -0.10232514314E+03  0.10868336354E+02 -0.10589027245E+03  0.19351695934E+03  0.12509000000E+03 0.  0.
         25    1    4    4    0    0  0.26352488817E+02 -0.14830588412E+02 -0.13802391661E+03  0.18871277031E+03  0.12509000000E+03 0.  0.
         25    1    4    4    0    0  0.75972654320E+02  0.39622520583E+01 -0.27677695269E+03  0.31311424957E+03  0.12509000000E+03 0.  0.
<mgrwt>
<rscale>  2 0.46085137E+03</rscale>
<asrwt>0</asrwt>
<pdfrwt beam="1">  1       21 0.12842121E-01 0.46085137E+03</pdfrwt>
<pdfrwt beam="2">  1       21 0.89414346E-01 0.46085137E+03</pdfrwt>
<totfact> 0.50777190E+04</totfact>
</mgrwt>
</event>
<event>
 7    0  0.4732500E-002  0.4576594E+03  0.7546771E-02  0.1025462E+00
         21   -1    0    0  502  501  0.00000000000E+00  0.00000000000E+00  0.26943517609E+03  0.26943517609E+03  0.00000000000E+00 0.  1.
         21   -1    0    0  501  502 -0.00000000000E+00 -0.00000000000E+00 -0.19434370535E+03  0.19434370535E+03  0.00000000000E+00 0.  1.
      99926    2    1    2    0    0  0.00000000000E+00  0.00000000000E+00  0.75091470744E+02  0.46377888144E+03  0.45765939506E+03 0.  0.
      99925    2    3    3    0    0 -0.25307153563E+02  0.61161141163E+02 -0.48778538481E+02  0.27570329957E+03  0.26315741747E+03 0.  0.
         25    1    3    3    0    0  0.25307153563E+02 -0.61161141163E+02  0.12387000922E+03  0.18807558187E+03  0.12509000000E+03 0.  0.
         25    1    4    4    0    0  0.23764090520E+00  0.23534177525E+02 -0.62675460780E+02  0.14187894653E+03  0.12509000000E+03 0.  0.
         25    1    4    4    0    0 -0.25544794468E+02  0.37626963639E+02  0.13896922299E+02  0.13382435304E+03  0.12509000000E+03 0.  0.
<mgrwt>
<rscale>  2 0.45765940E+03</rscale>
<asrwt>0</asrwt>
<pdfrwt beam="1">  1       21 0.39622820E-01 0.45765940E+03</pdfrwt>
<pdfrwt beam="2">  1       21 0.28579956E-01 0.45765940E+03</pdfrwt>
<totfact> 0.66484157E+04</totfact>
</mgrwt>
</event>
<event>
 7    0  0.4732500E-002  0.4159077E+03  0.7546771E-02  0.1038406E+00
         21   -1    0    0  502  501  0.00000000000E+00  0.00000000000E+00  0.11187028380E+03  0.11187028380E+03  0.00000000000E+00 0.  1.
         21   -1    0    0  501  502 -0.00000000000E+00 -0.00000000000E+00 -0.38656197767E+03  0.38656197767E+03  0.00000000000E+00 0.  1.
      99926    2    1    2    0    0  0.17763568394E-14  0.00000000000E+00 -0.27469169387E+03  0.49843226147E+03  0.41590767317E+03 0.  0.
      99925    2    3    3    0    0  0.15254534931E+02  0.48357025775E+02 -0.23868737096E+03  0.35873644140E+03  0.26296210859E+03 0.  0.
         25    1    4    4    0    0 -0.12250658898E+02  0.59182140637E+01 -0.74527656687E+02  0.14624289252E+03  0.12509000000E+03 0.  0.
         25    1    4    4    0    0  0.27505193829E+02  0.42438811711E+02 -0.16415971427E+03  0.21249354888E+03  0.12509000000E+03 0.  0.
         25    1    3    3    0    0 -0.15254534931E+02 -0.48357025775E+02 -0.36004322910E+02  0.13969582007E+03  0.12509000000E+03 0.  0.
<mgrwt>
<rscale>  2 0.41590767E+03</rscale>
<asrwt>0</asrwt>
<pdfrwt beam="1">  1       21 0.16451512E-01 0.41590767E+03</pdfrwt>
<pdfrwt beam="2">  1       21 0.56847349E-01 0.41590767E+03</pdfrwt>
<totfact> 0.90285904E+04</totfact>
</mgrwt>
</event>
<event>
 7    0  0.4732500E-002  0.4502858E+03  0.7546771E-02  0.1027637E+00
         21   -1    0    0  502  501  0.00000000000E+00  0.00000000000E+00  0.91055213326E+03  0.91055213326E+03  0.00000000000E+00 0.  1.
         21   -1    0    0  501  502 -0.00000000000E+00 -0.00000000000E+00 -0.55668769510E+02  0.55668769510E+02  0.00000000000E+00 0.  1.
      99926    2    1    2    0    0  0.00000000000E+00  0.00000000000E+00  0.85488336375E+03  0.96622090277E+03  0.45028576186E+03 0.  0.
      99925    2    3    3    0    0  0.10622984075E+03 -0.18887484304E+02  0.56552811801E+03  0.63303104328E+03  0.26318193967E+03 0.  0.
         25    1    3    3    0    0 -0.10622984075E+03  0.18887484304E+02  0.28935524574E+03  0.33318985949E+03  0.12509000000E+03 0.  0.
         25    1    4    4    0    0  0.66670877692E+02 -0.45704296165E+01  0.37790912808E+03  0.40364428888E+03  0.12509000000E+03 0.  0.
         25    1    4    4    0    0  0.39558963056E+02 -0.14317054688E+02  0.18761898993E+03  0.22938675440E+03  0.12509000000E+03 0.  0.
<mgrwt>
<rscale>  2 0.45028576E+03</rscale>
<asrwt>0</asrwt>
<pdfrwt beam="1">  1       21 0.13390472E+00 0.45028576E+03</pdfrwt>
<pdfrwt beam="2">  1       21 0.81865843E-02 0.45028576E+03</pdfrwt>
<totfact> 0.42018319E+04</totfact>
</mgrwt>
</event>
<event>
 7    0  0.4732500E-002  0.4457875E+03  0.7546771E-02  0.1028986E+00
         21   -1    0    0  502  501  0.00000000000E+00  0.00000000000E+00  0.12721699805E+03  0.12721699805E+03  0.00000000000E+00 0.  1.
         21   -1    0    0  501  502 -0.00000000000E+00 -0.00000000000E+00 -0.39052668013E+03  0.39052668013E+03  0.00000000000E+00 0.  1.
      99926    2    1    2    0    0  0.88817841970E-15  0.00000000000E+00 -0.26330968208E+03  0.51774367818E+03  0.44578753641E+03 0.  0.
      99925    2    3    3    0    0 -0.79301900592E+01  0.10392536798E+03 -0.16207078357E+03  0.32601420028E+03  0.26297328738E+03 0.  0.
         25    1    4    4    0    0 -0.13532521314E+02  0.90553568306E+02 -0.70405243705E+02  0.17025711235E+03  0.12509000000E+03 0.  0.
         25    1    4    4    0    0  0.56023312552E+01  0.13371799669E+02 -0.91665539860E+02  0.15575708793E+03  0.12509000000E+03 0.  0.
         25    1    3    3    0    0  0.79301900592E+01 -0.10392536798E+03 -0.10123889852E+03  0.19172947790E+03  0.12509000000E+03 0.  0.
<mgrwt>
<rscale>  2 0.44578754E+03</rscale>
<asrwt>0</asrwt>
<pdfrwt beam="1">  1       21 0.18708382E-01 0.44578754E+03</pdfrwt>
<pdfrwt beam="2">  1       21 0.57430394E-01 0.44578754E+03</pdfrwt>
<totfact> 0.68942885E+04</totfact>
</mgrwt>
</event>
<event>
 6    0  0.4732500E-002  0.4865382E+03  0.7546771E-02  0.1017354E+00
         21   -1    0    0  502  501  0.00000000000E+00  0.00000000000E+00  0.58175425785E+02  0.58175425785E+02  0.00000000000E+00 0.  1.
         21   -1    0    0  501  502 -0.00000000000E+00 -0.00000000000E+00 -0.10172656535E+04  0.10172656535E+04  0.00000000000E+00 0.  1.
      99926    2    1    2    0    0  0.44408920985E-15  0.00000000000E+00 -0.95909022773E+03  0.10754410793E+04  0.48653823089E+03 0.  0.
         25    1    3    3    0    0 -0.29758591165E+01 -0.62572193333E+02 -0.19280049838E+03  0.23820931005E+03  0.12509000000E+03 0.  0.
         25    1    3    3    0    0  0.58306154504E+01 -0.61269341941E+01 -0.11383148044E+03  0.16934181244E+03  0.12509000000E+03 0.  0.
         25    1    3    3    0    0 -0.28547563338E+01  0.68699127527E+02 -0.65245824891E+03  0.66788995682E+03  0.12509000000E+03 0.  0.
<mgrwt>
<rscale>  2 0.48653823E+03</rscale>
<asrwt>0</asrwt>
<pdfrwt beam="1">  1       21 0.85552101E-02 0.48653823E+03</pdfrwt>
<pdfrwt beam="2">  1       21 0.14959788E+00 0.48653823E+03</pdfrwt>
<totfact> 0.28633912E+04</totfact>
</mgrwt>
</event>
<event>
 7    0  0.4732500E-002  0.4533206E+03  0.7546771E-02  0.1026736E+00
         21   -1    0    0  502  501  0.00000000000E+00  0.00000000000E+00  0.65023601031E+03  0.65023601031E+03  0.00000000000E+00 0. -1.
         21   -1    0    0  501  502 -0.00000000000E+00 -0.00000000000E+00 -0.79009611667E+02  0.79009611667E+02  0.00000000000E+00 0. -1.
      99926    2    1    2    0    0  0.00000000000E+00  0.00000000000E+00  0.57122639864E+03  0.72924562198E+03  0.45332061355E+03 0.  0.
      99925    2    3    3    0    0  0.53345047547E+02 -0.91803085829E+02  0.41490490087E+03  0.50262386787E+03  0.26308016863E+03 0.  0.
         25    1    4    4    0    0  0.12482107057E+02 -0.60169404361E+02  0.14756016026E+03  0.20297208974E+03  0.12509000000E+03 0.  0.
         25    1    4    4    0    0  0.40862940490E+02 -0.31633681468E+02  0.26734474060E+03  0.29965177813E+03  0.12509000000E+03 0.  0.
         25    1    3    3    0    0 -0.53345047547E+02  0.91803085829E+02  0.15632149778E+03  0.22662175410E+03  0.12509000000E+03 0.  0.
<mgrwt>
<rscale>  2 0.45332061E+03</rscale>
<asrwt>0</asrwt>
<pdfrwt beam="1">  1       21 0.95622940E-01 0.45332061E+03</pdfrwt>
<pdfrwt beam="2">  1       21 0.11619061E-01 0.45332061E+03</pdfrwt>
<totfact> 0.52027428E+04</totfact>
</mgrwt>
</event>
<event>
 7    0  0.4732500E-002  0.4598341E+03  0.7546771E-02  0.1024829E+00
         21   -1    0    0  502  501  0.00000000000E+00  0.00000000000E+00  0.46319457109E+02  0.46319457109E+02  0.00000000000E+00 0.  1.
         21   -1    0    0  501  502 -0.00000000000E+00 -0.00000000000E+00 -0.11412452230E+04  0.11412452230E+04  0.00000000000E+00 0.  1.
      99926    2    1    2    0    0  0.00000000000E+00  0.00000000000E+00 -0.10949257659E+04  0.11875646801E+04  0.45983414035E+03 0.  0.
      99925    2    3    3    0    0  0.77695385387E+02 -0.83009659660E+02 -0.60793190401E+03  0.67206714751E+03  0.26299405761E+03 0.  0.
         25    1    4    4    0    0  0.29870903277E+02  0.29171916141E+00 -0.26070966234E+03  0.29070499153E+03  0.12509000000E+03 0.  0.
         25    1    4    4    0    0  0.47824482110E+02 -0.83301378822E+02 -0.34722224167E+03  0.38136215598E+03  0.12509000000E+03 0.  0.
         25    1    3    3    0    0 -0.77695385387E+02  0.83009659660E+02 -0.48699386187E+03  0.51549753259E+03  0.12509000000E+03 0.  0.
<mgrwt>
<rscale>  2 0.45983414E+03</rscale>
<asrwt>0</asrwt>
<pdfrwt beam="1">  1       21 0.68116861E-02 0.45983414E+03</pdfrwt>
<pdfrwt beam="2">  1       21 0.16783015E+00 0.45983414E+03</pdfrwt>
<totfact> 0.31354937E+04</totfact>
</mgrwt>
</event>
<event>
 7    0  0.4732500E-002  0.4551470E+03  0.7546771E-02  0.1026198E+00
         21   -1    0    0  502  501  0.00000000000E+00  0.00000000000E+00  0.25325040984E+03  0.25325040984E+03  0.00000000000E+00 0. -1.
         21   -1    0    0  501  502 -0.00000000000E+00 -0.00000000000E+00 -0.20449993317E+03  0.20449993317E+03  0.00000000000E+00 0. -1.
      99926    2    1    2    0    0  0.00000000000E+00  0.00000000000E+00  0.48750476668E+02  0.45775034301E+03  0.45514697357E+03 0.  0.
      99925    2    3    3    0    0 -0.40915275953E+02  0.93771746147E+02 -0.18242496285E+02  0.28281387824E+03  0.26302794694E+03 0.  0.
         25    1    4    4    0    0  0.76751185471E+01  0.28029327440E+02 -0.33169671867E+02  0.13263591472E+03  0.12509000000E+03 0.  0.
         25    1    4    4    0    0 -0.48590394500E+02  0.65742418707E+02  0.14927175582E+02  0.15017796352E+03  0.12509000000E+03 0.  0.
         25    1    3    3    0    0  0.40915275953E+02 -0.93771746147E+02  0.66992972954E+02  0.17493646477E+03  0.12509000000E+03 0.  0.
<mgrwt>
<rscale>  2 0.45514697E+03</rscale>
<asrwt>0</asrwt>
<pdfrwt beam="1">  1       21 0.37242707E-01 0.45514697E+03</pdfrwt>
<pdfrwt beam="2">  1       21 0.30073520E-01 0.45514697E+03</pdfrwt>
<totfact> 0.68264650E+04</totfact>
</mgrwt>
</event>
<event>
 7    0  0.4732500E-002  0.4636872E+03  0.7546771E-02  0.1023717E+00
         21   -1    0    0  502  501  0.00000000000E+00  0.00000000000E+00  0.74564143905E+02  0.74564143905E+02  0.00000000000E+00 0.  1.
         21   -1    0    0  501  502 -0.00000000000E+00 -0.00000000000E+00 -0.72087523375E+03  0.72087523375E+03  0.00000000000E+00 0.  1.
      99926    2    1    2    0    0  0.00000000000E+00 -0.35527136788E-14 -0.64631108985E+03  0.79543937766E+03  0.46368715603E+03 0.  0.
      99925    2    3    3    0    0 -0.11927657861E+03 -0.20991405799E+02 -0.40443579363E+03  0.49741470025E+03  0.26303142690E+03 0.  0.
         25    1    3    3    0    0  0.11927657861E+03  0.20991405799E+02 -0.24187529622E+03  0.29802467741E+03  0.12509000000E+03 0.  0.
         25    1    4    4    0    0 -0.84374000838E+02 -0.44914546883E+02 -0.22618329115E+03  0.27557699075E+03  0.12509000000E+03 0.  0.
         25    1    4    4    0    0 -0.34902577768E+02  0.23923141084E+02 -0.17825250248E+03  0.22183770950E+03  0.12509000000E+03 0.  0.
<mgrwt>
<rscale>  2 0.46368716E+03</rscale>
<asrwt>0</asrwt>
<pdfrwt beam="1">  1       21 0.10965316E-01 0.46368716E+03</pdfrwt>
<pdfrwt beam="2">  1       21 0.10601106E+00 0.46368716E+03</pdfrwt>
<totfact> 0.44849427E+04</totfact>
</mgrwt>
</event>
<event>
 7    0  0.4732500E-002  0.4744305E+03  0.7546771E-02  0.1020677E+00
         21   -1    0    0  502  501  0.00000000000E+00  0.00000000000E+00  0.11854704066E+03  0.11854704066E+03  0.00000000000E+00 0.  1.
         21   -1    0    0  501  502 -0.00000000000E+00 -0.00000000000E+00 -0.47467294357E+03  0.47467294357E+03  0.00000000000E+00 0.  1.
      99926    2    1    2    0    0  0.00000000000E+00 -0.71054273576E-14 -0.35612590291E+03  0.59321998422E+03  0.47443049118E+03 0.  0.
      99925    2    3    3    0    0  0.11670242875E+03  0.35297548999E+02 -0.27874926394E+03  0.40217018391E+03  0.26301013448E+03 0.  0.
         25    1    4    4    0    0  0.85857830871E+02  0.50823199238E+02 -0.14813471157E+03  0.21805037394E+03  0.12509000000E+03 0.  0.
         25    1    4    4    0    0  0.30844597876E+02 -0.15525650239E+02 -0.13061455238E+03  0.18411980998E+03  0.12509000000E+03 0.  0.
         25    1    3    3    0    0 -0.11670242875E+03 -0.35297548999E+02 -0.77376638966E+02  0.19104980031E+03  0.12509000000E+03 0.  0.
<mgrwt>
<rscale>  2 0.47443049E+03</rscale>
<asrwt>0</asrwt>
<pdfrwt beam="1">  1       21 0.17433388E-01 0.47443049E+03</pdfrwt>
<pdfrwt beam="2">  1       21 0.69804846E-01 0.47443049E+03</pdfrwt>
<totfact> 0.50830160E+04</totfact>
</mgrwt>
</event>
<event>
 7    0  0.4732500E-002  0.4559532E+03  0.7546771E-02  0.1025961E+00
         21   -1    0    0  502  501  0.00000000000E+00  0.00000000000E+00  0.12852909729E+04  0.12852909729E+04  0.00000000000E+00 0. -1.
         21   -1    0    0  501  502 -0.00000000000E+00 -0.00000000000E+00 -0.40437018892E+02  0.40437018892E+02  0.00000000000E+00 0. -1.
      99926    2    1    2    0    0  0.00000000000E+00  0.71054273576E-14  0.12448539540E+04  0.13257279918E+04  0.45595322283E+03 0.  0.
      99925    2    3    3    0    0  0.90248883008E+02  0.55771442425E+02  0.66126278709E+03  0.71952549025E+03  0.26304589495E+03 0.  0.
         25    1    4    4    0    0  0.52144586457E+02  0.22617932493E+01  0.40239621025E+03  0.42461087095E+03  0.12509000000E+03 0.  0.
         25    1    4    4    0    0  0.38104296551E+02  0.53509649176E+02  0.25886657684E+03  0.29491461930E+03  0.12509000000E+03 0.  0.
         25    1    3    3    0    0 -0.90248883008E+02 -0.55771442425E+02  0.58359116691E+03  0.60620250154E+03  0.12509000000E+03 0.  0.
<mgrwt>
<rscale>  2 0.45595322E+03</rscale>
<asrwt>0</asrwt>
<pdfrwt beam="1">  1       21 0.18901335E+00 0.45595322E+03</pdfrwt>
<pdfrwt beam="2">  1       21 0.59466213E-02 0.45595322E+03</pdfrwt>
<totfact> 0.28167242E+04</totfact>
</mgrwt>
</event>
<event>
 7    0  0.4732500E-002  0.4554906E+03  0.7546771E-02  0.1026097E+00
         21   -1    0    0  502  501  0.00000000000E+00  0.00000000000E+00  0.59249814079E+03  0.59249814079E+03  0.00000000000E+00 0.  1.
         21   -1    0    0  501  502 -0.00000000000E+00 -0.00000000000E+00 -0.87541072924E+02  0.87541072924E+02  0.00000000000E+00 0.  1.
      99926    2    1    2    0    0  0.00000000000E+00  0.14210854715E-13  0.50495706786E+03  0.68003921371E+03  0.45549060561E+03 0.  0.
      99925    2    3    3    0    0  0.94449715046E+01  0.10354048162E+03  0.24889765952E+03  0.37668501888E+03  0.26292911538E+03 0.  0.
         25    1    3    3    0    0 -0.94449715046E+01 -0.10354048162E+03  0.25605940835E+03  0.30335419483E+03  0.12509000000E+03 0.  0.
         25    1    4    4    0    0 -0.29308044849E+02  0.37736298122E+02  0.95099674604E+02  0.16423899019E+03  0.12509000000E+03 0.  0.
         25    1    4    4    0    0  0.38753016353E+02  0.65804183495E+02  0.15379798491E+03  0.21244602869E+03  0.12509000000E+03 0.  0.
<mgrwt>
<rscale>  2 0.45549061E+03</rscale>
<asrwt>0</asrwt>
<pdfrwt beam="1">  1       21 0.87132077E-01 0.45549061E+03</pdfrwt>
<pdfrwt beam="2">  1       21 0.12873687E-01 0.45549061E+03</pdfrwt>
<totfact> 0.53792469E+04</totfact>
</mgrwt>
</event>
<event>
 7    0  0.4732500E-002  0.4580843E+03  0.7546771E-02  0.1025338E+00
         21   -1    0    0  502  501  0.00000000000E+00  0.00000000000E+00  0.57890392815E+02  0.57890392815E+02  0.00000000000E+00 0.  1.
         21   -1    0    0  501  502 -0.00000000000E+00 -0.00000000000E+00 -0.90620062133E+03  0.90620062133E+03  0.00000000000E+00 0.  1.
      99926    2    1    2    0    0 -0.35527136788E-14  0.14210854715E-13 -0.84831022852E+03  0.96409101415E+03  0.45808431511E+03 0.  0.
      99925    2    3    3    0    0  0.22941406111E+02 -0.98177585141E+02 -0.65321310251E+03  0.71135490075E+03  0.26300815803E+03 0.  0.
         25    1    4    4    0    0 -0.77528543860E+01 -0.85001056431E+02 -0.37806905062E+03  0.40727018241E+03  0.12509000000E+03 0.  0.
         25    1    4    4    0    0  0.30694260497E+02 -0.13176528710E+02 -0.27514405190E+03  0.30408471834E+03  0.12509000000E+03 0.  0.
         25    1    3    3    0    0 -0.22941406111E+02  0.98177585141E+02 -0.19509712600E+03  0.25273611339E+03  0.12509000000E+03 0.  0.
<mgrwt>
<rscale>  2 0.45808432E+03</rscale>
<asrwt>0</asrwt>
<pdfrwt beam="1">  1       21 0.85132934E-02 0.45808432E+03</pdfrwt>
<pdfrwt beam="2">  1       21 0.13326479E+00 0.45808432E+03</pdfrwt>
<totfact> 0.39611567E+04</totfact>
</mgrwt>
</event>
<event>
 7    0  0.4732500E-002  0.4539859E+03  0.7546771E-02  0.1026540E+00
         21   -1    0    0  502  501  0.00000000000E+00  0.00000000000E+00  0.84580915755E+03  0.84580915755E+03  0.00000000000E+00 0.  1.
         21   -1    0    0  501  502 -0.00000000000E+00 -0.00000000000E+00 -0.60918942700E+02  0.60918942700E+02  0.00000000000E+00 0.  1.
      99926    2    1    2    0    0  0.00000000000E+00  0.00000000000E+00  0.78489021485E+03  0.90672810025E+03  0.45398590112E+03 0.  0.
      99925    2    3    3    0    0  0.77109419902E+02 -0.80070275052E+02  0.52511581770E+03  0.59771781386E+03  0.26298831041E+03 0.  0.
         25    1    3    3    0    0 -0.77109419902E+02  0.80070275052E+02  0.25977439714E+03  0.30901028639E+03  0.12509000000E+03 0.  0.
         25    1    4    4    0    0  0.45405957603E+02 -0.19395393644E+02  0.32740377862E+03  0.35394720600E+03  0.12509000000E+03 0.  0.
         25    1    4    4    0    0  0.31703462299E+02 -0.60674881408E+02  0.19771203908E+03  0.24377060785E+03  0.12509000000E+03 0.  0.
<mgrwt>
<rscale>  2 0.45398590E+03</rscale>
<asrwt>0</asrwt>
<pdfrwt beam="1">  1       21 0.12438369E+00 0.45398590E+03</pdfrwt>
<pdfrwt beam="2">  1       21 0.89586685E-02 0.45398590E+03</pdfrwt>
<totfact> 0.43286733E+04</totfact>
</mgrwt>
</event>
<event>
 7    0  0.4732500E-002  0.4536765E+03  0.7546771E-02  0.1026631E+00
         21   -1    0    0  502  501  0.00000000000E+00  0.00000000000E+00  0.10968368626E+04  0.10968368626E+04  0.00000000000E+00 0. -1.
         21   -1    0    0  501  502 -0.00000000000E+00 -0.00000000000E+00 -0.46912708072E+02  0.46912708072E+02  0.00000000000E+00 0. -1.
      99926    2    1    2    0    0  0.00000000000E+00 -0.71054273576E-14  0.10499241545E+04  0.11437495707E+04  0.45367648181E+03 0.  0.
      99925    2    3    3    0    0 -0.82593829503E+02  0.40038878235E+02  0.50078966452E+03  0.57311742238E+03  0.26315098196E+03 0.  0.
         25    1    3    3    0    0  0.82593829503E+02 -0.40038878235E+02  0.54913449001E+03  0.57063214828E+03  0.12509000000E+03 0.  0.
         25    1    4    4    0    0 -0.71457579826E+02  0.50417039553E+02  0.28010183075E+03  0.31898684500E+03  0.12509000000E+03 0.  0.
         25    1    4    4    0    0 -0.11136249678E+02 -0.10378161318E+02  0.22068783376E+03  0.25413057738E+03  0.12509000000E+03 0.  0.
<mgrwt>
<rscale>  2 0.45367648E+03</rscale>
<asrwt>0</asrwt>
<pdfrwt beam="1">  1       21 0.16129952E+00 0.45367648E+03</pdfrwt>
<pdfrwt beam="2">  1       21 0.68989284E-02 0.45367648E+03</pdfrwt>
<totfact> 0.34344669E+04</totfact>
</mgrwt>
</event>
<event>
 7    0  0.4732500E-002  0.4622632E+03  0.7546771E-02  0.1024127E+00
         21   -1    0    0  502  501  0.00000000000E+00  0.00000000000E+00  0.93070402907E+03  0.93070402907E+03  0.00000000000E+00 0.  1.
         21   -1    0    0  501  502 -0.00000000000E+00 -0.00000000000E+00 -0.57399372719E+02  0.57399372719E+02  0.00000000000E+00 0.  1.
      99926    2    1    2    0    0  0.71054273576E-14  0.71054273576E-14  0.87330465635E+03  0.98810340179E+03  0.46226324732E+03 0.  0.
      99925    2    3    3    0    0 -0.32504434471E+02 -0.40352391858E+02  0.31426126202E+03  0.41289745725E+03  0.26275333605E+03 0.  0.
         25    1    4    4    0    0 -0.21319437826E+02  0.23864530407E+01  0.10307181086E+03  0.16349776721E+03  0.12509000000E+03 0.  0.
         25    1    4    4    0    0 -0.11184996645E+02 -0.42738844898E+02  0.21118945116E+03  0.24939969004E+03  0.12509000000E+03 0.  0.
         25    1    3    3    0    0  0.32504434471E+02  0.40352391858E+02  0.55904339433E+03  0.57520594454E+03  0.12509000000E+03 0.  0.
<mgrwt>
<rscale>  2 0.46226325E+03</rscale>
<asrwt>0</asrwt>
<pdfrwt beam="1">  1       21 0.13686823E+00 0.46226325E+03</pdfrwt>
<pdfrwt beam="2">  1       21 0.84410848E-02 0.46226325E+03</pdfrwt>
<totfact> 0.37461698E+04</totfact>
</mgrwt>
</event>
<event>
 7    0  0.4732500E-002  0.4499761E+03  0.7546771E-02  0.1027729E+00
         21   -1    0    0  502  501  0.00000000000E+00  0.00000000000E+00  0.22508902423E+03  0.22508902423E+03  0.00000000000E+00 0.  1.
         21   -1    0    0  501  502 -0.00000000000E+00 -0.00000000000E+00 -0.22488713626E+03  0.22488713626E+03  0.00000000000E+00 0.  1.
      99926    2    1    2    0    0  0.00000000000E+00  0.00000000000E+00  0.20188797220E+00  0.44997616049E+03  0.44997611520E+03 0.  0.
      99925    2    3    3    0    0  0.66661504466E+02 -0.54399800966E+02  0.65980019900E+02  0.28451509177E+03  0.26304444472E+03 0.  0.
         25    1    3    3    0    0 -0.66661504466E+02  0.54399800966E+02 -0.65778131928E+02  0.16546106872E+03  0.12509000000E+03 0.  0.
         25    1    4    4    0    0  0.33177183285E+02  0.13862064406E+02  0.36708368268E+02  0.13523274279E+03  0.12509000000E+03 0.  0.
         25    1    4    4    0    0  0.33484321181E+02 -0.68261865372E+02  0.29271651632E+02  0.14928234898E+03  0.12509000000E+03 0.  0.
<mgrwt>
<rscale>  2 0.44997612E+03</rscale>
<asrwt>0</asrwt>
<pdfrwt beam="1">  1       21 0.33101327E-01 0.44997612E+03</pdfrwt>
<pdfrwt beam="2">  1       21 0.33071638E-01 0.44997612E+03</pdfrwt>
<totfact> 0.71748636E+04</totfact>
</mgrwt>
</event>
<event>
 7    0  0.4732500E-002  0.4530129E+03  0.7546771E-02  0.1026827E+00
         21   -1    0    0  502  501  0.00000000000E+00  0.00000000000E+00  0.10500369367E+03  0.10500369367E+03  0.00000000000E+00 0. -1.
         21   -1    0    0  501  502 -0.00000000000E+00 -0.00000000000E+00 -0.48860339023E+03  0.48860339023E+03  0.00000000000E+00 0. -1.
      99926    2    1    2    0    0 -0.14210854715E-13 -0.35527136788E-14 -0.38359969656E+03  0.59360708390E+03  0.45301285065E+03 0.  0.
      99925    2    3    3    0    0  0.10841327179E+03  0.24286615053E+02 -0.23505832634E+03  0.36987661226E+03  0.26308366416E+03 0.  0.
         25    1    4    4    0    0  0.65717068471E+02  0.30245955329E+02 -0.16782505365E+03  0.22146400980E+03  0.12509000000E+03 0.  0.
         25    1    3    3    0    0 -0.10841327179E+03 -0.24286615053E+02 -0.14854137022E+03  0.22373047163E+03  0.12509000000E+03 0.  0.
         25    1    4    4    0    0  0.42696203319E+02 -0.59593402756E+01 -0.67233272693E+02  0.14841260247E+03  0.12509000000E+03 0.  0.
<mgrwt>
<rscale>  2 0.45301285E+03</rscale>
<asrwt>0</asrwt>
<pdfrwt beam="1">  1       21 0.15441720E-01 0.45301285E+03</pdfrwt>
<pdfrwt beam="2">  1       21 0.71853439E-01 0.45301285E+03</pdfrwt>
<totfact> 0.60010351E+04</totfact>
</mgrwt>
</event>
<event>
 7    0  0.4732500E-002  0.4516442E+03  0.7546771E-02  0.1027233E+00
         21   -1    0    0  502  501  0.00000000000E+00  0.00000000000E+00  0.13287238985E+03  0.13287238985E+03  0.00000000000E+00 0. -1.
         21   -1    0    0  501  502 -0.00000000000E+00 -0.00000000000E+00 -0.38379399770E+03  0.38379399770E+03  0.00000000000E+00 0. -1.
      99926    2    1    2    0    0  0.00000000000E+00  0.00000000000E+00 -0.25092160785E+03  0.51666638754E+03  0.45164422140E+03 0.  0.
      99925    2    3    3    0    0  0.40770651612E+02  0.10009742994E+03 -0.13593440830E+03  0.31529283994E+03  0.26315332041E+03 0.  0.
         25    1    4    4    0    0  0.35398149188E+02  0.43690131973E+02 -0.26470937301E+02  0.13967847085E+03  0.12509000000E+03 0.  0.
         25    1    3    3    0    0 -0.40770651612E+02 -0.10009742994E+03 -0.11498719955E+03  0.20137354760E+03  0.12509000000E+03 0.  0.
         25    1    4    4    0    0  0.53725024245E+01  0.56407297969E+02 -0.10946347100E+03  0.17561436909E+03  0.12509000000E+03 0.  0.
<mgrwt>
<rscale>  2 0.45164422E+03</rscale>
<asrwt>0</asrwt>
<pdfrwt beam="1">  1       21 0.19540058E-01 0.45164422E+03</pdfrwt>
<pdfrwt beam="2">  1       21 0.56440293E-01 0.45164422E+03</pdfrwt>
<totfact> 0.65850864E+04</totfact>
</mgrwt>
</event>
<event>
 7    0  0.4732500E-002  0.4527398E+03  0.7546771E-02  0.1026908E+00
         21   -1    0    0  502  501  0.00000000000E+00  0.00000000000E+00  0.31693506623E+02  0.31693506623E+02  0.00000000000E+00 0.  1.
         21   -1    0    0  501  502 -0.00000000000E+00 -0.00000000000E+00 -0.16168402764E+04  0.16168402764E+04  0.00000000000E+00 0.  1.
      99926    2    1    2    0    0  0.00000000000E+00  0.00000000000E+00 -0.15851467698E+04  0.16485337831E+04  0.45273982820E+03 0.  0.
      99925    2    3    3    0    0  0.41989652133E+02 -0.65146029307E+02 -0.12891787724E+04  0.13180013344E+04  0.26294195989E+03 0.  0.
         25    1    4    4    0    0  0.13054777900E+02 -0.14378447746E+02 -0.79012827508E+03  0.80020457770E+03  0.12509000000E+03 0.  0.
         25    1    4    4    0    0  0.28934874233E+02 -0.50767581561E+02 -0.49905049731E+03  0.51779675670E+03  0.12509000000E+03 0.  0.
         25    1    3    3    0    0 -0.41989652133E+02  0.65146029307E+02 -0.29596799742E+03  0.33053244866E+03  0.12509000000E+03 0.  0.
<mgrwt>
<rscale>  2 0.45273983E+03</rscale>
<asrwt>0</asrwt>
<pdfrwt beam="1">  1       21 0.46608091E-02 0.45273983E+03</pdfrwt>
<pdfrwt beam="2">  1       21 0.23777066E+00 0.45273983E+03</pdfrwt>
<totfact> 0.20716086E+04</totfact>
</mgrwt>
</event>
<event>
 7    0  0.4732500E-002  0.4534926E+03  0.7546771E-02  0.1026686E+00
         21   -1    0    0  502  501  0.00000000000E+00  0.00000000000E+00  0.17200098544E+02  0.17200098544E+02  0.00000000000E+00 0.  1.
         21   -1    0    0  501  502 -0.00000000000E+00 -0.00000000000E+00 -0.29891620013E+04  0.29891620013E+04  0.00000000000E+00 0.  1.
      99926    2    1    2    0    0  0.35527136788E-14  0.00000000000E+00 -0.29719619028E+04  0.30063620999E+04  0.45349258423E+03 0.  0.
      99925    2    3    3    0    0  0.17949655690E+02  0.93534843395E+02 -0.22606401531E+04  0.22778725003E+04  0.26294156874E+03 0.  0.
         25    1    3    3    0    0 -0.17949655690E+02 -0.93534843395E+02 -0.71132174971E+03  0.72848959964E+03  0.12509000000E+03 0.  0.
         25    1    4    4    0    0 -0.11341177313E+02  0.16583223065E+02 -0.12096432974E+04  0.12162598574E+04  0.12509000000E+03 0.  0.
         25    1    4    4    0    0  0.29290833004E+02  0.76951620331E+02 -0.10509968557E+04  0.10616126429E+04  0.12509000000E+03 0.  0.
<mgrwt>
<rscale>  2 0.45349258E+03</rscale>
<asrwt>0</asrwt>
<pdfrwt beam="1">  1       21 0.25294302E-02 0.45349258E+03</pdfrwt>
<pdfrwt beam="2">  1       21 0.43958196E+00 0.45349258E+03</pdfrwt>
<totfact> 0.32500330E+03</totfact>
</mgrwt>
</event>
<event>
 7    0  0.4732500E-002  0.4589194E+03  0.7546771E-02  0.1025095E+00
         21   -1    0    0  502  501  0.00000000000E+00  0.00000000000E+00  0.43184466364E+03  0.43184466364E+03  0.00000000000E+00 0. -1.
         21   -1    0    0  501  502 -0.00000000000E+00 -0.00000000000E+00 -0.12192289863E+03  0.12192289863E+03  0.00000000000E+00 0. -1.
      99926    2    1    2    0    0  0.00000000000E+00  0.00000000000E+00  0.30992176501E+03  0.55376756226E+03  0.45891939661E+03 0.  0.
      99925    2    3    3    0    0  0.11134329099E+03  0.27490334148E+02  0.22171379985E+03  0.36250543811E+03  0.26286904857E+03 0.  0.
         25    1    4    4    0    0  0.87297557258E+02  0.13857793393E+02  0.85093909193E+02  0.17521810244E+03  0.12509000000E+03 0.  0.
         25    1    4    4    0    0  0.24045733728E+02  0.13632540755E+02  0.13661989066E+03  0.18728733567E+03  0.12509000000E+03 0.  0.
         25    1    3    3    0    0 -0.11134329099E+03 -0.27490334148E+02  0.88207965162E+02  0.19126212416E+03  0.12509000000E+03 0.  0.
<mgrwt>
<rscale>  2 0.45891940E+03</rscale>
<asrwt>0</asrwt>
<pdfrwt beam="1">  1       21 0.63506568E-01 0.45891940E+03</pdfrwt>
<pdfrwt beam="2">  1       21 0.17929838E-01 0.45891940E+03</pdfrwt>
<totfact> 0.59744074E+04</totfact>
</mgrwt>
</event>
<event>
 7    0  0.4732500E-002  0.4557131E+03  0.7546771E-02  0.1026032E+00
         21   -1    0    0  502  501  0.00000000000E+00  0.00000000000E+00  0.18433710267E+02  0.18433710267E+02  0.00000000000E+00 0.  1.
         21   -1    0    0  501  502 -0.00000000000E+00 -0.00000000000E+00 -0.28165036639E+04  0.28165036639E+04  0.00000000000E+00 0.  1.
      99926    2    1    2    0    0  0.14210854715E-13 -0.14210854715E-13 -0.27980699536E+04  0.28349373742E+04  0.45571312250E+03 0.  0.
      99925    2    3    3    0    0  0.72281220743E+02  0.84337142203E+02 -0.16025289960E+04  0.16277493118E+04  0.26292833745E+03 0.  0.
         25    1    3    3    0    0 -0.72281220743E+02 -0.84337142203E+02 -0.11955409577E+04  0.12071880624E+04  0.12509000000E+03 0.  0.
         25    1    4    4    0    0  0.63517048717E+02  0.12836566102E+02 -0.76108800592E+03  0.77401657202E+03  0.12509000000E+03 0.  0.
         25    1    4    4    0    0  0.87641720260E+01  0.71500576102E+02 -0.84144099004E+03  0.85373273975E+03  0.12509000000E+03 0.  0.
<mgrwt>
<rscale>  2 0.45571312E+03</rscale>
<asrwt>0</asrwt>
<pdfrwt beam="1">  1       21 0.27108381E-02 0.45571312E+03</pdfrwt>
<pdfrwt beam="2">  1       21 0.41419197E+00 0.45571312E+03</pdfrwt>
<totfact> 0.42525699E+03</totfact>
</mgrwt>
</event>
<event>
 7    0  0.4732500E-002  0.4588544E+03  0.7546771E-02  0.1025114E+00
         21   -1    0    0  502  501  0.00000000000E+00  0.00000000000E+00  0.21810085937E+03  0.21810085937E+03  0.00000000000E+00 0.  1.
         21   -1    0    0  501  502 -0.00000000000E+00 -0.00000000000E+00 -0.24134170866E+03  0.24134170866E+03  0.00000000000E+00 0.  1.
      99926    2    1    2    0    0 -0.35527136788E-14  0.00000000000E+00 -0.23240849289E+02  0.45944256804E+03  0.45885437369E+03 0.  0.
      99925    2    3    3    0    0 -0.25933358090E+02 -0.20628567624E+02  0.97480059093E+02  0.28247047226E+03  0.26303826511E+03 0.  0.
         25    1    4    4    0    0 -0.40227176130E+01  0.17478868863E+02  0.17364547503E+02  0.12755676667E+03  0.12509000000E+03 0.  0.
         25    1    3    3    0    0  0.25933358090E+02  0.20628567624E+02 -0.12072090838E+03  0.17697209578E+03  0.12509000000E+03 0.  0.
         25    1    4    4    0    0 -0.21910640477E+02 -0.38107436486E+02  0.80115511590E+02  0.15491370559E+03  0.12509000000E+03 0.  0.
<mgrwt>
<rscale>  2 0.45885437E+03</rscale>
<asrwt>0</asrwt>
<pdfrwt beam="1">  1       21 0.32073656E-01 0.45885437E+03</pdfrwt>
<pdfrwt beam="2">  1       21 0.35491427E-01 0.45885437E+03</pdfrwt>
<totfact> 0.66163295E+04</totfact>
</mgrwt>
</event>
<event>
 7    0  0.4732500E-002  0.4490591E+03  0.7546771E-02  0.1028003E+00
         21   -1    0    0  502  501  0.00000000000E+00  0.00000000000E+00  0.67038712073E+03  0.67038712073E+03  0.00000000000E+00 0. -1.
         21   -1    0    0  501  502 -0.00000000000E+00 -0.00000000000E+00 -0.75200594913E+02  0.75200594913E+02  0.00000000000E+00 0. -1.
      99926    2    1    2    0    0 -0.88817841970E-15  0.17763568394E-14  0.59518652581E+03  0.74558771564E+03  0.44905906204E+03 0.  0.
      99925    2    3    3    0    0 -0.45877512810E+01 -0.10547663223E+02  0.19896927424E+03  0.32993411081E+03  0.26293619896E+03 0.  0.
         25    1    4    4    0    0  0.13904334847E+02  0.15973207262E+01  0.53395360042E+02  0.13672766558E+03  0.12509000000E+03 0.  0.
         25    1    3    3    0    0  0.45877512810E+01  0.10547663223E+02  0.39621725157E+03  0.41565360483E+03  0.12509000000E+03 0.  0.
         25    1    4    4    0    0 -0.18492086128E+02 -0.12144983949E+02  0.14557391420E+03  0.19320644523E+03  0.12509000000E+03 0.  0.
<mgrwt>
<rscale>  2 0.44905906E+03</rscale>
<asrwt>0</asrwt>
<pdfrwt beam="1">  1       21 0.98586338E-01 0.44905906E+03</pdfrwt>
<pdfrwt beam="2">  1       21 0.11058911E-01 0.44905906E+03</pdfrwt>
<totfact> 0.52925255E+04</totfact>
</mgrwt>
</event>
<event>
 7    0  0.4732500E-002  0.4567807E+03  0.7546771E-02  0.1025719E+00
         21   -1    0    0  502  501  0.00000000000E+00  0.00000000000E+00  0.19388824472E+02  0.19388824472E+02  0.00000000000E+00 0. -1.
         21   -1    0    0  501  502 -0.00000000000E+00 -0.00000000000E+00 -0.26903202798E+04  0.26903202798E+04  0.00000000000E+00 0. -1.
      99926    2    1    2    0    0  0.71054273576E-14  0.14210854715E-13 -0.26709314553E+04  0.27097091042E+04  0.45678068120E+03 0.  0.
      99925    2    3    3    0    0 -0.34128856336E+02 -0.10973269468E+03 -0.17405116917E+04  0.17639107707E+04  0.26228651313E+03 0.  0.
         25    1    4    4    0    0  0.71808568331E+01 -0.70120353661E+02 -0.10557034494E+04  0.10654227846E+04  0.12509000000E+03 0.  0.
         25    1    3    3    0    0  0.34128856336E+02  0.10973269468E+03 -0.93041976357E+03  0.94579833351E+03  0.12509000000E+03 0.  0.
         25    1    4    4    0    0 -0.41309713169E+02 -0.39612341022E+02 -0.68480824232E+03  0.69848798617E+03  0.12509000000E+03 0.  0.
<mgrwt>
<rscale>  2 0.45678068E+03</rscale>
<asrwt>0</asrwt>
<pdfrwt beam="1">  1       21 0.28512960E-02 0.45678068E+03</pdfrwt>
<pdfrwt beam="2">  1       21 0.39563558E+00 0.45678068E+03</pdfrwt>
<totfact> 0.51438977E+03</totfact>
</mgrwt>
</event>
<event>
 7    0  0.4732500E-002  0.4472230E+03  0.7546771E-02  0.1028553E+00
         21   -1    0    0  502  501  0.00000000000E+00  0.00000000000E+00  0.58135577302E+02  0.58135577302E+02  0.00000000000E+00 0. -1.
         21   -1    0    0  501  502 -0.00000000000E+00 -0.00000000000E+00 -0.86009489775E+03  0.86009489775E+03  0.00000000000E+00 0. -1.
      99926    2    1    2    0    0  0.00000000000E+00 -0.17763568394E-14 -0.80195932045E+03  0.91823047505E+03  0.44722304688E+03 0.  0.
      99925    2    3    3    0    0 -0.10342115399E+03  0.12742494592E+02 -0.53767181573E+03  0.60782155200E+03  0.26362426174E+03 0.  0.
         25    1    4    4    0    0 -0.57206461636E+02 -0.17925082229E+02 -0.34191671870E+03  0.36898297854E+03  0.12509000000E+03 0.  0.
         25    1    3    3    0    0  0.10342115399E+03 -0.12742494592E+02 -0.26428750472E+03  0.31040892306E+03  0.12509000000E+03 0.  0.
         25    1    4    4    0    0 -0.46214692358E+02  0.30667576820E+02 -0.19575509703E+03  0.23883857346E+03  0.12509000000E+03 0.  0.
<mgrwt>
<rscale>  2 0.44722305E+03</rscale>
<asrwt>0</asrwt>
<pdfrwt beam="1">  1       21 0.85493495E-02 0.44722305E+03</pdfrwt>
<pdfrwt beam="2">  1       21 0.12648455E+00 0.44722305E+03</pdfrwt>
<totfact> 0.45138914E+04</totfact>
</mgrwt>
</event>
<event>
 7    0  0.4732500E-002  0.4561990E+03  0.7546771E-02  0.1025889E+00
         21   -1    0    0  502  501  0.00000000000E+00  0.00000000000E+00  0.29594552597E+03  0.29594552597E+03  0.00000000000E+00 0. -1.
         21   -1    0    0  501  502 -0.00000000000E+00 -0.00000000000E+00 -0.17580731049E+03  0.17580731049E+03  0.00000000000E+00 0. -1.
      99926    2    1    2    0    0 -0.71054273576E-14  0.00000000000E+00  0.12013821548E+03  0.47175283647E+03  0.45619902224E+03 0.  0.
      99925    2    3    3    0    0 -0.34341712987E+02 -0.10034376028E+03  0.30699848819E+02  0.28495092800E+03  0.26269055402E+03 0.  0.
         25    1    4    4    0    0 -0.44517381375E+02 -0.22921250331E+02  0.27137613203E+02  0.13744504033E+03  0.12509000000E+03 0.  0.
         25    1    3    3    0    0  0.34341712987E+02  0.10034376028E+03  0.89438366663E+02  0.18680190847E+03  0.12509000000E+03 0.  0.
         25    1    4    4    0    0  0.10175668388E+02 -0.77422509944E+02  0.35622356161E+01  0.14750588766E+03  0.12509000000E+03 0.  0.
<mgrwt>
<rscale>  2 0.45619902E+03</rscale>
<asrwt>0</asrwt>
<pdfrwt beam="1">  1       21 0.43521401E-01 0.45619902E+03</pdfrwt>
<pdfrwt beam="2">  1       21 0.25854016E-01 0.45619902E+03</pdfrwt>
<totfact> 0.66669136E+04</totfact>
</mgrwt>
</event>
<event>
 7    0  0.4732500E-002  0.4653177E+03  0.7546771E-02  0.1023250E+00
         21   -1    0    0  502  501  0.00000000000E+00  0.00000000000E+00  0.38763304306E+03  0.38763304306E+03  0.00000000000E+00 0. -1.
         21   -1    0    0  501  502 -0.00000000000E+00 -0.00000000000E+00 -0.13964273971E+03  0.13964273971E+03  0.00000000000E+00 0. -1.
      99926    2    1    2    0    0  0.00000000000E+00  0.00000000000E+00  0.24799030335E+03  0.52727578277E+03  0.46531769851E+03 0.  0.
      99925    2    3    3    0    0 -0.38386570556E+02 -0.11026880886E+03  0.19696911698E+03  0.34871652492E+03  0.26300882628E+03 0.  0.
         25    1    4    4    0    0 -0.17006272343E+02 -0.82689038937E+02  0.67435531137E+02  0.16529292005E+03  0.12509000000E+03 0.  0.
         25    1    3    3    0    0  0.38386570556E+02  0.11026880886E+03  0.51021186366E+02  0.17855925785E+03  0.12509000000E+03 0.  0.
         25    1    4    4    0    0 -0.21380298213E+02 -0.27579769924E+02  0.12953358585E+03  0.18342360487E+03  0.12509000000E+03 0.  0.
<mgrwt>
<rscale>  2 0.46531770E+03</rscale>
<asrwt>0</asrwt>
<pdfrwt beam="1">  1       21 0.57004859E-01 0.46531770E+03</pdfrwt>
<pdfrwt beam="2">  1       21 0.20535697E-01 0.46531770E+03</pdfrwt>
<totfact> 0.58460310E+04</totfact>
</mgrwt>
</event>
<event>
 7    0  0.4732500E-002  0.4532270E+03  0.7546771E-02  0.1026764E+00
         21   -1    0    0  502  501  0.00000000000E+00  0.00000000000E+00  0.10394226710E+03  0.10394226710E+03  0.00000000000E+00 0. -1.
         21   -1    0    0  501  502 -0.00000000000E+00 -0.00000000000E+00 -0.49405969026E+03  0.49405969026E+03  0.00000000000E+00 0. -1.
      99926    2    1    2    0    0 -0.71054273576E-14 -0.14210854715E-13 -0.39011742316E+03  0.59800195736E+03  0.45322702606E+03 0.  0.
      99925    2    3    3    0    0  0.58039175162E+02  0.93372574340E+02 -0.22227569752E+03  0.36155886387E+03  0.26311849582E+03 0.  0.
         25    1    3    3    0    0 -0.58039175162E+02 -0.93372574340E+02 -0.16784172565E+03  0.23644309349E+03  0.12509000000E+03 0.  0.
         25    1    4    4    0    0  0.25667223682E+02  0.21943790335E+02 -0.61971862920E+02  0.14362575048E+03  0.12509000000E+03 0.  0.
         25    1    4    4    0    0  0.32371951480E+02  0.71428784006E+02 -0.16030383460E+03  0.21793311339E+03  0.12509000000E+03 0.  0.
<mgrwt>
<rscale>  2 0.45322703E+03</rscale>
<asrwt>0</asrwt>
<pdfrwt beam="1">  1       21 0.15285627E-01 0.45322703E+03</pdfrwt>
<pdfrwt beam="2">  1       21 0.72655838E-01 0.45322703E+03</pdfrwt>
<totfact> 0.59632455E+04</totfact>
</mgrwt>
</event>
<event>
 7    0  0.4732500E-002  0.4550318E+03  0.7546771E-02  0.1026232E+00
         21   -1    0    0  502  501  0.00000000000E+00  0.00000000000E+00  0.43421392451E+03  0.43421392451E+03  0.00000000000E+00 0. -1.
         21   -1    0    0  501  502 -0.00000000000E+00 -0.00000000000E+00 -0.11921193902E+03  0.11921193902E+03  0.00000000000E+00 0. -1.
      99926    2    1    2    0    0 -0.14210854715E-13  0.00000000000E+00  0.31500198549E+03  0.55342586353E+03  0.45503179622E+03 0.  0.
      99925    2    3    3    0    0 -0.67670217872E+02 -0.25652562875E+01  0.87844425804E+02  0.28540738666E+03  0.26297318169E+03 0.  0.
         25    1    3    3    0    0  0.67670217872E+02  0.25652562875E+01  0.22715755968E+03  0.26801847688E+03  0.12509000000E+03 0.  0.
         25    1    4    4    0    0 -0.32484791774E+02 -0.93196489811E+00  0.12571593795E+01  0.12924867042E+03  0.12509000000E+03 0.  0.
         25    1    4    4    0    0 -0.35185426097E+02 -0.16332913894E+01  0.86587266424E+02  0.15615871624E+03  0.12509000000E+03 0.  0.
<mgrwt>
<rscale>  2 0.45503180E+03</rscale>
<asrwt>0</asrwt>
<pdfrwt beam="1">  1       21 0.63854988E-01 0.45503180E+03</pdfrwt>
<pdfrwt beam="2">  1       21 0.17531168E-01 0.45503180E+03</pdfrwt>
<totfact> 0.61625191E+04</totfact>
</mgrwt>
</event>
<event>
 7    0  0.4732500E-002  0.4642853E+03  0.7546771E-02  0.1023546E+00
         21   -1    0    0  502  501  0.00000000000E+00  0.00000000000E+00  0.34042562818E+03  0.34042562818E+03  0.00000000000E+00 0. -1.
         21   -1    0    0  501  502 -0.00000000000E+00 -0.00000000000E+00 -0.15830243412E+03  0.15830243412E+03  0.00000000000E+00 0. -1.
      99926    2    1    2    0    0  0.00000000000E+00  0.00000000000E+00  0.18212319406E+03  0.49872806230E+03  0.46428528117E+03 0.  0.
      99925    2    3    3    0    0 -0.91179661726E+02  0.79425522561E+02  0.98889964996E+02  0.30586172810E+03  0.26296392755E+03 0.  0.
         25    1    3    3    0    0  0.91179661726E+02 -0.79425522561E+02  0.83233229064E+02  0.19286633420E+03  0.12509000000E+03 0.  0.
         25    1    4    4    0    0 -0.53989728123E+02  0.54110501384E+02  0.12078815533E+02  0.14709263404E+03  0.12509000000E+03 0.  0.
         25    1    4    4    0    0 -0.37189933603E+02  0.25315021177E+02  0.86811149463E+02  0.15876909406E+03  0.12509000000E+03 0.  0.
<mgrwt>
<rscale>  2 0.46428528E+03</rscale>
<asrwt>0</asrwt>
<pdfrwt beam="1">  1       21 0.50062593E-01 0.46428528E+03</pdfrwt>
<pdfrwt beam="2">  1       21 0.23279770E-01 0.46428528E+03</pdfrwt>
<totfact> 0.60756603E+04</totfact>
</mgrwt>
</event>
<event>
 7    0  0.4732500E-002  0.4764087E+03  0.7546771E-02  0.1020127E+00
         21   -1    0    0  502  501  0.00000000000E+00  0.00000000000E+00  0.23881520024E+03  0.23881520024E+03  0.00000000000E+00 0.  1.
         21   -1    0    0  501  502 -0.00000000000E+00 -0.00000000000E+00 -0.23759509403E+03  0.23759509403E+03  0.00000000000E+00 0.  1.
      99926    2    1    2    0    0  0.00000000000E+00  0.00000000000E+00  0.12201062126E+01  0.47641029427E+03  0.47640873190E+03 0.  0.
      99925    2    3    3    0    0 -0.99860403943E+02  0.71477928996E+02 -0.48090094949E+02  0.29431087459E+03  0.26310651657E+03 0.  0.
         25    1    4    4    0    0 -0.89900803558E+02  0.22819804460E+02 -0.28246610853E+02  0.15826647491E+03  0.12509000000E+03 0.  0.
         25    1    4    4    0    0 -0.99596003858E+01  0.48658124537E+02 -0.19843484095E+02  0.13604439968E+03  0.12509000000E+03 0.  0.
         25    1    3    3    0    0  0.99860403943E+02 -0.71477928996E+02  0.49310201161E+02  0.18209941968E+03  0.12509000000E+03 0.  0.
<mgrwt>
<rscale>  2 0.47640873E+03</rscale>
<asrwt>0</asrwt>
<pdfrwt beam="1">  1       21 0.35119883E-01 0.47640873E+03</pdfrwt>
<pdfrwt beam="2">  1       21 0.34940455E-01 0.47640873E+03</pdfrwt>
<totfact> 0.56685319E+04</totfact>
</mgrwt>
</event>
<event>
 7    0  0.4732500E-002  0.4631300E+03  0.7546771E-02  0.1023877E+00
         21   -1    0    0  502  501  0.00000000000E+00  0.00000000000E+00  0.69502355069E+02  0.69502355069E+02  0.00000000000E+00 0. -1.
         21   -1    0    0  501  502 -0.00000000000E+00 -0.00000000000E+00 -0.77151845925E+03  0.77151845925E+03  0.00000000000E+00 0. -1.
      99926    2    1    2    0    0  0.00000000000E+00  0.00000000000E+00 -0.70201610418E+03  0.84102081432E+03  0.46313000290E+03 0.  0.
      99925    2    3    3    0    0 -0.14075383644E+02  0.59807065882E+02 -0.62718803121E+03  0.68283816622E+03  0.26292229499E+03 0.  0.
         25    1    3    3    0    0  0.14075383644E+02 -0.59807065882E+02 -0.74828072971E+02  0.15818264810E+03  0.12509000000E+03 0.  0.
         25    1    4    4    0    0  0.14078155025E+02  0.59782681956E+02 -0.28072588493E+03  0.31341138155E+03  0.12509000000E+03 0.  0.
         25    1    4    4    0    0 -0.28153538670E+02  0.24383926423E-01 -0.34646214627E+03  0.36942678467E+03  0.12509000000E+03 0.  0.
<mgrwt>
<rscale>  2 0.46313000E+03</rscale>
<asrwt>0</asrwt>
<pdfrwt beam="1">  1       21 0.10220935E-01 0.46313000E+03</pdfrwt>
<pdfrwt beam="2">  1       21 0.11345859E+00 0.46313000E+03</pdfrwt>
<totfact> 0.43032630E+04</totfact>
</mgrwt>
</event>
<event>
 7    0  0.4732500E-002  0.4520481E+03  0.7546771E-02  0.1027113E+00
         21   -1    0    0  502  501  0.00000000000E+00  0.00000000000E+00  0.61454797554E+02  0.61454797554E+02  0.00000000000E+00 0.  1.
         21   -1    0    0  501  502 -0.00000000000E+00 -0.00000000000E+00 -0.83129189432E+03  0.83129189432E+03  0.00000000000E+00 0.  1.
      99926    2    1    2    0    0  0.00000000000E+00  0.00000000000E+00 -0.76983709677E+03  0.89274669188E+03  0.45204811724E+03 0.  0.
      99925    2    3    3    0    0 -0.62947787505E+02  0.32123746736E+02 -0.65320808443E+03  0.70769482435E+03  0.26297681227E+03 0.  0.
         25    1    4    4    0    0 -0.70877710797E+02  0.65374977450E+01 -0.32528175251E+03  0.35569947341E+03  0.12509000000E+03 0.  0.
         25    1    3    3    0    0  0.62947787505E+02 -0.32123746736E+02 -0.11662901234E+03  0.18505186753E+03  0.12509000000E+03 0.  0.
         25    1    4    4    0    0  0.79299232921E+01  0.25586248991E+02 -0.32792633192E+03  0.35199535094E+03  0.12509000000E+03 0.  0.
<mgrwt>
<rscale>  2 0.45204812E+03</rscale>
<asrwt>0</asrwt>
<pdfrwt beam="1">  1       21 0.90374708E-02 0.45204812E+03</pdfrwt>
<pdfrwt beam="2">  1       21 0.12224880E+00 0.45204812E+03</pdfrwt>
<totfact> 0.44570081E+04</totfact>
</mgrwt>
</event>
<event>
 7    0  0.4732500E-002  0.4527454E+03  0.7546771E-02  0.1026906E+00
         21   -1    0    0  502  501  0.00000000000E+00  0.00000000000E+00  0.94108505733E+03  0.94108505733E+03  0.00000000000E+00 0.  1.
         21   -1    0    0  501  502 -0.00000000000E+00 -0.00000000000E+00 -0.54452681767E+02  0.54452681767E+02  0.00000000000E+00 0.  1.
      99926    2    1    2    0    0  0.00000000000E+00  0.00000000000E+00  0.88663237556E+03  0.99553773909E+03  0.45274542578E+03 0.  0.
      99925    2    3    3    0    0  0.10229429231E+03  0.24746340351E+02  0.63429678542E+03  0.69487636520E+03  0.26352276433E+03 0.  0.
         25    1    4    4    0    0  0.33268767305E+02  0.30293996638E+02  0.38732699122E+03  0.40950487584E+03  0.12509000000E+03 0.  0.
         25    1    4    4    0    0  0.69025525003E+02 -0.55476562877E+01  0.24696979420E+03  0.28537148936E+03  0.12509000000E+03 0.  0.
         25    1    3    3    0    0 -0.10229429231E+03 -0.24746340351E+02  0.25233559014E+03  0.30066137389E+03  0.12509000000E+03 0.  0.
<mgrwt>
<rscale>  2 0.45274543E+03</rscale>
<asrwt>0</asrwt>
<pdfrwt beam="1">  1       21 0.13839485E+00 0.45274543E+03</pdfrwt>
<pdfrwt beam="2">  1       21 0.80077479E-02 0.45274543E+03</pdfrwt>
<totfact> 0.40041243E+04</totfact>
</mgrwt>
</event>
<event>
 7    0  0.4732500E-002  0.4440033E+03  0.7546771E-02  0.1029526E+00
         21   -1    0    0  502  501  0.00000000000E+00  0.00000000000E+00  0.68703700849E+02  0.68703700849E+02  0.00000000000E+00 0.  1.
         21   -1    0    0  501  502 -0.00000000000E+00 -0.00000000000E+00 -0.71735180561E+03  0.71735180561E+03  0.00000000000E+00 0.  1.
      99926    2    1    2    0    0  0.00000000000E+00  0.00000000000E+00 -0.64864810476E+03  0.78605550645E+03  0.44400326060E+03 0.  0.
      99925    2    3    3    0    0  0.39167716296E+02 -0.16937297222E+02 -0.24718668946E+03  0.36339753822E+03  0.26293635980E+03 0.  0.
         25    1    4    4    0    0  0.14064348589E+02 -0.48561839664E+02 -0.12685701806E+03  0.18519251956E+03  0.12509000000E+03 0.  0.
         25    1    4    4    0    0  0.25103367707E+02  0.31624542442E+02 -0.12032967140E+03  0.17820501866E+03  0.12509000000E+03 0.  0.
         25    1    3    3    0    0 -0.39167716296E+02  0.16937297222E+02 -0.40146141530E+03  0.42265796823E+03  0.12509000000E+03 0.  0.
<mgrwt>
<rscale>  2 0.44400326E+03</rscale>
<asrwt>0</asrwt>
<pdfrwt beam="1">  1       21 0.10103486E-01 0.44400326E+03</pdfrwt>
<pdfrwt beam="2">  1       21 0.10549291E+00 0.44400326E+03</pdfrwt>
<totfact> 0.52863946E+04</totfact>
</mgrwt>
</event>
<event>
 7    0  0.4732500E-002  0.4667268E+03  0.7546771E-02  0.1022848E+00
         21   -1    0    0  502  501  0.00000000000E+00  0.00000000000E+00  0.17382689270E+03  0.17382689270E+03  0.00000000000E+00 0.  1.
         21   -1    0    0  501  502 -0.00000000000E+00 -0.00000000000E+00 -0.31329145674E+03  0.31329145674E+03  0.00000000000E+00 0.  1.
      99926    2    1    2    0    0  0.00000000000E+00  0.00000000000E+00 -0.13946456404E+03  0.48711834944E+03  0.46672681704E+03 0.  0.
      99925    2    3    3    0    0  0.38563331089E+02 -0.48864469351E+02 -0.19858326283E+03  0.33540350008E+03  0.26303104136E+03 0.  0.
         25    1    4    4    0    0  0.36606864340E+02 -0.23039100287E+02 -0.14654299696E+03  0.19746701172E+03  0.12509000000E+03 0.  0.
         25    1    3    3    0    0 -0.38563331089E+02  0.48864469351E+02  0.59118698796E+02  0.15171484936E+03  0.12509000000E+03 0.  0.
         25    1    4    4    0    0  0.19564667497E+01 -0.25825369064E+02 -0.52040265872E+02  0.13793648836E+03  0.12509000000E+03 0.  0.
<mgrwt>
<rscale>  2 0.46672682E+03</rscale>
<asrwt>0</asrwt>
<pdfrwt beam="1">  1       21 0.25562779E-01 0.46672682E+03</pdfrwt>
<pdfrwt beam="2">  1       21 0.46072273E-01 0.46672682E+03</pdfrwt>
<totfact> 0.60367678E+04</totfact>
</mgrwt>
</event>
<event>
 7    0  0.4732500E-002  0.4552509E+03  0.7546771E-02  0.1026168E+00
         21   -1    0    0  502  501  0.00000000000E+00  0.00000000000E+00  0.38556955193E+02  0.38556955193E+02  0.00000000000E+00 0. -1.
         21   -1    0    0  501  502 -0.00000000000E+00 -0.00000000000E+00 -0.13438133624E+04  0.13438133624E+04  0.00000000000E+00 0. -1.
      99926    2    1    2    0    0  0.00000000000E+00  0.37747582837E-14 -0.13052564072E+04  0.13823703176E+04  0.45525092686E+03 0.  0.
      99925    2    3    3    0    0 -0.94909798359E+02  0.17476335199E+01 -0.10096139383E+04  0.10476123429E+04  0.26298363580E+03 0.  0.
         25    1    3    3    0    0  0.94909798359E+02 -0.17476335199E+01 -0.29564246891E+03  0.33475797462E+03  0.12509000000E+03 0.  0.
         25    1    4    4    0    0 -0.53492034375E+02 -0.34110800845E+02 -0.58499242443E+03  0.60157176564E+03  0.12509000000E+03 0.  0.
         25    1    4    4    0    0 -0.41417763985E+02  0.35858434365E+02 -0.42462151385E+03  0.44604057731E+03  0.12509000000E+03 0.  0.
<mgrwt>
<rscale>  2 0.45525093E+03</rscale>
<asrwt>0</asrwt>
<pdfrwt beam="1">  1       21 0.56701412E-02 0.45525093E+03</pdfrwt>
<pdfrwt beam="2">  1       21 0.19761959E+00 0.45525093E+03</pdfrwt>
<totfact> 0.26753408E+04</totfact>
</mgrwt>
</event>
<event>
 7    0  0.4732500E-002  0.4844625E+03  0.7546771E-02  0.1017916E+00
         21   -1    0    0  502  501  0.00000000000E+00  0.00000000000E+00  0.77141206550E+03  0.77141206550E+03  0.00000000000E+00 0. -1.
         21   -1    0    0  501  502 -0.00000000000E+00 -0.00000000000E+00 -0.76063070287E+02  0.76063070287E+02  0.00000000000E+00 0. -1.
      99926    2    1    2    0    0  0.00000000000E+00 -0.28421709430E-13  0.69534899521E+03  0.84747513579E+03  0.48446246566E+03 0.  0.
      99925    2    3    3    0    0 -0.41830412755E+02  0.13261775374E+03  0.42434280101E+03  0.51818936714E+03  0.26289951580E+03 0.  0.
         25    1    3    3    0    0  0.41830412755E+02 -0.13261775374E+03  0.27100619420E+03  0.32928576865E+03  0.12509000000E+03 0.  0.
         25    1    4    4    0    0 -0.57916006527E+02  0.55057484051E+02  0.19212585212E+03  0.24278682319E+03  0.12509000000E+03 0.  0.
         25    1    4    4    0    0  0.16085593772E+02  0.77560269689E+02  0.23221694889E+03  0.27540254395E+03  0.12509000000E+03 0.  0.
<mgrwt>
<rscale>  2 0.48446247E+03</rscale>
<asrwt>0</asrwt>
<pdfrwt beam="1">  1       21 0.11344295E+00 0.48446247E+03</pdfrwt>
<pdfrwt beam="2">  1       21 0.11185746E-01 0.48446247E+03</pdfrwt>
<totfact> 0.36384594E+04</totfact>
</mgrwt>
</event>
<event>
 7    0  0.4732500E-002  0.4450389E+03  0.7546771E-02  0.1029212E+00
         21   -1    0    0  502  501  0.00000000000E+00  0.00000000000E+00  0.90311963425E+02  0.90311963425E+02  0.00000000000E+00 0.  1.
         21   -1    0    0  501  502 -0.00000000000E+00 -0.00000000000E+00 -0.54826523791E+03  0.54826523791E+03  0.00000000000E+00 0.  1.
      99926    2    1    2    0    0  0.00000000000E+00  0.71054273576E-14 -0.45795327449E+03  0.63857720134E+03  0.44503892016E+03 0.  0.
      99925    2    3    3    0    0 -0.94784634877E+02 -0.32335710529E+02 -0.32337198929E+03  0.42931813795E+03  0.26403578343E+03 0.  0.
         25    1    3    3    0    0  0.94784634877E+02  0.32335710529E+02 -0.13458128520E+03  0.20925906339E+03  0.12509000000E+03 0.  0.
         25    1    4    4    0    0 -0.40965892465E+02 -0.56787920747E+02 -0.14963490277E+03  0.20722254828E+03  0.12509000000E+03 0.  0.
         25    1    4    4    0    0 -0.53818742412E+02  0.24452210218E+02 -0.17373708652E+03  0.22209558967E+03  0.12509000000E+03 0.  0.
<mgrwt>
<rscale>  2 0.44503892E+03</rscale>
<asrwt>0</asrwt>
<pdfrwt beam="1">  1       21 0.13281171E-01 0.44503892E+03</pdfrwt>
<pdfrwt beam="2">  1       21 0.80627242E-01 0.44503892E+03</pdfrwt>
<totfact> 0.61021421E+04</totfact>
</mgrwt>
</event>
<event>
 7    0  0.4732500E-002  0.4604599E+03  0.7546771E-02  0.1024648E+00
         21   -1    0    0  502  501  0.00000000000E+00  0.00000000000E+00  0.59275369089E+02  0.59275369089E+02  0.00000000000E+00 0.  1.
         21   -1    0    0  501  502 -0.00000000000E+00 -0.00000000000E+00 -0.89423027786E+03  0.89423027786E+03  0.00000000000E+00 0.  1.
      99926    2    1    2    0    0  0.00000000000E+00  0.14210854715E-13 -0.83495490877E+03  0.95350564694E+03  0.46045989954E+03 0.  0.
      99925    2    3    3    0    0  0.85198879289E+02  0.76442747913E+02 -0.58007809209E+03  0.64738141968E+03  0.26364704982E+03 0.  0.
         25    1    4    4    0    0  0.57222915885E+02  0.49796212677E+01 -0.32772546139E+03  0.35545849951E+03  0.12509000000E+03 0.  0.
         25    1    3    3    0    0 -0.85198879289E+02 -0.76442747913E+02 -0.25487681668E+03  0.30612422727E+03  0.12509000000E+03 0.  0.
         25    1    4    4    0    0  0.27975963404E+02  0.71463126645E+02 -0.25235263070E+03  0.29192292017E+03  0.12509000000E+03 0.  0.
<mgrwt>
<rscale>  2 0.46045990E+03</rscale>
<asrwt>0</asrwt>
<pdfrwt beam="1">  1       21 0.87169668E-02 0.46045990E+03</pdfrwt>
<pdfrwt beam="2">  1       21 0.13150444E+00 0.46045990E+03</pdfrwt>
<totfact> 0.39294528E+04</totfact>
</mgrwt>
</event>
<event>
 7    0  0.4732500E-002  0.4060249E+03  0.7546771E-02  0.1041713E+00
         21   -1    0    0  502  501  0.00000000000E+00  0.00000000000E+00  0.41977612305E+03  0.41977612305E+03  0.00000000000E+00 0.  1.
         21   -1    0    0  501  502 -0.00000000000E+00 -0.00000000000E+00 -0.98181028517E+02  0.98181028517E+02  0.00000000000E+00 0.  1.
      99926    2    1    2    0    0  0.00000000000E+00  0.17763568394E-14  0.32159509453E+03  0.51795715156E+03  0.40602488351E+03 0.  0.
      99925    2    3    3    0    0 -0.19510680288E+02  0.13959480194E+02  0.14831841144E+03  0.30290401689E+03  0.26301512987E+03 0.  0.
         25    1    3    3    0    0  0.19510680288E+02 -0.13959480194E+02  0.17327668309E+03  0.21505313468E+03  0.12509000000E+03 0.  0.
         25    1    4    4    0    0 -0.14190206023E+02  0.39581614312E+02  0.10265397764E+03  0.16719274315E+03  0.12509000000E+03 0.  0.
         25    1    4    4    0    0 -0.53204742648E+01 -0.25622134119E+02  0.45664433804E+02  0.13571127373E+03  0.12509000000E+03 0.  0.
<mgrwt>
<rscale>  2 0.40602488E+03</rscale>
<asrwt>0</asrwt>
<pdfrwt beam="1">  1       21 0.61731782E-01 0.40602488E+03</pdfrwt>
<pdfrwt beam="2">  1       21 0.14438387E-01 0.40602488E+03</pdfrwt>
<totfact> 0.96289271E+04</totfact>
</mgrwt>
</event>
<event>
 7    0  0.4732500E-002  0.4499561E+03  0.7546771E-02  0.1027735E+00
         21   -1    0    0  502  501  0.00000000000E+00  0.00000000000E+00  0.19946404115E+03  0.19946404115E+03  0.00000000000E+00 0. -1.
         21   -1    0    0  501  502 -0.00000000000E+00 -0.00000000000E+00 -0.25375567087E+03  0.25375567087E+03  0.00000000000E+00 0. -1.
      99926    2    1    2    0    0  0.14210854715E-13  0.00000000000E+00 -0.54291629727E+02  0.45321971202E+03  0.44995613820E+03 0.  0.
      99925    2    3    3    0    0 -0.10799870231E+03  0.94527581801E+01 -0.34606089469E+02  0.28652207277E+03  0.26295292814E+03 0.  0.
         25    1    3    3    0    0  0.10799870231E+03 -0.94527581801E+01 -0.19685540258E+02  0.16669763925E+03  0.12509000000E+03 0.  0.
         25    1    4    4    0    0 -0.32093747724E+02 -0.44604367305E+01 -0.50395654068E+02  0.13869799634E+03  0.12509000000E+03 0.  0.
         25    1    4    4    0    0 -0.75904954581E+02  0.13913194911E+02  0.15789564599E+02  0.14782407643E+03  0.12509000000E+03 0.  0.
<mgrwt>
<rscale>  2 0.44995614E+03</rscale>
<asrwt>0</asrwt>
<pdfrwt beam="1">  1       21 0.29332947E-01 0.44995614E+03</pdfrwt>
<pdfrwt beam="2">  1       21 0.37317010E-01 0.44995614E+03</pdfrwt>
<totfact> 0.71510983E+04</totfact>
</mgrwt>
</event>
<event>
 7    0  0.4732500E-002  0.4639397E+03  0.7546771E-02  0.1023645E+00
         21   -1    0    0  502  501  0.00000000000E+00  0.00000000000E+00  0.17204006731E+03  0.17204006731E+03  0.00000000000E+00 0. -1.
         21   -1    0    0  501  502 -0.00000000000E+00 -0.00000000000E+00 -0.31277603355E+03  0.31277603355E+03  0.00000000000E+00 0. -1.
      99926    2    1    2    0    0  0.00000000000E+00  0.00000000000E+00 -0.14073596623E+03  0.48481610086E+03  0.46393969378E+03 0.  0.
      99925    2    3    3    0    0  0.80138087275E+02  0.67903505063E+02 -0.24233212731E+02  0.28418360423E+03  0.26294500049E+03 0.  0.
         25    1    3    3    0    0 -0.80138087275E+02 -0.67903505063E+02 -0.11650275350E+03  0.20063249663E+03  0.12509000000E+03 0.  0.
         25    1    4    4    0    0  0.61959626187E+02 -0.13140797185E+00 -0.12700837764E+02  0.14017072421E+03  0.12509000000E+03 0.  0.
         25    1    4    4    0    0  0.18178461087E+02  0.68034913035E+02 -0.11532374966E+02  0.14401288002E+03  0.12509000000E+03 0.  0.
<mgrwt>
<rscale>  2 0.46393969E+03</rscale>
<asrwt>0</asrwt>
<pdfrwt beam="1">  1       21 0.25300010E-01 0.46393969E+03</pdfrwt>
<pdfrwt beam="2">  1       21 0.45996475E-01 0.46393969E+03</pdfrwt>
<totfact> 0.61844949E+04</totfact>
</mgrwt>
</event>
<event>
 7    0  0.4732500E-002  0.4562061E+03  0.7546771E-02  0.1025887E+00
         21   -1    0    0  502  501  0.00000000000E+00  0.00000000000E+00  0.80691054864E+03  0.80691054864E+03  0.00000000000E+00 0. -1.
         21   -1    0    0  501  502 -0.00000000000E+00 -0.00000000000E+00 -0.64481737762E+02  0.64481737762E+02  0.00000000000E+00 0. -1.
      99926    2    1    2    0    0  0.00000000000E+00  0.00000000000E+00  0.74242881088E+03  0.87139228640E+03  0.45620606920E+03 0.  0.
      99925    2    3    3    0    0  0.10522296827E+03  0.14899193241E+02  0.38601141027E+03  0.47899614656E+03  0.26294227607E+03 0.  0.
         25    1    3    3    0    0 -0.10522296827E+03 -0.14899193241E+02  0.35641740061E+03  0.39239613985E+03  0.12509000000E+03 0.  0.
         25    1    4    4    0    0  0.91219361869E+02 -0.75709842642E+01  0.19419047735E+03  0.24846678124E+03  0.12509000000E+03 0.  0.
         25    1    4    4    0    0  0.14003606403E+02  0.22470177505E+02  0.19182093292E+03  0.23052936532E+03  0.12509000000E+03 0.  0.
<mgrwt>
<rscale>  2 0.45620607E+03</rscale>
<asrwt>0</asrwt>
<pdfrwt beam="1">  1       21 0.11866331E+00 0.45620607E+03</pdfrwt>
<pdfrwt beam="2">  1       21 0.94826090E-02 0.45620607E+03</pdfrwt>
<totfact> 0.44075847E+04</totfact>
</mgrwt>
</event>
<event>
 7    0  0.4732500E-002  0.4457158E+03  0.7546771E-02  0.1029007E+00
         21   -1    0    0  502  501  0.00000000000E+00  0.00000000000E+00  0.13857640765E+03  0.13857640765E+03  0.00000000000E+00 0.  1.
         21   -1    0    0  501  502 -0.00000000000E+00 -0.00000000000E+00 -0.35839904470E+03  0.35839904470E+03  0.00000000000E+00 0.  1.
      99926    2    1    2    0    0  0.00000000000E+00  0.14210854715E-13 -0.21982263705E+03  0.49697545235E+03  0.44571583827E+03 0.  0.
      99925    2    3    3    0    0 -0.65818730357E+02  0.71944418956E+02 -0.98374852813E+02  0.29721265031E+03  0.26296319734E+03 0.  0.
         25    1    4    4    0    0 -0.69281611857E+02  0.21313100261E+02 -0.39020087148E+02  0.14974733816E+03  0.12509000000E+03 0.  0.
         25    1    4    4    0    0  0.34628814998E+01  0.50631318696E+02 -0.59354765665E+02  0.14746531215E+03  0.12509000000E+03 0.  0.
         25    1    3    3    0    0  0.65818730357E+02 -0.71944418956E+02 -0.12144778424E+03  0.19976280204E+03  0.12509000000E+03 0.  0.
<mgrwt>
<rscale>  2 0.44571584E+03</rscale>
<asrwt>0</asrwt>
<pdfrwt beam="1">  1       21 0.20378884E-01 0.44571584E+03</pdfrwt>
<pdfrwt beam="2">  1       21 0.52705741E-01 0.44571584E+03</pdfrwt>
<totfact> 0.70540568E+04</totfact>
</mgrwt>
</event>
<event>
 7    0  0.4732500E-002  0.4621950E+03  0.7546771E-02  0.1024147E+00
         21   -1    0    0  502  501  0.00000000000E+00  0.00000000000E+00  0.63535575283E+03  0.63535575283E+03  0.00000000000E+00 0. -1.
         21   -1    0    0  501  502 -0.00000000000E+00 -0.00000000000E+00 -0.84056943150E+02  0.84056943150E+02  0.00000000000E+00 0. -1.
      99926    2    1    2    0    0  0.00000000000E+00  0.00000000000E+00  0.55129880968E+03  0.71941269598E+03  0.46219503414E+03 0.  0.
      99925    2    3    3    0    0 -0.84862165870E+02 -0.30879572597E+02  0.46724370198E+03  0.54372005404E+03  0.26298229015E+03 0.  0.
         25    1    4    4    0    0 -0.84646873186E+02 -0.19871104872E+02  0.26474096675E+03  0.30544269761E+03  0.12509000000E+03 0.  0.
         25    1    4    4    0    0 -0.21529268369E+00 -0.11008467725E+02  0.20250273523E+03  0.23827735643E+03  0.12509000000E+03 0.  0.
         25    1    3    3    0    0  0.84862165870E+02  0.30879572597E+02  0.84055107701E+02  0.17569264194E+03  0.12509000000E+03 0.  0.
<mgrwt>
<rscale>  2 0.46219503E+03</rscale>
<asrwt>0</asrwt>
<pdfrwt beam="1">  1       21 0.93434667E-01 0.46219503E+03</pdfrwt>
<pdfrwt beam="2">  1       21 0.12361315E-01 0.46219503E+03</pdfrwt>
<totfact> 0.49027463E+04</totfact>
</mgrwt>
</event>
<event>
 7    0  0.4732500E-002  0.4521504E+03  0.7546771E-02  0.1027083E+00
         21   -1    0    0  502  501  0.00000000000E+00  0.00000000000E+00  0.41520085112E+02  0.41520085112E+02  0.00000000000E+00 0. -1.
         21   -1    0    0  501  502 -0.00000000000E+00 -0.00000000000E+00 -0.12309703071E+04  0.12309703071E+04  0.00000000000E+00 0. -1.
      99926    2    1    2    0    0  0.00000000000E+00  0.35527136788E-14 -0.11894502220E+04  0.12724903922E+04  0.45215038172E+03 0.  0.
      99925    2    3    3    0    0 -0.17181758337E+02  0.28772935580E+02 -0.10464338197E+04  0.10795544079E+04  0.26323162011E+03 0.  0.
         25    1    4    4    0    0  0.12402129476E+02  0.49416443740E+02 -0.54770375346E+03  0.56411231806E+03  0.12509000000E+03 0.  0.
         25    1    3    3    0    0  0.17181758337E+02 -0.28772935580E+02 -0.14301640226E+03  0.19293598435E+03  0.12509000000E+03 0.  0.
         25    1    4    4    0    0 -0.29583887813E+02 -0.20643508160E+02 -0.49873006626E+03  0.51544208981E+03  0.12509000000E+03 0.  0.
<mgrwt>
<rscale>  2 0.45215038E+03</rscale>
<asrwt>0</asrwt>
<pdfrwt beam="1">  1       21 0.61058953E-02 0.45215038E+03</pdfrwt>
<pdfrwt beam="2">  1       21 0.18102503E+00 0.45215038E+03</pdfrwt>
<totfact> 0.30597088E+04</totfact>
</mgrwt>
</event>
<event>
 7    0  0.4732500E-002  0.4241508E+03  0.7546771E-02  0.1035724E+00
         21   -1    0    0  502  501  0.00000000000E+00  0.00000000000E+00  0.17711134294E+04  0.17711134294E+04  0.00000000000E+00 0. -1.
         21   -1    0    0  501  502 -0.00000000000E+00 -0.00000000000E+00 -0.25394186970E+02  0.25394186970E+02  0.00000000000E+00 0. -1.
      99926    2    1    2    0    0  0.00000000000E+00  0.00000000000E+00  0.17457192424E+04  0.17965076164E+04  0.42415084850E+03 0.  0.
      99925    2    3    3    0    0  0.74483902116E+02  0.18468670491E+02  0.12422003136E+04  0.12720385865E+04  0.26292889356E+03 0.  0.
         25    1    3    3    0    0 -0.74483902116E+02 -0.18468670491E+02  0.50351892888E+03  0.52446902988E+03  0.12509000000E+03 0.  0.
         25    1    4    4    0    0  0.12482999916E+00  0.57559697327E+01  0.48709149034E+03  0.50293018883E+03  0.12509000000E+03 0.  0.
         25    1    4    4    0    0  0.74359072117E+02  0.12712700758E+02  0.75510882322E+03  0.76910839768E+03  0.12509000000E+03 0.  0.
<mgrwt>
<rscale>  2 0.42415085E+03</rscale>
<asrwt>0</asrwt>
<pdfrwt beam="1">  1       21 0.26045777E+00 0.42415085E+03</pdfrwt>
<pdfrwt beam="2">  1       21 0.37344405E-02 0.42415085E+03</pdfrwt>
<totfact> 0.22180907E+04</totfact>
</mgrwt>
</event>
<event>
 7    0  0.4732500E-002  0.4550717E+03  0.7546771E-02  0.1026220E+00
         21   -1    0    0  502  501  0.00000000000E+00  0.00000000000E+00  0.10634563614E+03  0.10634563614E+03  0.00000000000E+00 0.  1.
         21   -1    0    0  501  502 -0.00000000000E+00 -0.00000000000E+00 -0.48683308631E+03  0.48683308631E+03  0.00000000000E+00 0.  1.
      99926    2    1    2    0    0  0.71054273576E-14  0.00000000000E+00 -0.38048745017E+03  0.59317872245E+03  0.45507174932E+03 0.  0.
      99925    2    3    3    0    0  0.49725665166E+02 -0.86709483902E+02 -0.30719896964E+03  0.41708248214E+03  0.26380942664E+03 0.  0.
         25    1    4    4    0    0  0.52329656513E+02 -0.13854921786E+02 -0.16677221141E+03  0.21538530685E+03  0.12509000000E+03 0.  0.
         25    1    3    3    0    0 -0.49725665166E+02  0.86709483902E+02 -0.73288480536E+02  0.17609624032E+03  0.12509000000E+03 0.  0.
         25    1    4    4    0    0 -0.26039913462E+01 -0.72854562116E+02 -0.14042675822E+03  0.20169717528E+03  0.12509000000E+03 0.  0.
<mgrwt>
<rscale>  2 0.45507175E+03</rscale>
<asrwt>0</asrwt>
<pdfrwt beam="1">  1       21 0.15639064E-01 0.45507175E+03</pdfrwt>
<pdfrwt beam="2">  1       21 0.71593101E-01 0.45507175E+03</pdfrwt>
<totfact> 0.59066611E+04</totfact>
</mgrwt>
</event>
<event>
 7    0  0.4732500E-002  0.4591886E+03  0.7546771E-02  0.1025017E+00
         21   -1    0    0  502  501  0.00000000000E+00  0.00000000000E+00  0.11226897415E+04  0.11226897415E+04  0.00000000000E+00 0. -1.
         21   -1    0    0  501  502 -0.00000000000E+00 -0.00000000000E+00 -0.46952897013E+02  0.46952897013E+02  0.00000000000E+00 0. -1.
      99926    2    1    2    0    0  0.00000000000E+00  0.00000000000E+00  0.10757368445E+04  0.11696426385E+04  0.45918857047E+03 0.  0.
      99925    2    3    3    0    0 -0.87787918384E+02  0.70121410458E+02  0.75826710010E+03  0.81039581874E+03  0.26296132247E+03 0.  0.
         25    1    3    3    0    0  0.87787918384E+02 -0.70121410458E+02  0.31746974441E+03  0.35924681980E+03  0.12509000000E+03 0.  0.
         25    1    4    4    0    0 -0.59243725946E+02  0.67028630978E+02  0.47824809799E+03  0.50236581070E+03  0.12509000000E+03 0.  0.
         25    1    4    4    0    0 -0.28544192438E+02  0.30927794805E+01  0.28001900211E+03  0.30803000804E+03  0.12509000000E+03 0.  0.
<mgrwt>
<rscale>  2 0.45918857E+03</rscale>
<asrwt>0</asrwt>
<pdfrwt beam="1">  1       21 0.16510141E+00 0.45918857E+03</pdfrwt>
<pdfrwt beam="2">  1       21 0.69048386E-02 0.45918857E+03</pdfrwt>
<totfact> 0.32073592E+04</totfact>
</mgrwt>
</event>
<event>
 7    0  0.4732500E-002  0.4122709E+03  0.7546771E-02  0.1039612E+00
         21   -1    0    0  502  501  0.00000000000E+00  0.00000000000E+00  0.21335690909E+03  0.21335690909E+03  0.00000000000E+00 0.  1.
         21   -1    0    0  501  502 -0.00000000000E+00 -0.00000000000E+00 -0.19915838913E+03  0.19915838913E+03  0.00000000000E+00 0.  1.
      99926    2    1    2    0    0  0.00000000000E+00  0.00000000000E+00  0.14198519958E+02  0.41251529822E+03  0.41227087370E+03 0.  0.
      99925    2    3    3    0    0  0.24103441737E+02  0.52189218876E+02 -0.22448464273E+02  0.27005407535E+03  0.26290792988E+03 0.  0.
         25    1    3    3    0    0 -0.24103441737E+02 -0.52189218876E+02  0.36646984231E+02  0.14246122288E+03  0.12509000000E+03 0.  0.
         25    1    4    4    0    0  0.23863114553E+02  0.48735234651E+02 -0.43572990657E+02  0.14314567736E+03  0.12509000000E+03 0.  0.
         25    1    4    4    0    0  0.24032718437E+00  0.34539842248E+01  0.21124526384E+02  0.12690839799E+03  0.12509000000E+03 0.  0.
<mgrwt>
<rscale>  2 0.41227087E+03</rscale>
<asrwt>0</asrwt>
<pdfrwt beam="1">  1       21 0.31376016E-01 0.41227087E+03</pdfrwt>
<pdfrwt beam="2">  1       21 0.29287998E-01 0.41227087E+03</pdfrwt>
<totfact> 0.10251942E+05</totfact>
</mgrwt>
</event>
<event>
 7    0  0.4732500E-002  0.4527456E+03  0.7546771E-02  0.1026906E+00
         21   -1    0    0  502  501  0.00000000000E+00  0.00000000000E+00  0.21462815018E+03  0.21462815018E+03  0.00000000000E+00 0. -1.
         21   -1    0    0  501  502 -0.00000000000E+00 -0.00000000000E+00 -0.23876007712E+03  0.23876007712E+03  0.00000000000E+00 0. -1.
      99926    2    1    2    0    0  0.88817841970E-15  0.14210854715E-13 -0.24131926937E+02  0.45338822730E+03  0.45274555189E+03 0.  0.
      99925    2    3    3    0    0  0.75729579860E+01 -0.96245852388E+02 -0.70436653119E+02  0.28873024977E+03  0.26283687191E+03 0.  0.
         25    1    3    3    0    0 -0.75729579860E+01  0.96245852388E+02  0.46304726182E+02  0.16465797752E+03  0.12509000000E+03 0.  0.
         25    1    4    4    0    0 -0.96502783486E+01 -0.21588021584E+02 -0.31503721299E+01  0.12734442859E+03  0.12509000000E+03 0.  0.
         25    1    4    4    0    0  0.17223236335E+02 -0.74657830804E+02 -0.67286280989E+02  0.16138582118E+03  0.12509000000E+03 0.  0.
<mgrwt>
<rscale>  2 0.45274555E+03</rscale>
<asrwt>0</asrwt>
<pdfrwt beam="1">  1       21 0.31562963E-01 0.45274555E+03</pdfrwt>
<pdfrwt beam="2">  1       21 0.35111776E-01 0.45274555E+03</pdfrwt>
<totfact> 0.69913214E+04</totfact>
</mgrwt>
</event>
<event>
 7    0  0.4732500E-002  0.4511480E+03  0.7546771E-02  0.1027380E+00
         21   -1    0    0  502  501  0.00000000000E+00  0.00000000000E+00  0.90468695245E+03  0.90468695245E+03  0.00000000000E+00 0. -1.
         21   -1    0    0  501  502 -0.00000000000E+00 -0.00000000000E+00 -0.56244455567E+02  0.56244455567E+02  0.00000000000E+00 0. -1.
      99926    2    1    2    0    0  0.14210854715E-13  0.00000000000E+00  0.84844249688E+03  0.96093140802E+03  0.45114798060E+03 0.  0.
      99925    2    3    3    0    0 -0.71151151343E+02 -0.68845790099E+02  0.63489620394E+03  0.69437605451E+03  0.26317805029E+03 0.  0.
         25    1    3    3    0    0  0.71151151343E+02  0.68845790099E+02  0.21354629295E+03  0.26655535351E+03  0.12509000000E+03 0.  0.
         25    1    4    4    0    0 -0.86456980973E+01 -0.36615309176E+02  0.38048343968E+03  0.40228172333E+03  0.12509000000E+03 0.  0.
         25    1    4    4    0    0 -0.62505453245E+02 -0.32230480924E+02  0.25441276426E+03  0.29209433118E+03  0.12509000000E+03 0.  0.
<mgrwt>
<rscale>  2 0.45114798E+03</rscale>
<asrwt>0</asrwt>
<pdfrwt beam="1">  1       21 0.13304219E+00 0.45114798E+03</pdfrwt>
<pdfrwt beam="2">  1       21 0.82712440E-02 0.45114798E+03</pdfrwt>
<totfact> 0.41950622E+04</totfact>
</mgrwt>
</event>
<event>
 7    0  0.4732500E-002  0.4581231E+03  0.7546771E-02  0.1025327E+00
         21   -1    0    0  502  501  0.00000000000E+00  0.00000000000E+00  0.57455295680E+03  0.57455295680E+03  0.00000000000E+00 0. -1.
         21   -1    0    0  501  502 -0.00000000000E+00 -0.00000000000E+00 -0.91321784096E+02  0.91321784096E+02  0.00000000000E+00 0. -1.
      99926    2    1    2    0    0  0.35527136788E-14 -0.14210854715E-13  0.48323117270E+03  0.66587474090E+03  0.45812313224E+03 0.  0.
      99925    2    3    3    0    0 -0.28994656205E+02 -0.90272351555E+02  0.40010771550E+03  0.48826053881E+03  0.26329143970E+03 0.  0.
         25    1    4    4    0    0 -0.44225769340E+02 -0.70240889203E+02  0.24595389146E+03  0.28815017962E+03  0.12509000000E+03 0.  0.
         25    1    3    3    0    0  0.28994656205E+02  0.90272351555E+02  0.83123457205E+02  0.17761420208E+03  0.12509000000E+03 0.  0.
         25    1    4    4    0    0  0.15231113135E+02 -0.20031462352E+02  0.15415382404E+03  0.20011035919E+03  0.12509000000E+03 0.  0.
<mgrwt>
<rscale>  2 0.45812313E+03</rscale>
<asrwt>0</asrwt>
<pdfrwt beam="1">  1       21 0.84493080E-01 0.45812313E+03</pdfrwt>
<pdfrwt beam="2">  1       21 0.13429674E-01 0.45812313E+03</pdfrwt>
<totfact> 0.53466297E+04</totfact>
</mgrwt>
</event>
<event>
 7    0  0.4732500E-002  0.4509498E+03  0.7546771E-02  0.1027439E+00
         21   -1    0    0  502  501  0.00000000000E+00  0.00000000000E+00  0.10617581752E+03  0.10617581752E+03  0.00000000000E+00 0.  1.
         21   -1    0    0  501  502 -0.00000000000E+00 -0.00000000000E+00 -0.47881829910E+03  0.47881829910E+03  0.00000000000E+00 0.  1.
      99926    2    1    2    0    0  0.00000000000E+00  0.00000000000E+00 -0.37264248158E+03  0.58499411661E+03  0.45094977258E+03 0.  0.
      99925    2    3    3    0    0 -0.70954679816E+02  0.78194820584E+02 -0.27132329495E+03  0.39247896855E+03  0.26320033020E+03 0.  0.
         25    1    3    3    0    0  0.70954679816E+02 -0.78194820584E+02 -0.10131918664E+03  0.19251514807E+03  0.12509000000E+03 0.  0.
         25    1    4    4    0    0  0.12569672036E+01  0.49469633175E+02 -0.10753967370E+03  0.17222402298E+03  0.12509000000E+03 0.  0.
         25    1    4    4    0    0 -0.72211647020E+02  0.28725187410E+02 -0.16378362125E+03  0.22025494557E+03  0.12509000000E+03 0.  0.
<mgrwt>
<rscale>  2 0.45094977E+03</rscale>
<asrwt>0</asrwt>
<pdfrwt beam="1">  1       21 0.15614091E-01 0.45094977E+03</pdfrwt>
<pdfrwt beam="2">  1       21 0.70414454E-01 0.45094977E+03</pdfrwt>
<totfact> 0.61558820E+04</totfact>
</mgrwt>
</event>
<event>
 7    0  0.4732500E-002  0.4557777E+03  0.7546771E-02  0.1026013E+00
         21   -1    0    0  502  501  0.00000000000E+00  0.00000000000E+00  0.21190233048E+04  0.21190233048E+04  0.00000000000E+00 0. -1.
         21   -1    0    0  501  502 -0.00000000000E+00 -0.00000000000E+00 -0.24508140442E+02  0.24508140442E+02  0.00000000000E+00 0. -1.
      99926    2    1    2    0    0  0.00000000000E+00  0.71054273576E-14  0.20945151643E+04  0.21435314452E+04  0.45577766840E+03 0.  0.
      99925    2    3    3    0    0  0.62500925383E+02  0.22841723496E+02  0.17518867777E+04  0.17727622051E+04  0.26296471981E+03 0.  0.
         25    1    4    4    0    0  0.51198243716E+02 -0.23684461166E+02  0.90963790704E+03  0.91992980378E+03  0.12509000000E+03 0.  0.
         25    1    3    3    0    0 -0.62500925383E+02 -0.22841723496E+02  0.34262838661E+03  0.37076924012E+03  0.12509000000E+03 0.  0.
         25    1    4    4    0    0  0.11302681668E+02  0.46526184663E+02  0.84224887069E+03  0.85283240133E+03  0.12509000000E+03 0.  0.
<mgrwt>
<rscale>  2 0.45577767E+03</rscale>
<asrwt>0</asrwt>
<pdfrwt beam="1">  1       21 0.31162095E+00 0.45577767E+03</pdfrwt>
<pdfrwt beam="2">  1       21 0.36041398E-02 0.45577767E+03</pdfrwt>
<totfact> 0.11435564E+04</totfact>
</mgrwt>
</event>
<event>
 7    0  0.4732500E-002  0.4575132E+03  0.7546771E-02  0.1025505E+00
         21   -1    0    0  502  501  0.00000000000E+00  0.00000000000E+00  0.11887588072E+03  0.11887588072E+03  0.00000000000E+00 0. -1.
         21   -1    0    0  501  502 -0.00000000000E+00 -0.00000000000E+00 -0.44020353412E+03  0.44020353412E+03  0.00000000000E+00 0. -1.
      99926    2    1    2    0    0  0.00000000000E+00  0.00000000000E+00 -0.32132765340E+03  0.55907941484E+03  0.45751320338E+03 0.  0.
      99925    2    3    3    0    0  0.79733931830E+02 -0.25532578721E+02 -0.29896091550E+03  0.40690454331E+03  0.26302902104E+03 0.  0.
         25    1    3    3    0    0 -0.79733931830E+02  0.25532578721E+02 -0.22366737898E+02  0.15217487153E+03  0.12509000000E+03 0.  0.
         25    1    4    4    0    0  0.12465331519E+02  0.18586340403E+02 -0.12946831927E+03  0.18141221109E+03  0.12509000000E+03 0.  0.
         25    1    4    4    0    0  0.67268600311E+02 -0.44118919124E+02 -0.16949259623E+03  0.22549233222E+03  0.12509000000E+03 0.  0.
<mgrwt>
<rscale>  2 0.45751320E+03</rscale>
<asrwt>0</asrwt>
<pdfrwt beam="1">  1       21 0.17481747E-01 0.45751320E+03</pdfrwt>
<pdfrwt beam="2">  1       21 0.64735813E-01 0.45751320E+03</pdfrwt>
<totfact> 0.60067435E+04</totfact>
</mgrwt>
</event>
<event>
 7    0  0.4732500E-002  0.4270190E+03  0.7546771E-02  0.1034806E+00
         21   -1    0    0  502  501  0.00000000000E+00  0.00000000000E+00  0.10315534053E+03  0.10315534053E+03  0.00000000000E+00 0. -1.
         21   -1    0    0  501  502 -0.00000000000E+00 -0.00000000000E+00 -0.44191909679E+03  0.44191909679E+03  0.00000000000E+00 0. -1.
      99926    2    1    2    0    0 -0.35527136788E-14  0.14210854715E-13 -0.33876375626E+03  0.54507443731E+03  0.42701903899E+03 0.  0.
      99925    2    3    3    0    0  0.20501869702E+02 -0.78531756507E+02 -0.24795400177E+03  0.37048496727E+03  0.26304060625E+03 0.  0.
         25    1    3    3    0    0 -0.20501869702E+02  0.78531756507E+02 -0.90809754489E+02  0.17458947005E+03  0.12509000000E+03 0.  0.
         25    1    4    4    0    0  0.25176214226E+02 -0.28769718630E+02 -0.17119140405E+03  0.21544266846E+03  0.12509000000E+03 0.  0.
         25    1    4    4    0    0 -0.46743445234E+01 -0.49762037876E+02 -0.76762597724E+02  0.15504229881E+03  0.12509000000E+03 0.  0.
<mgrwt>
<rscale>  2 0.42701904E+03</rscale>
<asrwt>0</asrwt>
<pdfrwt beam="1">  1       21 0.15169903E-01 0.42701904E+03</pdfrwt>
<pdfrwt beam="2">  1       21 0.64988103E-01 0.42701904E+03</pdfrwt>
<totfact> 0.78101533E+04</totfact>
</mgrwt>
</event>
<event>
 7    0  0.4732500E-002  0.4618403E+03  0.7546771E-02  0.1024249E+00
         21   -1    0    0  502  501  0.00000000000E+00  0.00000000000E+00  0.35205679450E+02  0.35205679450E+02  0.00000000000E+00 0. -1.
         21   -1    0    0  501  502 -0.00000000000E+00 -0.00000000000E+00 -0.15146455123E+04  0.15146455123E+04  0.00000000000E+00 0. -1.
      99926    2    1    2    0    0 -0.71054273576E-14  0.00000000000E+00 -0.14794398328E+04  0.15498511917E+04  0.46184033772E+03 0.  0.
      99925    2    3    3    0    0  0.34788911766E+02  0.78347547935E+02 -0.12045695160E+04  0.12359247579E+04  0.26300890062E+03 0.  0.
         25    1    4    4    0    0 -0.15253400313E+02  0.17529540986E+02 -0.49199778976E+03  0.50818233368E+03  0.12509000000E+03 0.  0.
         25    1    3    3    0    0 -0.34788911766E+02 -0.78347547935E+02 -0.27487031687E+03  0.31392643381E+03  0.12509000000E+03 0.  0.
         25    1    4    4    0    0  0.50042312079E+02  0.60818006949E+02 -0.71257172620E+03  0.72774242424E+03  0.12509000000E+03 0.  0.
<mgrwt>
<rscale>  2 0.46184034E+03</rscale>
<asrwt>0</asrwt>
<pdfrwt beam="1">  1       21 0.51773073E-02 0.46184034E+03</pdfrwt>
<pdfrwt beam="2">  1       21 0.22274192E+00 0.46184034E+03</pdfrwt>
<totfact> 0.21422558E+04</totfact>
</mgrwt>
</event>
<event>
 7    0  0.4732500E-002  0.4525775E+03  0.7546771E-02  0.1026956E+00
         21   -1    0    0  502  501  0.00000000000E+00  0.00000000000E+00  0.56408182080E+02  0.56408182080E+02  0.00000000000E+00 0.  1.
         21   -1    0    0  501  502 -0.00000000000E+00 -0.00000000000E+00 -0.90778653117E+03  0.90778653117E+03  0.00000000000E+00 0.  1.
      99926    2    1    2    0    0  0.14210854715E-13 -0.14210854715E-13 -0.85137834909E+03  0.96419471325E+03  0.45257745388E+03 0.  0.
      99925    2    3    3    0    0  0.88873275223E+02 -0.64948402083E+02 -0.51336056940E+03  0.58733892987E+03  0.26327018506E+03 0.  0.
         25    1    4    4    0    0  0.84849472715E+02 -0.25776327762E+02 -0.29955618031E+03  0.33651933876E+03  0.12509000000E+03 0.  0.
         25    1    3    3    0    0 -0.88873275223E+02  0.64948402083E+02 -0.33801777969E+03  0.37685578338E+03  0.12509000000E+03 0.  0.
         25    1    4    4    0    0  0.40238025085E+01 -0.39172074322E+02 -0.21380438909E+03  0.25081959112E+03  0.12509000000E+03 0.  0.
<mgrwt>
<rscale>  2 0.45257745E+03</rscale>
<asrwt>0</asrwt>
<pdfrwt beam="1">  1       21 0.82953212E-02 0.45257745E+03</pdfrwt>
<pdfrwt beam="2">  1       21 0.13349801E+00 0.45257745E+03</pdfrwt>
<totfact> 0.41348972E+04</totfact>
</mgrwt>
</event>
<event>
 7    0  0.4732500E-002  0.4555609E+03  0.7546771E-02  0.1026077E+00
         21   -1    0    0  502  501  0.00000000000E+00  0.00000000000E+00  0.17418568104E+03  0.17418568104E+03  0.00000000000E+00 0.  1.
         21   -1    0    0  501  502 -0.00000000000E+00 -0.00000000000E+00 -0.29786570131E+03  0.29786570131E+03  0.00000000000E+00 0.  1.
      99926    2    1    2    0    0 -0.35527136788E-14  0.00000000000E+00 -0.12368002028E+03  0.47205138235E+03  0.45556092914E+03 0.  0.
      99925    2    3    3    0    0 -0.30240757639E+02  0.86810362176E+02 -0.14704560794E+03  0.31506730293E+03  0.26304838369E+03 0.  0.
         25    1    4    4    0    0 -0.52661955302E+02  0.60505621904E+02 -0.71541432023E+02  0.16492391098E+03  0.12509000000E+03 0.  0.
         25    1    3    3    0    0  0.30240757639E+02 -0.86810362176E+02  0.23365587659E+02  0.15698407942E+03  0.12509000000E+03 0.  0.
         25    1    4    4    0    0  0.22421197663E+02  0.26304740273E+02 -0.75504175912E+02  0.15014339195E+03  0.12509000000E+03 0.  0.
<mgrwt>
<rscale>  2 0.45556093E+03</rscale>
<asrwt>0</asrwt>
<pdfrwt beam="1">  1       21 0.25615542E-01 0.45556093E+03</pdfrwt>
<pdfrwt beam="2">  1       21 0.43803779E-01 0.45556093E+03</pdfrwt>
<totfact> 0.66984872E+04</totfact>
</mgrwt>
</event>
<event>
 7    0  0.4732500E-002  0.4151880E+03  0.7546771E-02  0.1038644E+00
         21   -1    0    0  502  501  0.00000000000E+00  0.00000000000E+00  0.21274881281E+03  0.21274881281E+03  0.00000000000E+00 0. -1.
         21   -1    0    0  501  502 -0.00000000000E+00 -0.00000000000E+00 -0.20256407211E+03  0.20256407211E+03  0.00000000000E+00 0. -1.
      99926    2    1    2    0    0  0.00000000000E+00  0.00000000000E+00  0.10184740700E+02  0.41531288491E+03  0.41518798565E+03 0.  0.
      99925    2    3    3    0    0  0.45704008469E+02 -0.43729097836E+02  0.35311257629E+02  0.27290522943E+03  0.26311459280E+03 0.  0.
         25    1    4    4    0    0  0.54113828300E+02 -0.42332826624E+02  0.25459194475E+00  0.14271631841E+03  0.12509000000E+03 0.  0.
         25    1    4    4    0    0 -0.84098198311E+01 -0.13962712121E+01  0.35056665684E+02  0.13018891102E+03  0.12509000000E+03 0.  0.
         25    1    3    3    0    0 -0.45704008469E+02  0.43729097836E+02 -0.25126516928E+02  0.14240765548E+03  0.12509000000E+03 0.  0.
<mgrwt>
<rscale>  2 0.41518799E+03</rscale>
<asrwt>0</asrwt>
<pdfrwt beam="1">  1       21 0.31286590E-01 0.41518799E+03</pdfrwt>
<pdfrwt beam="2">  1       21 0.29788834E-01 0.41518799E+03</pdfrwt>
<totfact> 0.99642747E+04</totfact>
</mgrwt>
</event>
<event>
 7    0  0.4732500E-002  0.4670164E+03  0.7546771E-02  0.1022766E+00
         21   -1    0    0  502  501  0.00000000000E+00  0.00000000000E+00  0.68630953257E+03  0.68630953257E+03  0.00000000000E+00 0.  1.
         21   -1    0    0  501  502 -0.00000000000E+00 -0.00000000000E+00 -0.79448219340E+02  0.79448219340E+02  0.00000000000E+00 0.  1.
      99926    2    1    2    0    0  0.00000000000E+00  0.00000000000E+00  0.60686131324E+03  0.76575775191E+03  0.46701636065E+03 0.  0.
      99925    2    3    3    0    0 -0.52288674501E+02 -0.10054483814E+03  0.46089838841E+03  0.54260745843E+03  0.26296798199E+03 0.  0.
         25    1    3    3    0    0  0.52288674501E+02  0.10054483814E+03  0.14596292483E+03  0.22315029348E+03  0.12509000000E+03 0.  0.
         25    1    4    4    0    0 -0.57752930091E+01 -0.16960731143E+02  0.24126950721E+03  0.27235914455E+03  0.12509000000E+03 0.  0.
         25    1    4    4    0    0 -0.46513381492E+02 -0.83584106996E+02  0.21962888120E+03  0.27024831389E+03  0.12509000000E+03 0.  0.
<mgrwt>
<rscale>  2 0.46701636E+03</rscale>
<asrwt>0</asrwt>
<pdfrwt beam="1">  1       21 0.10092787E+00 0.46701636E+03</pdfrwt>
<pdfrwt beam="2">  1       21 0.11683562E-01 0.46701636E+03</pdfrwt>
<totfact> 0.45061829E+04</totfact>
</mgrwt>
</event>
<event>
 7    0  0.4732500E-002  0.4538098E+03  0.7546771E-02  0.1026592E+00
         21   -1    0    0  502  501  0.00000000000E+00  0.00000000000E+00  0.15876582050E+03  0.15876582050E+03  0.00000000000E+00 0. -1.
         21   -1    0    0  501  502 -0.00000000000E+00 -0.00000000000E+00 -0.32428783474E+03  0.32428783474E+03  0.00000000000E+00 0. -1.
      99926    2    1    2    0    0  0.35527136788E-14  0.00000000000E+00 -0.16552201424E+03  0.48305365524E+03  0.45380975820E+03 0.  0.
      99925    2    3    3    0    0 -0.28926846408E+02  0.10603209469E+03 -0.81422356752E+02  0.29650653509E+03  0.26307215288E+03 0.  0.
         25    1    4    4    0    0 -0.25753591619E+02  0.88039855503E+02 -0.21482336675E+02  0.15659905021E+03  0.12509000000E+03 0.  0.
         25    1    3    3    0    0  0.28926846408E+02 -0.10603209469E+03 -0.84099657492E+02  0.18654712015E+03  0.12509000000E+03 0.  0.
         25    1    4    4    0    0 -0.31732547892E+01  0.17992239188E+02 -0.59940020077E+02  0.13990748487E+03  0.12509000000E+03 0.  0.
<mgrwt>
<rscale>  2 0.45380976E+03</rscale>
<asrwt>0</asrwt>
<pdfrwt beam="1">  1       21 0.23347915E-01 0.45380976E+03</pdfrwt>
<pdfrwt beam="2">  1       21 0.47689387E-01 0.45380976E+03</pdfrwt>
<totfact> 0.67110328E+04</totfact>
</mgrwt>
</event>
<event>
 7    0  0.4732500E-002  0.4508210E+03  0.7546771E-02  0.1027478E+00
         21   -1    0    0  502  501  0.00000000000E+00  0.00000000000E+00  0.10066580839E+03  0.10066580839E+03  0.00000000000E+00 0. -1.
         21   -1    0    0  501  502 -0.00000000000E+00 -0.00000000000E+00 -0.50473823409E+03  0.50473823409E+03  0.00000000000E+00 0. -1.
      99926    2    1    2    0    0  0.00000000000E+00  0.00000000000E+00 -0.40407242570E+03  0.60540404247E+03  0.45082095052E+03 0.  0.
      99925    2    3    3    0    0 -0.46013816833E+02  0.61123600360E+02 -0.35982998228E+03  0.45224312135E+03  0.26304535502E+03 0.  0.
         25    1    3    3    0    0  0.46013816833E+02 -0.61123600360E+02 -0.44242443428E+02  0.15316092113E+03  0.12509000000E+03 0.  0.
         25    1    4    4    0    0 -0.13760642813E+02  0.30867818994E+02 -0.24332093457E+03  0.27567147629E+03  0.12509000000E+03 0.  0.
         25    1    4    4    0    0 -0.32253174019E+02  0.30255781367E+02 -0.11650904771E+03  0.17657164506E+03  0.12509000000E+03 0.  0.
<mgrwt>
<rscale>  2 0.45082095E+03</rscale>
<asrwt>0</asrwt>
<pdfrwt beam="1">  1       21 0.14803795E-01 0.45082095E+03</pdfrwt>
<pdfrwt beam="2">  1       21 0.74226211E-01 0.45082095E+03</pdfrwt>
<totfact> 0.60313514E+04</totfact>
</mgrwt>
</event>
<event>
 7    0  0.4732500E-002  0.4518996E+03  0.7546771E-02  0.1027157E+00
         21   -1    0    0  502  501  0.00000000000E+00  0.00000000000E+00  0.49563942506E+02  0.49563942506E+02  0.00000000000E+00 0. -1.
         21   -1    0    0  501  502 -0.00000000000E+00 -0.00000000000E+00 -0.10300493371E+04  0.10300493371E+04  0.00000000000E+00 0. -1.
      99926    2    1    2    0    0  0.00000000000E+00  0.00000000000E+00 -0.98048539464E+03  0.10796132797E+04  0.45189957346E+03 0.  0.
      99925    2    3    3    0    0  0.99082347632E+02 -0.47585193583E+02 -0.59985025222E+03  0.66414693685E+03  0.26303833631E+03 0.  0.
         25    1    4    4    0    0  0.74667363157E+02  0.69805619356E+01 -0.28608897392E+03  0.32112046410E+03  0.12509000000E+03 0.  0.
         25    1    4    4    0    0  0.24414984475E+02 -0.54565755519E+02 -0.31376127830E+03  0.34302647274E+03  0.12509000000E+03 0.  0.
         25    1    3    3    0    0 -0.99082347632E+02  0.47585193583E+02 -0.38063514242E+03  0.41546634281E+03  0.12509000000E+03 0.  0.
<mgrwt>
<rscale>  2 0.45189957E+03</rscale>
<asrwt>0</asrwt>
<pdfrwt beam="1">  1       21 0.72888155E-02 0.45189957E+03</pdfrwt>
<pdfrwt beam="2">  1       21 0.15147783E+00 0.45189957E+03</pdfrwt>
<totfact> 0.37098587E+04</totfact>
</mgrwt>
</event>
<event>
 7    0  0.4732500E-002  0.4552953E+03  0.7546771E-02  0.1026155E+00
         21   -1    0    0  502  501  0.00000000000E+00  0.00000000000E+00  0.19580575190E+03  0.19580575190E+03  0.00000000000E+00 0.  1.
         21   -1    0    0  501  502 -0.00000000000E+00 -0.00000000000E+00 -0.26466763078E+03  0.26466763078E+03  0.00000000000E+00 0.  1.
      99926    2    1    2    0    0  0.00000000000E+00  0.71054273576E-14 -0.68861878881E+02  0.46047338268E+03  0.45529526441E+03 0.  0.
      99925    2    3    3    0    0 -0.74865272708E+02  0.50979966416E+02 -0.11233589091E+03  0.30003254045E+03  0.26305209923E+03 0.  0.
         25    1    3    3    0    0  0.74865272708E+02 -0.50979966416E+02  0.43474012026E+02  0.16044084223E+03  0.12509000000E+03 0.  0.
         25    1    4    4    0    0 -0.25111856772E+02  0.10144811090E+02 -0.14782131621E+02  0.12883921009E+03  0.12509000000E+03 0.  0.
         25    1    4    4    0    0 -0.49753415936E+02  0.40835155326E+02 -0.97553759285E+02  0.17119333036E+03  0.12509000000E+03 0.  0.
<mgrwt>
<rscale>  2 0.45529526E+03</rscale>
<asrwt>0</asrwt>
<pdfrwt beam="1">  1       21 0.28794964E-01 0.45529526E+03</pdfrwt>
<pdfrwt beam="2">  1       21 0.38921710E-01 0.45529526E+03</pdfrwt>
<totfact> 0.67985858E+04</totfact>
</mgrwt>
</event>
<event>
 7    0  0.4732500E-002  0.4555845E+03  0.7546771E-02  0.1026070E+00
         21   -1    0    0  502  501  0.00000000000E+00  0.00000000000E+00  0.25494967976E+03  0.25494967976E+03  0.00000000000E+00 0.  1.
         21   -1    0    0  501  502 -0.00000000000E+00 -0.00000000000E+00 -0.20352768743E+03  0.20352768743E+03  0.00000000000E+00 0.  1.
      99926    2    1    2    0    0 -0.14210854715E-13 -0.71054273576E-14  0.51421992326E+02  0.45847736719E+03  0.45558454202E+03 0.  0.
      99925    2    3    3    0    0 -0.99652967417E+02 -0.54488200817E+02  0.27082811963E+02  0.28777416937E+03  0.26302246275E+03 0.  0.
         25    1    4    4    0    0 -0.80516658697E+01 -0.31291508631E+02  0.35104187140E+01  0.12924325505E+03  0.12509000000E+03 0.  0.
         25    1    4    4    0    0 -0.91601301547E+02 -0.23196692186E+02  0.23572393249E+02  0.15853091433E+03  0.12509000000E+03 0.  0.
         25    1    3    3    0    0  0.99652967417E+02  0.54488200817E+02  0.24339180363E+02  0.17070319781E+03  0.12509000000E+03 0.  0.
<mgrwt>
<rscale>  2 0.45558454E+03</rscale>
<asrwt>0</asrwt>
<pdfrwt beam="1">  1       21 0.37492600E-01 0.45558454E+03</pdfrwt>
<pdfrwt beam="2">  1       21 0.29930542E-01 0.45558454E+03</pdfrwt>
<totfact> 0.67974153E+04</totfact>
</mgrwt>
</event>
<event>
 7    0  0.4732500E-002  0.4558158E+03  0.7546771E-02  0.1026002E+00
         21   -1    0    0  502  501  0.00000000000E+00  0.00000000000E+00  0.28831506082E+03  0.28831506082E+03  0.00000000000E+00 0. -1.
         21   -1    0    0  501  502 -0.00000000000E+00 -0.00000000000E+00 -0.18015712971E+03  0.18015712971E+03  0.00000000000E+00 0. -1.
      99926    2    1    2    0    0 -0.14210854715E-13  0.53290705182E-14  0.10815793111E+03  0.46847219052E+03  0.45581581284E+03 0.  0.
      99925    2    3    3    0    0 -0.98337825128E+02  0.96212374397E+01  0.87053191776E+01  0.28058598512E+03  0.26246869604E+03 0.  0.
         25    1    3    3    0    0  0.98337825128E+02 -0.96212374397E+01  0.99452611931E+02  0.18788620540E+03  0.12509000000E+03 0.  0.
         25    1    4    4    0    0 -0.58007588735E+02  0.35944360537E+02 -0.18871898921E+02  0.14373772669E+03  0.12509000000E+03 0.  0.
         25    1    4    4    0    0 -0.40330236394E+02 -0.26323123097E+02  0.27577218098E+02  0.13684825843E+03  0.12509000000E+03 0.  0.
<mgrwt>
<rscale>  2 0.45581581E+03</rscale>
<asrwt>0</asrwt>
<pdfrwt beam="1">  1       21 0.42399274E-01 0.45581581E+03</pdfrwt>
<pdfrwt beam="2">  1       21 0.26493695E-01 0.45581581E+03</pdfrwt>
<totfact> 0.67114289E+04</totfact>
</mgrwt>
</event>
<event>
 7    0  0.4732500E-002  0.4606090E+03  0.7546771E-02  0.1024605E+00
         21   -1    0    0  502  501  0.00000000000E+00  0.00000000000E+00  0.98489111039E+02  0.98489111039E+02  0.00000000000E+00 0. -1.
         21   -1    0    0  501  502 -0.00000000000E+00 -0.00000000000E+00 -0.53853833653E+03  0.53853833653E+03  0.00000000000E+00 0. -1.
      99926    2    1    2    0    0  0.00000000000E+00  0.17763568394E-14 -0.44004922549E+03  0.63702744757E+03  0.46060899698E+03 0.  0.
      99925    2    3    3    0    0  0.73862954015E+02 -0.11362610594E+02 -0.14854105884E+03  0.31112966571E+03  0.26296839702E+03 0.  0.
         25    1    4    4    0    0  0.12611681676E+02  0.89774930269E+01 -0.36497128462E+02  0.13122194322E+03  0.12509000000E+03 0.  0.
         25    1    3    3    0    0 -0.73862954015E+02  0.11362610594E+02 -0.29150816665E+03  0.32589778185E+03  0.12509000000E+03 0.  0.
         25    1    4    4    0    0  0.61251272339E+02 -0.20340103621E+02 -0.11204393038E+03  0.17990772250E+03  0.12509000000E+03 0.  0.
<mgrwt>
<rscale>  2 0.46060900E+03</rscale>
<asrwt>0</asrwt>
<pdfrwt beam="1">  1       21 0.14483693E-01 0.46060900E+03</pdfrwt>
<pdfrwt beam="2">  1       21 0.79196813E-01 0.46060900E+03</pdfrwt>
<totfact> 0.54023470E+04</totfact>
</mgrwt>
</event>
<event>
 7    0  0.4732500E-002  0.4608538E+03  0.7546771E-02  0.1024534E+00
         21   -1    0    0  502  501  0.00000000000E+00  0.00000000000E+00  0.36684232695E+03  0.36684232695E+03  0.00000000000E+00 0. -1.
         21   -1    0    0  501  502 -0.00000000000E+00 -0.00000000000E+00 -0.14473946013E+03  0.14473946013E+03  0.00000000000E+00 0. -1.
      99926    2    1    2    0    0  0.00000000000E+00  0.00000000000E+00  0.22210286682E+03  0.51158178708E+03  0.46085381784E+03 0.  0.
      99925    2    3    3    0    0  0.47134483825E+02 -0.52936743835E+02  0.33560370685E+02  0.27447476617E+03  0.26303258424E+03 0.  0.
         25    1    4    4    0    0  0.51061685692E+02  0.32291373123E+01  0.13140643342E+02  0.13578625733E+03  0.12509000000E+03 0.  0.
         25    1    4    4    0    0 -0.39272018665E+01 -0.56165881148E+02  0.20419727344E+02  0.13868850884E+03  0.12509000000E+03 0.  0.
         25    1    3    3    0    0 -0.47134483825E+02  0.52936743835E+02  0.18854249614E+03  0.23710702090E+03  0.12509000000E+03 0.  0.
<mgrwt>
<rscale>  2 0.46085382E+03</rscale>
<asrwt>0</asrwt>
<pdfrwt beam="1">  1       21 0.53947401E-01 0.46085382E+03</pdfrwt>
<pdfrwt beam="2">  1       21 0.21285215E-01 0.46085382E+03</pdfrwt>
<totfact> 0.61554520E+04</totfact>
</mgrwt>
</event>
<event>
 7    0  0.4732500E-002  0.4559529E+03  0.7546771E-02  0.1025962E+00
         21   -1    0    0  502  501  0.00000000000E+00  0.00000000000E+00  0.94488533285E+03  0.94488533285E+03  0.00000000000E+00 0. -1.
         21   -1    0    0  501  502 -0.00000000000E+00 -0.00000000000E+00 -0.55004837878E+02  0.55004837878E+02  0.00000000000E+00 0. -1.
      99926    2    1    2    0    0  0.00000000000E+00  0.00000000000E+00  0.88988049497E+03  0.99989017073E+03  0.45595291225E+03 0.  0.
      99925    2    3    3    0    0 -0.39328285564E+02 -0.10589594178E+03  0.58858558873E+03  0.65465576752E+03  0.26340181123E+03 0.  0.
         25    1    3    3    0    0  0.39328285564E+02  0.10589594178E+03  0.30129490624E+03  0.34523440321E+03  0.12509000000E+03 0.  0.
         25    1    4    4    0    0 -0.26181728017E+02 -0.77671134055E+02  0.23761447554E+03  0.28076045846E+03  0.12509000000E+03 0.  0.
         25    1    4    4    0    0 -0.13146557546E+02 -0.28224807721E+02  0.35097111318E+03  0.37389530906E+03  0.12509000000E+03 0.  0.
<mgrwt>
<rscale>  2 0.45595291E+03</rscale>
<asrwt>0</asrwt>
<pdfrwt beam="1">  1       21 0.13895372E+00 0.45595291E+03</pdfrwt>
<pdfrwt beam="2">  1       21 0.80889473E-02 0.45595291E+03</pdfrwt>
<totfact> 0.38880911E+04</totfact>
</mgrwt>
</event>
<event>
 7    0  0.4732500E-002  0.4564179E+03  0.7546771E-02  0.1025825E+00
         21   -1    0    0  502  501  0.00000000000E+00  0.00000000000E+00  0.35583424811E+03  0.35583424811E+03  0.00000000000E+00 0. -1.
         21   -1    0    0  501  502 -0.00000000000E+00 -0.00000000000E+00 -0.14635839157E+03  0.14635839157E+03  0.00000000000E+00 0. -1.
      99926    2    1    2    0    0  0.00000000000E+00  0.00000000000E+00  0.20947585654E+03  0.50219263968E+03  0.45641791472E+03 0.  0.
      99925    2    3    3    0    0 -0.75756699973E+02  0.69596318903E+02  0.18657646892E+03  0.33862425873E+03  0.26319742523E+03 0.  0.
         25    1    3    3    0    0  0.75756699973E+02 -0.69596318903E+02  0.22899387624E+02  0.16356838096E+03  0.12509000000E+03 0.  0.
         25    1    4    4    0    0 -0.28335947341E+00  0.25584621582E+02  0.10673527503E+03  0.16641688673E+03  0.12509000000E+03 0.  0.
         25    1    4    4    0    0 -0.75473340500E+02  0.44011697321E+02  0.79841193892E+02  0.17220737199E+03  0.12509000000E+03 0.  0.
<mgrwt>
<rscale>  2 0.45641791E+03</rscale>
<asrwt>0</asrwt>
<pdfrwt beam="1">  1       21 0.52328566E-01 0.45641791E+03</pdfrwt>
<pdfrwt beam="2">  1       21 0.21523293E-01 0.45641791E+03</pdfrwt>
<totfact> 0.64389125E+04</totfact>
</mgrwt>
</event>
<event>
 7    0  0.4732500E-002  0.4456012E+03  0.7546771E-02  0.1029042E+00
         21   -1    0    0  502  501  0.00000000000E+00  0.00000000000E+00  0.35509553502E+03  0.35509553502E+03  0.00000000000E+00 0.  1.
         21   -1    0    0  501  502 -0.00000000000E+00 -0.00000000000E+00 -0.13979365622E+03  0.13979365622E+03  0.00000000000E+00 0.  1.
      99926    2    1    2    0    0  0.00000000000E+00  0.00000000000E+00  0.21530187880E+03  0.49488919124E+03  0.44560118109E+03 0.  0.
      99925    2    3    3    0    0 -0.93413954584E+02 -0.45355547539E+02  0.14494299783E+03  0.31774187166E+03  0.26299834939E+03 0.  0.
         25    1    4    4    0    0 -0.50559600848E+02 -0.61122650798E+02  0.92453471717E+02  0.17460642660E+03  0.12509000000E+03 0.  0.
         25    1    3    3    0    0  0.93413954584E+02  0.45355547539E+02  0.70358880977E+02  0.17714731958E+03  0.12509000000E+03 0.  0.
         25    1    4    4    0    0 -0.42854353737E+02  0.15767103258E+02  0.52489526108E+02  0.14313544505E+03  0.12509000000E+03 0.  0.
<mgrwt>
<rscale>  2 0.44560118E+03</rscale>
<asrwt>0</asrwt>
<pdfrwt beam="1">  1       21 0.52219932E-01 0.44560118E+03</pdfrwt>
<pdfrwt beam="2">  1       21 0.20557891E-01 0.44560118E+03</pdfrwt>
<totfact> 0.70765306E+04</totfact>
</mgrwt>
</event>
<event>
 7    0  0.4732500E-002  0.4577265E+03  0.7546771E-02  0.1025443E+00
         21   -1    0    0  502  501  0.00000000000E+00  0.00000000000E+00  0.71822911626E+02  0.71822911626E+02  0.00000000000E+00 0. -1.
         21   -1    0    0  501  502 -0.00000000000E+00 -0.00000000000E+00 -0.72927136009E+03  0.72927136009E+03  0.00000000000E+00 0. -1.
      99926    2    1    2    0    0  0.00000000000E+00  0.14210854715E-13 -0.65744844847E+03  0.80109427172E+03  0.45772652293E+03 0.  0.
      99925    2    3    3    0    0  0.63740952914E+02 -0.96505827081E+02 -0.39992338879E+03  0.49231773731E+03  0.26279603085E+03 0.  0.
         25    1    3    3    0    0 -0.63740952914E+02  0.96505827081E+02 -0.25752505968E+03  0.30877653441E+03  0.12509000000E+03 0.  0.
         25    1    4    4    0    0  0.13374742212E+02 -0.73755379283E+02 -0.16262090390E+03  0.21843032342E+03  0.12509000000E+03 0.  0.
         25    1    4    4    0    0  0.50366210702E+02 -0.22750447798E+02 -0.23730248488E+03  0.27388741389E+03  0.12509000000E+03 0.  0.
<mgrwt>
<rscale>  2 0.45772652E+03</rscale>
<asrwt>0</asrwt>
<pdfrwt beam="1">  1       21 0.10562192E-01 0.45772652E+03</pdfrwt>
<pdfrwt beam="2">  1       21 0.10724579E+00 0.45772652E+03</pdfrwt>
<totfact> 0.46704538E+04</totfact>
</mgrwt>
</event>
<event>
 7    0  0.4732500E-002  0.4567689E+03  0.7546771E-02  0.1025723E+00
         21   -1    0    0  502  501  0.00000000000E+00  0.00000000000E+00  0.90166601749E+02  0.90166601749E+02  0.00000000000E+00 0. -1.
         21   -1    0    0  501  502 -0.00000000000E+00 -0.00000000000E+00 -0.57847863968E+03  0.57847863968E+03  0.00000000000E+00 0. -1.
      99926    2    1    2    0    0 -0.35527136788E-14  0.00000000000E+00 -0.48831203793E+03  0.66864524143E+03  0.45676888302E+03 0.  0.
      99925    2    3    3    0    0  0.28001817196E+02 -0.12234724822E+02 -0.46880958078E+03  0.53840836419E+03  0.26299686945E+03 0.  0.
         25    1    4    4    0    0  0.24114183020E+02  0.17923210767E+01 -0.31388228961E+03  0.33875404953E+03  0.12509000000E+03 0.  0.
         25    1    4    4    0    0  0.38876341764E+01 -0.14027045899E+02 -0.15492729116E+03  0.19965431466E+03  0.12509000000E+03 0.  0.
         25    1    3    3    0    0 -0.28001817196E+02  0.12234724822E+02 -0.19502457152E+02  0.13023687724E+03  0.12509000000E+03 0.  0.
<mgrwt>
<rscale>  2 0.45676888E+03</rscale>
<asrwt>0</asrwt>
<pdfrwt beam="1">  1       21 0.13259795E-01 0.45676888E+03</pdfrwt>
<pdfrwt beam="2">  1       21 0.85070385E-01 0.45676888E+03</pdfrwt>
<totfact> 0.53883260E+04</totfact>
</mgrwt>
</event>
<event>
 7    0  0.4732500E-002  0.4519701E+03  0.7546771E-02  0.1027136E+00
         21   -1    0    0  502  501  0.00000000000E+00  0.00000000000E+00  0.11626386350E+03  0.11626386350E+03  0.00000000000E+00 0.  1.
         21   -1    0    0  501  502 -0.00000000000E+00 -0.00000000000E+00 -0.43925286951E+03  0.43925286951E+03  0.00000000000E+00 0.  1.
      99926    2    1    2    0    0  0.17763568394E-14  0.00000000000E+00 -0.32298900601E+03  0.55551673301E+03  0.45197006831E+03 0.  0.
      99925    2    3    3    0    0  0.15395150060E+02 -0.10922953860E+03 -0.20243366604E+03  0.34972751841E+03  0.26298639745E+03 0.  0.
         25    1    4    4    0    0 -0.31013235435E+02 -0.57373679036E+02 -0.11488340972E+03  0.18193203606E+03  0.12509000000E+03 0.  0.
         25    1    3    3    0    0 -0.15395150060E+02  0.10922953860E+03 -0.12055533998E+03  0.20578921460E+03  0.12509000000E+03 0.  0.
         25    1    4    4    0    0  0.46408385495E+02 -0.51855859562E+02 -0.87550256321E+02  0.16779548235E+03  0.12509000000E+03 0.  0.
<mgrwt>
<rscale>  2 0.45197007E+03</rscale>
<asrwt>0</asrwt>
<pdfrwt beam="1">  1       21 0.17097627E-01 0.45197007E+03</pdfrwt>
<pdfrwt beam="2">  1       21 0.64596010E-01 0.45197007E+03</pdfrwt>
<totfact> 0.62999949E+04</totfact>
</mgrwt>
</event>
<event>
 7    0  0.4732500E-002  0.4547598E+03  0.7546771E-02  0.1026312E+00
         21   -1    0    0  502  501  0.00000000000E+00  0.00000000000E+00  0.44223456111E+03  0.44223456111E+03  0.00000000000E+00 0.  1.
         21   -1    0    0  501  502 -0.00000000000E+00 -0.00000000000E+00 -0.11690995690E+03  0.11690995690E+03  0.00000000000E+00 0.  1.
      99926    2    1    2    0    0  0.17763568394E-14  0.14210854715E-13  0.32532460421E+03  0.55914451801E+03  0.45475982003E+03 0.  0.
      99925    2    3    3    0    0  0.64608038435E+01 -0.89742581732E+02  0.28826634235E+03  0.40066330198E+03  0.26332133309E+03 0.  0.
         25    1    3    3    0    0 -0.64608038435E+01  0.89742581732E+02  0.37058261863E+02  0.15848121603E+03  0.12509000000E+03 0.  0.
         25    1    4    4    0    0  0.22481564774E+02 -0.43311188104E+02  0.91882251658E+02  0.16269952686E+03  0.12509000000E+03 0.  0.
         25    1    4    4    0    0 -0.16020760930E+02 -0.46431393628E+02  0.19638409069E+03  0.23796377512E+03  0.12509000000E+03 0.  0.
<mgrwt>
<rscale>  2 0.45475982E+03</rscale>
<asrwt>0</asrwt>
<pdfrwt beam="1">  1       21 0.65034494E-01 0.45475982E+03</pdfrwt>
<pdfrwt beam="2">  1       21 0.17192641E-01 0.45475982E+03</pdfrwt>
<totfact> 0.61382784E+04</totfact>
</mgrwt>
</event>
<event>
 7    0  0.4732500E-002  0.4448532E+03  0.7546771E-02  0.1029268E+00
         21   -1    0    0  502  501  0.00000000000E+00  0.00000000000E+00  0.10325815993E+04  0.10325815993E+04  0.00000000000E+00 0.  1.
         21   -1    0    0  501  502 -0.00000000000E+00 -0.00000000000E+00 -0.47912522974E+02  0.47912522974E+02  0.00000000000E+00 0.  1.
      99926    2    1    2    0    0  0.00000000000E+00  0.00000000000E+00  0.98466907633E+03  0.10804941223E+04  0.44485318746E+03 0.  0.
      99925    2    3    3    0    0 -0.34719844892E+02  0.76733399035E+02  0.48098196318E+03  0.55471688978E+03  0.26319896799E+03 0.  0.
         25    1    4    4    0    0 -0.19778339402E+02  0.80385619730E+02  0.24819640583E+03  0.29000343884E+03  0.12509000000E+03 0.  0.
         25    1    3    3    0    0  0.34719844892E+02 -0.76733399035E+02  0.50368711315E+03  0.52577723249E+03  0.12509000000E+03 0.  0.
         25    1    4    4    0    0 -0.14941505490E+02 -0.36522206947E+01  0.23278555734E+03  0.26471345094E+03  0.12509000000E+03 0.  0.
<mgrwt>
<rscale>  2 0.44485319E+03</rscale>
<asrwt>0</asrwt>
<pdfrwt beam="1">  1       21 0.15185022E+00 0.44485319E+03</pdfrwt>
<pdfrwt beam="2">  1       21 0.70459599E-02 0.44485319E+03</pdfrwt>
<totfact> 0.39189990E+04</totfact>
</mgrwt>
</event>
<event>
 7    0  0.4732500E-002  0.4505473E+03  0.7546771E-02  0.1027559E+00
         21   -1    0    0  502  501  0.00000000000E+00  0.00000000000E+00  0.26497085708E+03  0.26497085708E+03  0.00000000000E+00 0.  1.
         21   -1    0    0  501  502 -0.00000000000E+00 -0.00000000000E+00 -0.19152373690E+03  0.19152373690E+03  0.00000000000E+00 0.  1.
      99926    2    1    2    0    0  0.00000000000E+00  0.00000000000E+00  0.73447120174E+02  0.45649459398E+03  0.45054726153E+03 0.  0.
      99925    2    3    3    0    0 -0.67379417065E+02  0.84608051609E+02  0.31638436741E+02  0.28592501184E+03  0.26278054242E+03 0.  0.
         25    1    4    4    0    0 -0.60562562349E+02  0.23937619738E+02  0.39671515476E+02  0.14649972982E+03  0.12509000000E+03 0.  0.
         25    1    4    4    0    0 -0.68168547158E+01  0.60670431871E+02 -0.80330787345E+01  0.13942528202E+03  0.12509000000E+03 0.  0.
         25    1    3    3    0    0  0.67379417065E+02 -0.84608051609E+02  0.41808683433E+02  0.17056958214E+03  0.12509000000E+03 0.  0.
<mgrwt>
<rscale>  2 0.45054726E+03</rscale>
<asrwt>0</asrwt>
<pdfrwt beam="1">  1       21 0.38966303E-01 0.45054726E+03</pdfrwt>
<pdfrwt beam="2">  1       21 0.28165255E-01 0.45054726E+03</pdfrwt>
<totfact> 0.70921793E+04</totfact>
</mgrwt>
</event>
<event>
 7    0  0.4732500E-002  0.4625669E+03  0.7546771E-02  0.1024039E+00
         21   -1    0    0  502  501  0.00000000000E+00  0.00000000000E+00  0.39339322076E+02  0.39339322076E+02  0.00000000000E+00 0. -1.
         21   -1    0    0  501  502 -0.00000000000E+00 -0.00000000000E+00 -0.13597599003E+04  0.13597599003E+04  0.00000000000E+00 0. -1.
      99926    2    1    2    0    0  0.00000000000E+00  0.00000000000E+00 -0.13204205782E+04  0.13990992224E+04  0.46256689317E+03 0.  0.
      99925    2    3    3    0    0  0.12826633097E+02 -0.58318290795E+02 -0.11405710502E+04  0.11720333588E+04  0.26304814787E+03 0.  0.
         25    1    3    3    0    0 -0.12826633097E+02  0.58318290795E+02 -0.17984952802E+03  0.22706586355E+03  0.12509000000E+03 0.  0.
         25    1    4    4    0    0 -0.59037979176E+00 -0.53044616392E+02 -0.73183304709E+03  0.74433943654E+03  0.12509000000E+03 0.  0.
         25    1    4    4    0    0  0.13417012889E+02 -0.52736744022E+01 -0.40873800311E+03  0.42769392229E+03  0.12509000000E+03 0.  0.
<mgrwt>
<rscale>  2 0.46256689E+03</rscale>
<asrwt>0</asrwt>
<pdfrwt beam="1">  1       21 0.57851935E-02 0.46256689E+03</pdfrwt>
<pdfrwt beam="2">  1       21 0.19996472E+00 0.46256689E+03</pdfrwt>
<totfact> 0.24861600E+04</totfact>
</mgrwt>
</event>
<event>
 7    0  0.4732500E-002  0.4499737E+03  0.7546771E-02  0.1027730E+00
         21   -1    0    0  502  501  0.00000000000E+00  0.00000000000E+00  0.10670959141E+03  0.10670959141E+03  0.00000000000E+00 0.  1.
         21   -1    0    0  501  502 -0.00000000000E+00 -0.00000000000E+00 -0.47436301109E+03  0.47436301109E+03  0.00000000000E+00 0.  1.
      99926    2    1    2    0    0 -0.14210854715E-13  0.26645352591E-14 -0.36765341967E+03  0.58107260250E+03  0.44997370187E+03 0.  0.
      99925    2    3    3    0    0 -0.10556610446E+03  0.12022472287E+01 -0.26026469761E+03  0.38530362248E+03  0.26377172112E+03 0.  0.
         25    1    4    4    0    0 -0.86936155889E+02  0.19065124236E+02 -0.11463636172E+03  0.19159952425E+03  0.12509000000E+03 0.  0.
         25    1    4    4    0    0 -0.18629948576E+02 -0.17862877007E+02 -0.14562833589E+03  0.19370409824E+03  0.12509000000E+03 0.  0.
         25    1    3    3    0    0  0.10556610446E+03 -0.12022472287E+01 -0.10738872206E+03  0.19576898001E+03  0.12509000000E+03 0.  0.
<mgrwt>
<rscale>  2 0.44997370E+03</rscale>
<asrwt>0</asrwt>
<pdfrwt beam="1">  1       21 0.15692587E-01 0.44997370E+03</pdfrwt>
<pdfrwt beam="2">  1       21 0.69759266E-01 0.44997370E+03</pdfrwt>
<totfact> 0.62297395E+04</totfact>
</mgrwt>
</event>
<event>
 7    0  0.4732500E-002  0.4593861E+03  0.7546771E-02  0.1024959E+00
         21   -1    0    0  502  501  0.00000000000E+00  0.00000000000E+00  0.37672871521E+03  0.37672871521E+03  0.00000000000E+00 0. -1.
         21   -1    0    0  501  502 -0.00000000000E+00 -0.00000000000E+00 -0.14004477782E+03  0.14004477782E+03  0.00000000000E+00 0. -1.
      99926    2    1    2    0    0  0.00000000000E+00  0.00000000000E+00  0.23668393739E+03  0.51677349304E+03  0.45938606519E+03 0.  0.
      99925    2    3    3    0    0  0.18884244553E+02  0.91188808615E+02  0.68266501319E+02  0.28724363794E+03  0.26301440802E+03 0.  0.
         25    1    3    3    0    0 -0.18884244553E+02 -0.91188808615E+02  0.16841743607E+03  0.22952985510E+03  0.12509000000E+03 0.  0.
         25    1    4    4    0    0  0.31259383087E+02  0.11812498242E+02  0.43112947790E+02  0.13646581445E+03  0.12509000000E+03 0.  0.
         25    1    4    4    0    0 -0.12375138534E+02  0.79376310373E+02  0.25153553529E+02  0.15077782349E+03  0.12509000000E+03 0.  0.
<mgrwt>
<rscale>  2 0.45938607E+03</rscale>
<asrwt>0</asrwt>
<pdfrwt beam="1">  1       21 0.55401282E-01 0.45938607E+03</pdfrwt>
<pdfrwt beam="2">  1       21 0.20594820E-01 0.45938607E+03</pdfrwt>
<totfact> 0.61924151E+04</totfact>
</mgrwt>
</event>
<event>
 7    0  0.4732500E-002  0.4481959E+03  0.7546771E-02  0.1028261E+00
         21   -1    0    0  502  501  0.00000000000E+00  0.00000000000E+00  0.29134534125E+03  0.29134534125E+03  0.00000000000E+00 0. -1.
         21   -1    0    0  501  502 -0.00000000000E+00 -0.00000000000E+00 -0.17237240366E+03  0.17237240366E+03  0.00000000000E+00 0. -1.
      99926    2    1    2    0    0 -0.71054273576E-14  0.00000000000E+00  0.11897293759E+03  0.46371774490E+03  0.44819592486E+03 0.  0.
      99925    2    3    3    0    0 -0.53058007869E+02  0.90649927262E+02  0.94754437431E+02  0.29859171618E+03  0.26295636149E+03 0.  0.
         25    1    4    4    0    0  0.26400295439E+01  0.71824773628E+02  0.58667297987E+02  0.15574057858E+03  0.12509000000E+03 0.  0.
         25    1    4    4    0    0 -0.55698037413E+02  0.18825153635E+02  0.36087139444E+02  0.14285113760E+03  0.12509000000E+03 0.  0.
         25    1    3    3    0    0  0.53058007869E+02 -0.90649927262E+02  0.24218500160E+02  0.16512602872E+03  0.12509000000E+03 0.  0.
<mgrwt>
<rscale>  2 0.44819592E+03</rscale>
<asrwt>0</asrwt>
<pdfrwt beam="1">  1       21 0.42844904E-01 0.44819592E+03</pdfrwt>
<pdfrwt beam="2">  1       21 0.25348883E-01 0.44819592E+03</pdfrwt>
<totfact> 0.71698294E+04</totfact>
</mgrwt>
</event>
<event>
 7    0  0.4732500E-002  0.4515634E+03  0.7546771E-02  0.1027257E+00
         21   -1    0    0  502  501  0.00000000000E+00  0.00000000000E+00  0.14330093870E+04  0.14330093870E+04  0.00000000000E+00 0. -1.
         21   -1    0    0  501  502 -0.00000000000E+00 -0.00000000000E+00 -0.35573649098E+02  0.35573649098E+02  0.00000000000E+00 0. -1.
      99926    2    1    2    0    0  0.00000000000E+00  0.00000000000E+00  0.13974357379E+04  0.14685830361E+04  0.45156338685E+03 0.  0.
      99925    2    3    3    0    0  0.81478679555E+01  0.99735087558E+02  0.73388274610E+03  0.78596780299E+03  0.26296012410E+03 0.  0.
         25    1    4    4    0    0  0.37811409831E+01  0.93117064877E+02  0.41226241696E+03  0.44078667554E+03  0.12509000000E+03 0.  0.
         25    1    4    4    0    0  0.43667269724E+01  0.66180226819E+01  0.32162032915E+03  0.34518112745E+03  0.12509000000E+03 0.  0.
         25    1    3    3    0    0 -0.81478679555E+01 -0.99735087558E+02  0.66355299176E+03  0.68261523307E+03  0.12509000000E+03 0.  0.
<mgrwt>
<rscale>  2 0.45156339E+03</rscale>
<asrwt>0</asrwt>
<pdfrwt beam="1">  1       21 0.21073664E+00 0.45156339E+03</pdfrwt>
<pdfrwt beam="2">  1       21 0.52314200E-02 0.45156339E+03</pdfrwt>
<totfact> 0.25226459E+04</totfact>
</mgrwt>
</event>
<event>
 7    0  0.4732500E-002  0.4538147E+03  0.7546771E-02  0.1026591E+00
         21   -1    0    0  502  501  0.00000000000E+00  0.00000000000E+00  0.87356388073E+03  0.87356388073E+03  0.00000000000E+00 0. -1.
         21   -1    0    0  501  502 -0.00000000000E+00 -0.00000000000E+00 -0.58938962100E+02  0.58938962100E+02  0.00000000000E+00 0. -1.
      99926    2    1    2    0    0 -0.35527136788E-14  0.00000000000E+00  0.81462491863E+03  0.93250284283E+03  0.45381471311E+03 0.  0.
      99925    2    3    3    0    0 -0.12383690720E+02 -0.10167910050E+03  0.41989723958E+03  0.50594751936E+03  0.26301559890E+03 0.  0.
         25    1    3    3    0    0  0.12383690720E+02  0.10167910050E+03  0.39472767905E+03  0.42655532347E+03  0.12509000000E+03 0.  0.
         25    1    4    4    0    0  0.16840910995E+02 -0.59071045747E+02  0.15470786018E+03  0.20821871873E+03  0.12509000000E+03 0.  0.
         25    1    4    4    0    0 -0.29224601715E+02 -0.42608054756E+02  0.26518937941E+03  0.29772880063E+03  0.12509000000E+03 0.  0.
<mgrwt>
<rscale>  2 0.45381471E+03</rscale>
<asrwt>0</asrwt>
<pdfrwt beam="1">  1       21 0.12846527E+00 0.45381471E+03</pdfrwt>
<pdfrwt beam="2">  1       21 0.86674950E-02 0.45381471E+03</pdfrwt>
<totfact> 0.42247874E+04</totfact>
</mgrwt>
</event>
<event>
 7    0  0.4732500E-002  0.4544847E+03  0.7546771E-02  0.1026393E+00
         21   -1    0    0  502  501  0.00000000000E+00  0.00000000000E+00  0.16999525315E+04  0.16999525315E+04  0.00000000000E+00 0. -1.
         21   -1    0    0  501  502 -0.00000000000E+00 -0.00000000000E+00 -0.30376776544E+02  0.30376776544E+02  0.00000000000E+00 0. -1.
      99926    2    1    2    0    0 -0.35527136788E-14  0.17763568394E-14  0.16695757550E+04  0.17303293080E+04  0.45448466722E+03 0.  0.
      99925    2    3    3    0    0  0.19482727684E+02 -0.11779224983E+02  0.14707404285E+04  0.14943180330E+04  0.26342104848E+03 0.  0.
         25    1    3    3    0    0 -0.19482727684E+02  0.11779224983E+02  0.19883532645E+03  0.23601127508E+03  0.12509000000E+03 0.  0.
         25    1    4    4    0    0  0.68596820718E+01 -0.27924112176E+02  0.54330607121E+03  0.55826141403E+03  0.12509000000E+03 0.  0.
         25    1    4    4    0    0  0.12623045612E+02  0.16144887193E+02  0.92743435730E+03  0.93605661894E+03  0.12509000000E+03 0.  0.
<mgrwt>
<rscale>  2 0.45448467E+03</rscale>
<asrwt>0</asrwt>
<pdfrwt beam="1">  1       21 0.24999295E+00 0.45448467E+03</pdfrwt>
<pdfrwt beam="2">  1       21 0.44671742E-02 0.45448467E+03</pdfrwt>
<totfact> 0.18712156E+04</totfact>
</mgrwt>
</event>
<event>
 7    0  0.4732500E-002  0.4566076E+03  0.7546771E-02  0.1025770E+00
         21   -1    0    0  502  501  0.00000000000E+00  0.00000000000E+00  0.14196797852E+03  0.14196797852E+03  0.00000000000E+00 0.  1.
         21   -1    0    0  501  502 -0.00000000000E+00 -0.00000000000E+00 -0.36714358386E+03  0.36714358386E+03  0.00000000000E+00 0.  1.
      99926    2    1    2    0    0  0.00000000000E+00  0.00000000000E+00 -0.22517560534E+03  0.50911156239E+03  0.45660763213E+03 0.  0.
      99925    2    3    3    0    0 -0.17903202142E+02  0.50903481613E+02 -0.28581213608E+02  0.26992846924E+03  0.26293117664E+03 0.  0.
         25    1    4    4    0    0 -0.11965591742E+01  0.85833070395E+01 -0.50221373247E+02  0.13507331100E+03  0.12509000000E+03 0.  0.
         25    1    3    3    0    0  0.17903202142E+02 -0.50903481613E+02 -0.19659439173E+03  0.23918309315E+03  0.12509000000E+03 0.  0.
         25    1    4    4    0    0 -0.16706642968E+02  0.42320174574E+02  0.21640159639E+02  0.13485515824E+03  0.12509000000E+03 0.  0.
<mgrwt>
<rscale>  2 0.45660763E+03</rscale>
<asrwt>0</asrwt>
<pdfrwt beam="1">  1       21 0.20877644E-01 0.45660763E+03</pdfrwt>
<pdfrwt beam="2">  1       21 0.53991703E-01 0.45660763E+03</pdfrwt>
<totfact> 0.63817017E+04</totfact>
</mgrwt>
</event>
<event>
 7    0  0.4732500E-002  0.4567267E+03  0.7546771E-02  0.1025735E+00
         21   -1    0    0  502  501  0.00000000000E+00  0.00000000000E+00  0.11414069408E+03  0.11414069408E+03  0.00000000000E+00 0.  1.
         21   -1    0    0  501  502 -0.00000000000E+00 -0.00000000000E+00 -0.45689074828E+03  0.45689074828E+03  0.00000000000E+00 0.  1.
      99926    2    1    2    0    0  0.00000000000E+00  0.00000000000E+00 -0.34275005420E+03  0.57103144236E+03  0.45672673286E+03 0.  0.
      99925    2    3    3    0    0  0.82754754621E+02 -0.79917933626E+02 -0.20613170854E+03  0.35297799478E+03  0.26242705274E+03 0.  0.
         25    1    4    4    0    0  0.14828716102E+02 -0.59639971339E+01 -0.92891857999E+02  0.15662651584E+03  0.12509000000E+03 0.  0.
         25    1    3    3    0    0 -0.82754754621E+02  0.79917933626E+02 -0.13661834566E+03  0.21805344757E+03  0.12509000000E+03 0.  0.
         25    1    4    4    0    0  0.67926038519E+02 -0.73953936492E+02 -0.11323985054E+03  0.19635147894E+03  0.12509000000E+03 0.  0.
<mgrwt>
<rscale>  2 0.45672673E+03</rscale>
<asrwt>0</asrwt>
<pdfrwt beam="1">  1       21 0.16785396E-01 0.45672673E+03</pdfrwt>
<pdfrwt beam="2">  1       21 0.67189816E-01 0.45672673E+03</pdfrwt>
<totfact> 0.59678696E+04</totfact>
</mgrwt>
</event>
<event>
 7    0  0.4732500E-002  0.4489039E+03  0.7546771E-02  0.1028049E+00
         21   -1    0    0  502  501  0.00000000000E+00  0.00000000000E+00  0.48788046595E+03  0.48788046595E+03  0.00000000000E+00 0.  1.
         21   -1    0    0  501  502 -0.00000000000E+00 -0.00000000000E+00 -0.10326029951E+03  0.10326029951E+03  0.00000000000E+00 0.  1.
      99926    2    1    2    0    0 -0.71054273576E-14  0.71054273576E-14  0.38462016644E+03  0.59114076546E+03  0.44890392307E+03 0.  0.
      99925    2    3    3    0    0 -0.44036089530E+02  0.56828408516E+02  0.13605601509E+03  0.30373810257E+03  0.26187201171E+03 0.  0.
         25    1    4    4    0    0 -0.27368733727E+02 -0.10286507724E+02  0.59082889520E+02  0.14139715613E+03  0.12509000000E+03 0.  0.
         25    1    3    3    0    0  0.44036089530E+02 -0.56828408516E+02  0.24856415135E+03  0.28740266289E+03  0.12509000000E+03 0.  0.
         25    1    4    4    0    0 -0.16667355803E+02  0.67114916240E+02  0.76973125570E+02  0.16234094644E+03  0.12509000000E+03 0.  0.
<mgrwt>
<rscale>  2 0.44890392E+03</rscale>
<asrwt>0</asrwt>
<pdfrwt beam="1">  1       21 0.71747126E-01 0.44890392E+03</pdfrwt>
<pdfrwt beam="2">  1       21 0.15185338E-01 0.44890392E+03</pdfrwt>
<totfact> 0.62168341E+04</totfact>
</mgrwt>
</event>
<event>
 7    0  0.4732500E-002  0.4549723E+03  0.7546771E-02  0.1026250E+00
         21   -1    0    0  502  501  0.00000000000E+00  0.00000000000E+00  0.10179779068E+03  0.10179779068E+03  0.00000000000E+00 0.  1.
         21   -1    0    0  501  502 -0.00000000000E+00 -0.00000000000E+00 -0.50836017899E+03  0.50836017899E+03  0.00000000000E+00 0.  1.
      99926    2    1    2    0    0 -0.35527136788E-14  0.00000000000E+00 -0.40656238831E+03  0.61015796967E+03  0.45497227648E+03 0.  0.
      99925    2    3    3    0    0  0.25351917480E+02 -0.55138207581E+02 -0.38395881475E+03  0.46929856710E+03  0.26293313219E+03 0.  0.
         25    1    4    4    0    0 -0.19963258520E+02 -0.30049250698E+01 -0.19040593225E+03  0.22871267652E+03  0.12509000000E+03 0.  0.
         25    1    3    3    0    0 -0.25351917480E+02  0.55138207581E+02 -0.22603573562E+02  0.14085940257E+03  0.12509000000E+03 0.  0.
         25    1    4    4    0    0  0.45315175999E+02 -0.52133282512E+02 -0.19355288251E+03  0.24058589058E+03  0.12509000000E+03 0.  0.
<mgrwt>
<rscale>  2 0.45497228E+03</rscale>
<asrwt>0</asrwt>
<pdfrwt beam="1">  1       21 0.14970264E-01 0.45497228E+03</pdfrwt>
<pdfrwt beam="2">  1       21 0.74758849E-01 0.45497228E+03</pdfrwt>
<totfact> 0.58070052E+04</totfact>
</mgrwt>
</event>
<event>
 7    0  0.4732500E-002  0.3974504E+03  0.7546771E-02  0.1044666E+00
         21   -1    0    0  502  501  0.00000000000E+00  0.00000000000E+00  0.29464636907E+03  0.29464636907E+03  0.00000000000E+00 0.  1.
         21   -1    0    0  501  502 -0.00000000000E+00 -0.00000000000E+00 -0.13403082908E+03  0.13403082908E+03  0.00000000000E+00 0.  1.
      99926    2    1    2    0    0  0.00000000000E+00  0.00000000000E+00  0.16061553999E+03  0.42867719815E+03  0.39745035983E+03 0.  0.
      99925    2    3    3    0    0 -0.32666785357E+02  0.18234665772E+02  0.12273274987E+03  0.29272781129E+03  0.26310952417E+03 0.  0.
         25    1    4    4    0    0  0.20876249296E+02  0.19996233257E+02  0.45199648498E+02  0.13611092334E+03  0.12509000000E+03 0.  0.
         25    1    3    3    0    0  0.32666785357E+02 -0.18234665772E+02  0.37882790117E+02  0.13594938686E+03  0.12509000000E+03 0.  0.
         25    1    4    4    0    0 -0.53543034653E+02 -0.17615674852E+01  0.77533101375E+02  0.15661688794E+03  0.12509000000E+03 0.  0.
<mgrwt>
<rscale>  2 0.39745036E+03</rscale>
<asrwt>0</asrwt>
<pdfrwt beam="1">  1       21 0.43330348E-01 0.39745036E+03</pdfrwt>
<pdfrwt beam="2">  1       21 0.19710416E-01 0.39745036E+03</pdfrwt>
<totfact> 0.11474462E+05</totfact>
</mgrwt>
</event>
<event>
 7    0  0.4732500E-002  0.4533805E+03  0.7546771E-02  0.1026719E+00
         21   -1    0    0  502  501  0.00000000000E+00  0.00000000000E+00  0.17421149830E+02  0.17421149830E+02  0.00000000000E+00 0.  1.
         21   -1    0    0  501  502 -0.00000000000E+00 -0.00000000000E+00 -0.29497750954E+04  0.29497750954E+04  0.00000000000E+00 0.  1.
      99926    2    1    2    0    0  0.71054273576E-14 -0.14210854715E-13 -0.29323539456E+04  0.29671962452E+04  0.45338051966E+03 0.  0.
      99925    2    3    3    0    0 -0.61014180180E+02  0.91798856630E+02 -0.19637740628E+04  0.19843716130E+04  0.26300640409E+03 0.  0.
         25    1    3    3    0    0  0.61014180180E+02 -0.91798856630E+02 -0.96857988277E+03  0.98282463221E+03  0.12509000000E+03 0.  0.
         25    1    4    4    0    0 -0.48569310758E+02  0.78497989868E+02 -0.93105948417E+03  0.94394924838E+03  0.12509000000E+03 0.  0.
         25    1    4    4    0    0 -0.12444869422E+02  0.13300866761E+02 -0.10327145786E+04  0.10404223647E+04  0.12509000000E+03 0.  0.
<mgrwt>
<rscale>  2 0.45338052E+03</rscale>
<asrwt>0</asrwt>
<pdfrwt beam="1">  1       21 0.25619353E-02 0.45338052E+03</pdfrwt>
<pdfrwt beam="2">  1       21 0.43379020E+00 0.45338052E+03</pdfrwt>
<totfact> 0.34777306E+03</totfact>
</mgrwt>
</event>
<event>
 7    0  0.4732500E-002  0.4622464E+03  0.7546771E-02  0.1024132E+00
         21   -1    0    0  502  501  0.00000000000E+00  0.00000000000E+00  0.25503146098E+03  0.25503146098E+03  0.00000000000E+00 0.  1.
         21   -1    0    0  501  502 -0.00000000000E+00 -0.00000000000E+00 -0.20945624255E+03  0.20945624255E+03  0.00000000000E+00 0.  1.
      99926    2    1    2    0    0  0.00000000000E+00 -0.71054273576E-14  0.45575218435E+02  0.46448770353E+03  0.46224639122E+03 0.  0.
      99925    2    3    3    0    0  0.11254393694E+03 -0.41089418088E+02  0.22033191926E+02  0.28968434792E+03  0.26282519260E+03 0.  0.
         25    1    3    3    0    0 -0.11254393694E+03  0.41089418088E+02  0.23542026509E+02  0.17480335561E+03  0.12509000000E+03 0.  0.
         25    1    4    4    0    0  0.58040447182E+02  0.18706488369E+02  0.20768868364E+02  0.14070351882E+03  0.12509000000E+03 0.  0.
         25    1    4    4    0    0  0.54503489757E+02 -0.59795906456E+02  0.12643235618E+01  0.14898082910E+03  0.12509000000E+03 0.  0.
<mgrwt>
<rscale>  2 0.46224639E+03</rscale>
<asrwt>0</asrwt>
<pdfrwt beam="1">  1       21 0.37504627E-01 0.46224639E+03</pdfrwt>
<pdfrwt beam="2">  1       21 0.30802389E-01 0.46224639E+03</pdfrwt>
<totfact> 0.64071012E+04</totfact>
</mgrwt>
</event>
<event>
 7    0  0.4732500E-002  0.4594736E+03  0.7546771E-02  0.1024934E+00
         21   -1    0    0  502  501  0.00000000000E+00  0.00000000000E+00  0.51473575908E+03  0.51473575908E+03  0.00000000000E+00 0.  1.
         21   -1    0    0  501  502 -0.00000000000E+00 -0.00000000000E+00 -0.10253611723E+03  0.10253611723E+03  0.00000000000E+00 0.  1.
      99926    2    1    2    0    0  0.35527136788E-14  0.35527136788E-14  0.41219964184E+03  0.61727187631E+03  0.45947363857E+03 0.  0.
      99925    2    3    3    0    0  0.10087217216E+02  0.16223234235E+02  0.10286254489E+03  0.28305354507E+03  0.26300886099E+03 0.  0.
         25    1    4    4    0    0  0.31612091152E+02  0.38877486077E+02  0.51068340453E+02  0.14410505448E+03  0.12509000000E+03 0.  0.
         25    1    3    3    0    0 -0.10087217216E+02 -0.16223234235E+02  0.30933709695E+03  0.33421833123E+03  0.12509000000E+03 0.  0.
         25    1    4    4    0    0 -0.21524873936E+02 -0.22654251842E+02  0.51794204437E+02  0.13894849059E+03  0.12509000000E+03 0.  0.
<mgrwt>
<rscale>  2 0.45947364E+03</rscale>
<asrwt>0</asrwt>
<pdfrwt beam="1">  1       21 0.75696434E-01 0.45947364E+03</pdfrwt>
<pdfrwt beam="2">  1       21 0.15078841E-01 0.45947364E+03</pdfrwt>
<totfact> 0.55635713E+04</totfact>
</mgrwt>
</event>
<event>
 7    0  0.4732500E-002  0.4483389E+03  0.7546771E-02  0.1028219E+00
         21   -1    0    0  502  501  0.00000000000E+00  0.00000000000E+00  0.12049061865E+03  0.12049061865E+03  0.00000000000E+00 0. -1.
         21   -1    0    0  501  502 -0.00000000000E+00 -0.00000000000E+00 -0.41706110675E+03  0.41706110675E+03  0.00000000000E+00 0. -1.
      99926    2    1    2    0    0  0.00000000000E+00  0.00000000000E+00 -0.29657048810E+03  0.53755172540E+03  0.44833893771E+03 0.  0.
      99925    2    3    3    0    0  0.70737377143E+02 -0.66443572504E+02 -0.24034161458E+03  0.36954065681E+03  0.26339643218E+03 0.  0.
         25    1    4    4    0    0 -0.23884835153E+01 -0.11603872720E+02 -0.11323777012E+03  0.16914684566E+03  0.12509000000E+03 0.  0.
         25    1    3    3    0    0 -0.70737377143E+02  0.66443572504E+02 -0.56228873520E+02  0.16801106859E+03  0.12509000000E+03 0.  0.
         25    1    4    4    0    0  0.73125860658E+02 -0.54839699783E+02 -0.12710384445E+03  0.20039381114E+03  0.12509000000E+03 0.  0.
<mgrwt>
<rscale>  2 0.44833894E+03</rscale>
<asrwt>0</asrwt>
<pdfrwt beam="1">  1       21 0.17719209E-01 0.44833894E+03</pdfrwt>
<pdfrwt beam="2">  1       21 0.61332516E-01 0.44833894E+03</pdfrwt>
<totfact> 0.66113715E+04</totfact>
</mgrwt>
</event>
<event>
 7    0  0.4732500E-002  0.4753887E+03  0.7546771E-02  0.1020410E+00
         21   -1    0    0  502  501  0.00000000000E+00  0.00000000000E+00  0.77170018786E+03  0.77170018786E+03  0.00000000000E+00 0. -1.
         21   -1    0    0  501  502 -0.00000000000E+00 -0.00000000000E+00 -0.73213157303E+02  0.73213157303E+02  0.00000000000E+00 0. -1.
      99926    2    1    2    0    0  0.00000000000E+00  0.00000000000E+00  0.69848703056E+03  0.84491334517E+03  0.47538871356E+03 0.  0.
      99925    2    3    3    0    0  0.33854822174E+02  0.12326010813E+03  0.48550773690E+03  0.56680025509E+03  0.26306950288E+03 0.  0.
         25    1    4    4    0    0  0.26634678238E+02  0.81730591131E+02  0.19022887663E+03  0.24335946502E+03  0.12509000000E+03 0.  0.
         25    1    4    4    0    0  0.72201439358E+01  0.41529517002E+02  0.29527886027E+03  0.32344079007E+03  0.12509000000E+03 0.  0.
         25    1    3    3    0    0 -0.33854822174E+02 -0.12326010813E+03  0.21297929366E+03  0.27811309007E+03  0.12509000000E+03 0.  0.
<mgrwt>
<rscale>  2 0.47538871E+03</rscale>
<asrwt>0</asrwt>
<pdfrwt beam="1">  1       21 0.11348532E+00 0.47538871E+03</pdfrwt>
<pdfrwt beam="2">  1       21 0.10766641E-01 0.47538871E+03</pdfrwt>
<totfact> 0.39038510E+04</totfact>
</mgrwt>
</event>
<event>
 7    0  0.4732500E-002  0.4568446E+03  0.7546771E-02  0.1025700E+00
         21   -1    0    0  502  501  0.00000000000E+00  0.00000000000E+00  0.64008506916E+03  0.64008506916E+03  0.00000000000E+00 0. -1.
         21   -1    0    0  501  502 -0.00000000000E+00 -0.00000000000E+00 -0.81515321638E+02  0.81515321638E+02  0.00000000000E+00 0. -1.
      99926    2    1    2    0    0  0.00000000000E+00  0.00000000000E+00  0.55856974752E+03  0.72160039080E+03  0.45684457002E+03 0.  0.
      99925    2    3    3    0    0  0.67002907142E+02 -0.32299561202E+02  0.48916511267E+03  0.56036403430E+03  0.26304503846E+03 0.  0.
         25    1    4    4    0    0  0.59879949707E+02 -0.32172794985E+02  0.20273239692E+03  0.24772692622E+03  0.12509000000E+03 0.  0.
         25    1    3    3    0    0 -0.67002907142E+02  0.32299561202E+02  0.69404634848E+02  0.16123635650E+03  0.12509000000E+03 0.  0.
         25    1    4    4    0    0  0.71229574355E+01 -0.12676621761E+00  0.28643271575E+03  0.31263710808E+03  0.12509000000E+03 0.  0.
<mgrwt>
<rscale>  2 0.45684457E+03</rscale>
<asrwt>0</asrwt>
<pdfrwt beam="1">  1       21 0.94130155E-01 0.45684457E+03</pdfrwt>
<pdfrwt beam="2">  1       21 0.11987548E-01 0.45684457E+03</pdfrwt>
<totfact> 0.51001905E+04</totfact>
</mgrwt>
</event>
<event>
 7    0  0.4732500E-002  0.4807594E+03  0.7546771E-02  0.1018927E+00
         21   -1    0    0  502  501  0.00000000000E+00  0.00000000000E+00  0.57347372417E+03  0.57347372417E+03  0.00000000000E+00 0.  1.
         21   -1    0    0  501  502 -0.00000000000E+00 -0.00000000000E+00 -0.10075858195E+03  0.10075858195E+03  0.00000000000E+00 0.  1.
      99926    2    1    2    0    0  0.00000000000E+00 -0.14210854715E-13  0.47271514223E+03  0.67423230612E+03  0.48075939609E+03 0.  0.
      99925    2    3    3    0    0  0.43136822940E+02  0.11705427095E+03  0.21819399521E+03  0.36440814596E+03  0.26386017027E+03 0.  0.
         25    1    3    3    0    0 -0.43136822940E+02 -0.11705427095E+03  0.25452114702E+03  0.30982416016E+03  0.12509000000E+03 0.  0.
         25    1    4    4    0    0  0.61774217925E+02  0.70748355412E+02  0.13028433132E+03  0.20357529045E+03  0.12509000000E+03 0.  0.
         25    1    4    4    0    0 -0.18637394985E+02  0.46305915540E+02  0.87909663890E+02  0.16083285551E+03  0.12509000000E+03 0.  0.
<mgrwt>
<rscale>  2 0.48075940E+03</rscale>
<asrwt>0</asrwt>
<pdfrwt beam="1">  1       21 0.84334369E-01 0.48075940E+03</pdfrwt>
<pdfrwt beam="2">  1       21 0.14817439E-01 0.48075940E+03</pdfrwt>
<totfact> 0.44561772E+04</totfact>
</mgrwt>
</event>
<event>
 7    0  0.4732500E-002  0.4552210E+03  0.7546771E-02  0.1026176E+00
         21   -1    0    0  502  501  0.00000000000E+00  0.00000000000E+00  0.22660380877E+02  0.22660380877E+02  0.00000000000E+00 0.  1.
         21   -1    0    0  501  502 -0.00000000000E+00 -0.00000000000E+00 -0.22862162261E+04  0.22862162261E+04  0.00000000000E+00 0.  1.
      99926    2    1    2    0    0 -0.14210854715E-13  0.00000000000E+00 -0.22635558452E+04  0.23088766070E+04  0.45522095932E+03 0.  0.
      99925    2    3    3    0    0 -0.64982249899E+02  0.89380989102E+02 -0.12977617086E+04  0.13287656559E+04  0.26309895845E+03 0.  0.
         25    1    4    4    0    0 -0.60393578333E+02  0.22818784637E+02 -0.55336783333E+03  0.57099172350E+03  0.12509000000E+03 0.  0.
         25    1    4    4    0    0 -0.45886715654E+01  0.66562204464E+02 -0.74439387524E+03  0.75777393236E+03  0.12509000000E+03 0.  0.
         25    1    3    3    0    0  0.64982249899E+02 -0.89380989102E+02 -0.96579413667E+03  0.98011095114E+03  0.12509000000E+03 0.  0.
<mgrwt>
<rscale>  2 0.45522096E+03</rscale>
<asrwt>0</asrwt>
<pdfrwt beam="1">  1       21 0.33324105E-02 0.45522096E+03</pdfrwt>
<pdfrwt beam="2">  1       21 0.33620811E+00 0.45522096E+03</pdfrwt>
<totfact> 0.92746629E+03</totfact>
</mgrwt>
</event>
<event>
 7    0  0.4732500E-002  0.4566671E+03  0.7546771E-02  0.1025752E+00
         21   -1    0    0  502  501  0.00000000000E+00  0.00000000000E+00  0.16102277621E+03  0.16102277621E+03  0.00000000000E+00 0.  1.
         21   -1    0    0  501  502 -0.00000000000E+00 -0.00000000000E+00 -0.32378156981E+03  0.32378156981E+03  0.00000000000E+00 0.  1.
      99926    2    1    2    0    0  0.00000000000E+00 -0.71054273576E-14 -0.16275879360E+03  0.48480434601E+03  0.45666708773E+03 0.  0.
      99925    2    3    3    0    0 -0.94311907635E+02  0.52154959372E+02 -0.14393291934E+03  0.31862132236E+03  0.26303609274E+03 0.  0.
         25    1    3    3    0    0  0.94311907635E+02 -0.52154959372E+02 -0.18825874261E+02  0.16618302365E+03  0.12509000000E+03 0.  0.
         25    1    4    4    0    0 -0.48055271150E+02 -0.15077183540E+02 -0.65209565410E+02  0.14978793700E+03  0.12509000000E+03 0.  0.
         25    1    4    4    0    0 -0.46256636485E+02  0.67232142912E+02 -0.78723353931E+02  0.16883338536E+03  0.12509000000E+03 0.  0.
<mgrwt>
<rscale>  2 0.45666709E+03</rscale>
<asrwt>0</asrwt>
<pdfrwt beam="1">  1       21 0.23679820E-01 0.45666709E+03</pdfrwt>
<pdfrwt beam="2">  1       21 0.47614936E-01 0.45666709E+03</pdfrwt>
<totfact> 0.65481155E+04</totfact>
</mgrwt>
</event>
<event>
 7    0  0.4732500E-002  0.4090204E+03  0.7546771E-02  0.1040700E+00
         21   -1    0    0  502  501  0.00000000000E+00  0.00000000000E+00  0.22769756518E+03  0.22769756518E+03  0.00000000000E+00 0.  1.
         21   -1    0    0  501  502 -0.00000000000E+00 -0.00000000000E+00 -0.18368412167E+03  0.18368412167E+03  0.00000000000E+00 0.  1.
      99926    2    1    2    0    0  0.00000000000E+00  0.00000000000E+00  0.44013443508E+02  0.41138168685E+03  0.40902042622E+03 0.  0.
      99925    2    3    3    0    0 -0.59630646996E+02  0.11780726384E+02  0.25199842947E+02  0.27103903745E+03  0.26293065276E+03 0.  0.
         25    1    4    4    0    0 -0.47316762322E+02 -0.10119980217E+02  0.45948371684E+02  0.14177464850E+03  0.12509000000E+03 0.  0.
         25    1    3    3    0    0  0.59630646996E+02 -0.11780726384E+02  0.18813600561E+02  0.14034264940E+03  0.12509000000E+03 0.  0.
         25    1    4    4    0    0 -0.12313884674E+02  0.21900706600E+02 -0.20748528736E+02  0.12926438895E+03  0.12509000000E+03 0.  0.
<mgrwt>
<rscale>  2 0.40902043E+03</rscale>
<asrwt>0</asrwt>
<pdfrwt beam="1">  1       21 0.33484936E-01 0.40902043E+03</pdfrwt>
<pdfrwt beam="2">  1       21 0.27012371E-01 0.40902043E+03</pdfrwt>
<totfact> 0.10560894E+05</totfact>
</mgrwt>
</event>
<event>
 7    0  0.4732500E-002  0.4541285E+03  0.7546771E-02  0.1026498E+00
         21   -1    0    0  502  501  0.00000000000E+00  0.00000000000E+00  0.13226288416E+04  0.13226288416E+04  0.00000000000E+00 0.  1.
         21   -1    0    0  501  502 -0.00000000000E+00 -0.00000000000E+00 -0.38981583079E+02  0.38981583079E+02  0.00000000000E+00 0.  1.
      99926    2    1    2    0    0  0.00000000000E+00 -0.14210854715E-13  0.12836472585E+04  0.13616104247E+04  0.45412846672E+03 0.  0.
      99925    2    3    3    0    0  0.19622789908E+02 -0.11070341161E+03  0.81513830483E+03  0.86382689038E+03  0.26288046965E+03 0.  0.
         25    1    3    3    0    0 -0.19622789908E+02  0.11070341161E+03  0.46850895370E+03  0.49778353431E+03  0.12509000000E+03 0.  0.
         25    1    4    4    0    0  0.43641145713E+02 -0.77812928498E+02  0.46941860567E+03  0.49392381689E+03  0.12509000000E+03 0.  0.
         25    1    4    4    0    0 -0.24018355805E+02 -0.32890483112E+02  0.34571969915E+03  0.36990307349E+03  0.12509000000E+03 0.  0.
<mgrwt>
<rscale>  2 0.45412847E+03</rscale>
<asrwt>0</asrwt>
<pdfrwt beam="1">  1       21 0.19450421E+00 0.45412847E+03</pdfrwt>
<pdfrwt beam="2">  1       21 0.57325866E-02 0.45412847E+03</pdfrwt>
<totfact> 0.27559454E+04</totfact>
</mgrwt>
</event>
<event>
 7    0  0.4732500E-002  0.4504902E+03  0.7546771E-02  0.1027576E+00
         21   -1    0    0  502  501  0.00000000000E+00  0.00000000000E+00  0.10227253053E+03  0.10227253053E+03  0.00000000000E+00 0.  1.
         21   -1    0    0  501  502 -0.00000000000E+00 -0.00000000000E+00 -0.49607992544E+03  0.49607992544E+03  0.00000000000E+00 0.  1.
      99926    2    1    2    0    0  0.00000000000E+00  0.00000000000E+00 -0.39380739490E+03  0.59835245597E+03  0.45049017446E+03 0.  0.
      99925    2    3    3    0    0 -0.27390226836E+02 -0.89133804922E+02 -0.32348322105E+03  0.42721491703E+03  0.26301355731E+03 0.  0.
         25    1    3    3    0    0  0.27390226836E+02  0.89133804922E+02 -0.70324173855E+02  0.17113753894E+03  0.12509000000E+03 0.  0.
         25    1    4    4    0    0 -0.69255469077E+01 -0.76227926896E+02 -0.21283753737E+03  0.25846853861E+03  0.12509000000E+03 0.  0.
         25    1    4    4    0    0 -0.20464679928E+02 -0.12905878026E+02 -0.11064568368E+03  0.16874637842E+03  0.12509000000E+03 0.  0.
<mgrwt>
<rscale>  2 0.45049017E+03</rscale>
<asrwt>0</asrwt>
<pdfrwt beam="1">  1       21 0.15040078E-01 0.45049017E+03</pdfrwt>
<pdfrwt beam="2">  1       21 0.72952931E-01 0.45049017E+03</pdfrwt>
<totfact> 0.60921845E+04</totfact>
</mgrwt>
</event>
<event>
 7    0  0.4732500E-002  0.4516981E+03  0.7546771E-02  0.1027217E+00
         21   -1    0    0  502  501  0.00000000000E+00  0.00000000000E+00  0.23938652770E+03  0.23938652770E+03  0.00000000000E+00 0.  1.
         21   -1    0    0  501  502 -0.00000000000E+00 -0.00000000000E+00 -0.21307713661E+03  0.21307713661E+03  0.00000000000E+00 0.  1.
      99926    2    1    2    0    0 -0.14210854715E-13  0.00000000000E+00  0.26309391092E+02  0.45246366431E+03  0.45169811098E+03 0.  0.
      99925    2    3    3    0    0 -0.10760483930E+03 -0.21798983765E+02  0.25569596822E+02  0.28602432842E+03  0.26287281152E+03 0.  0.
         25    1    4    4    0    0 -0.40532415575E+02  0.27941410779E+02  0.93996988566E+01  0.13475704652E+03  0.12509000000E+03 0.  0.
         25    1    3    3    0    0  0.10760483930E+03  0.21798983765E+02  0.73979426995E+00  0.16643933589E+03  0.12509000000E+03 0.  0.
         25    1    4    4    0    0 -0.67072423728E+02 -0.49740394544E+02  0.16169897966E+02  0.15126728190E+03  0.12509000000E+03 0.  0.
<mgrwt>
<rscale>  2 0.45169811E+03</rscale>
<asrwt>0</asrwt>
<pdfrwt beam="1">  1       21 0.35203901E-01 0.45169811E+03</pdfrwt>
<pdfrwt beam="2">  1       21 0.31334873E-01 0.45169811E+03</pdfrwt>
<totfact> 0.70573050E+04</totfact>
</mgrwt>
</event>
<event>
 7    0  0.4732500E-002  0.4544143E+03  0.7546771E-02  0.1026414E+00
         21   -1    0    0  502  501  0.00000000000E+00  0.00000000000E+00  0.58950211054E+02  0.58950211054E+02  0.00000000000E+00 0.  1.
         21   -1    0    0  501  502 -0.00000000000E+00 -0.00000000000E+00 -0.87570654554E+03  0.87570654554E+03  0.00000000000E+00 0.  1.
      99926    2    1    2    0    0  0.00000000000E+00 -0.14210854715E-13 -0.81675633449E+03  0.93465675659E+03  0.45441428534E+03 0.  0.
      99925    2    3    3    0    0  0.27957369072E+02 -0.73599277938E+02 -0.67979635034E+03  0.73315238057E+03  0.26304156897E+03 0.  0.
         25    1    4    4    0    0  0.13282309371E+02 -0.22727087878E+01 -0.37912084674E+03  0.39945176114E+03  0.12509000000E+03 0.  0.
         25    1    3    3    0    0 -0.27957369072E+02  0.73599277938E+02 -0.13695998415E+03  0.20150437602E+03  0.12509000000E+03 0.  0.
         25    1    4    4    0    0  0.14675059701E+02 -0.71326569150E+02 -0.30067550360E+03  0.33370061943E+03  0.12509000000E+03 0.  0.
<mgrwt>
<rscale>  2 0.45441429E+03</rscale>
<asrwt>0</asrwt>
<pdfrwt beam="1">  1       21 0.86691498E-02 0.45441429E+03</pdfrwt>
<pdfrwt beam="2">  1       21 0.12878036E+00 0.45441429E+03</pdfrwt>
<totfact> 0.41960323E+04</totfact>
</mgrwt>
</event>
<event>
 7    0  0.4732500E-002  0.4527617E+03  0.7546771E-02  0.1026902E+00
         21   -1    0    0  502  501  0.00000000000E+00  0.00000000000E+00  0.77518383439E+03  0.77518383439E+03  0.00000000000E+00 0. -1.
         21   -1    0    0  501  502 -0.00000000000E+00 -0.00000000000E+00 -0.66111130997E+02  0.66111130997E+02  0.00000000000E+00 0. -1.
      99926    2    1    2    0    0  0.88817841970E-15  0.00000000000E+00  0.70907270339E+03  0.84129496538E+03  0.45276165925E+03 0.  0.
      99925    2    3    3    0    0  0.27085197909E+01  0.44120460058E+02  0.63673238568E+03  0.69018381179E+03  0.26262446954E+03 0.  0.
         25    1    4    4    0    0 -0.35495727598E+02  0.69322636643E+01  0.30081857118E+03  0.32779158596E+03  0.12509000000E+03 0.  0.
         25    1    4    4    0    0  0.38204247389E+02  0.37188196394E+02  0.33591381450E+03  0.36239222583E+03  0.12509000000E+03 0.  0.
         25    1    3    3    0    0 -0.27085197909E+01 -0.44120460058E+02  0.72340317710E+02  0.15111115360E+03  0.12509000000E+03 0.  0.
<mgrwt>
<rscale>  2 0.45276166E+03</rscale>
<asrwt>0</asrwt>
<pdfrwt beam="1">  1       21 0.11399762E+00 0.45276166E+03</pdfrwt>
<pdfrwt beam="2">  1       21 0.97222256E-02 0.45276166E+03</pdfrwt>
<totfact> 0.46645054E+04</totfact>
</mgrwt>
</event>
<event>
 7    0  0.4732500E-002  0.4548027E+03  0.7546771E-02  0.1026299E+00
         21   -1    0    0  502  501  0.00000000000E+00  0.00000000000E+00  0.22317219158E+03  0.22317219158E+03  0.00000000000E+00 0.  1.
         21   -1    0    0  501  502 -0.00000000000E+00 -0.00000000000E+00 -0.23171061395E+03  0.23171061395E+03  0.00000000000E+00 0.  1.
      99926    2    1    2    0    0  0.14210854715E-13  0.44408920985E-15 -0.85384223611E+01  0.45488280553E+03  0.45480266282E+03 0.  0.
      99925    2    3    3    0    0 -0.96098944908E+02 -0.19022673022E+01 -0.64789717619E+02  0.28740044183E+03  0.26298798570E+03 0.  0.
         25    1    3    3    0    0  0.96098944908E+02  0.19022673022E+01  0.56251295258E+02  0.16748236370E+03  0.12509000000E+03 0.  0.
         25    1    4    4    0    0 -0.53117760228E+02 -0.52103737625E+01  0.82843713949E+01  0.13625264532E+03  0.12509000000E+03 0.  0.
         25    1    4    4    0    0 -0.42981184679E+02  0.33081064603E+01 -0.73074089014E+02  0.15114779651E+03  0.12509000000E+03 0.  0.
<mgrwt>
<rscale>  2 0.45480266E+03</rscale>
<asrwt>0</asrwt>
<pdfrwt beam="1">  1       21 0.32819440E-01 0.45480266E+03</pdfrwt>
<pdfrwt beam="2">  1       21 0.34075090E-01 0.45480266E+03</pdfrwt>
<totfact> 0.68662429E+04</totfact>
</mgrwt>
</event>
<event>
 7    0  0.4732500E-002  0.4510408E+03  0.7546771E-02  0.1027412E+00
         21   -1    0    0  502  501  0.00000000000E+00  0.00000000000E+00  0.52630336374E+02  0.52630336374E+02  0.00000000000E+00 0.  1.
         21   -1    0    0  501  502 -0.00000000000E+00 -0.00000000000E+00 -0.96635237828E+03  0.96635237828E+03  0.00000000000E+00 0.  1.
      99926    2    1    2    0    0  0.00000000000E+00  0.22204460493E-15 -0.91372204190E+03  0.10189827147E+04  0.45104079959E+03 0.  0.
      99925    2    3    3    0    0 -0.10917839373E+03 -0.17262293382E+01 -0.55968267556E+03  0.62794015617E+03  0.26294722071E+03 0.  0.
         25    1    4    4    0    0 -0.93492197970E+02 -0.26773777313E+01 -0.26828574248E+03  0.31043953864E+03  0.12509000000E+03 0.  0.
         25    1    3    3    0    0  0.10917839373E+03  0.17262293382E+01 -0.35403936634E+03  0.39104255849E+03  0.12509000000E+03 0.  0.
         25    1    4    4    0    0 -0.15686195764E+02  0.95114839309E+00 -0.29139693308E+03  0.31750061753E+03  0.12509000000E+03 0.  0.
<mgrwt>
<rscale>  2 0.45104080E+03</rscale>
<asrwt>0</asrwt>
<pdfrwt beam="1">  1       21 0.77397558E-02 0.45104080E+03</pdfrwt>
<pdfrwt beam="2">  1       21 0.14211064E+00 0.45104080E+03</pdfrwt>
<totfact> 0.39647995E+04</totfact>
</mgrwt>
</event>
<event>
 7    0  0.4732500E-002  0.4548105E+03  0.7546771E-02  0.1026297E+00
         21   -1    0    0  502  501  0.00000000000E+00  0.00000000000E+00  0.67774876637E+03  0.67774876637E+03  0.00000000000E+00 0. -1.
         21   -1    0    0  501  502 -0.00000000000E+00 -0.00000000000E+00 -0.76301337639E+02  0.76301337639E+02  0.00000000000E+00 0. -1.
      99926    2    1    2    0    0  0.71054273576E-14  0.00000000000E+00  0.60144742873E+03  0.75405010400E+03  0.45481045483E+03 0.  0.
      99925    2    3    3    0    0 -0.51088278880E+02  0.36263018092E+02  0.22282750794E+03  0.35040970558E+03  0.26307764016E+03 0.  0.
         25    1    3    3    0    0  0.51088278880E+02 -0.36263018092E+02  0.37861992079E+03  0.40364039843E+03  0.12509000000E+03 0.  0.
         25    1    4    4    0    0 -0.88044233837E+01 -0.14930031190E+01  0.14808661168E+03  0.19405385745E+03  0.12509000000E+03 0.  0.
         25    1    4    4    0    0 -0.42283855496E+02  0.37756021211E+02  0.74740896251E+02  0.15635584813E+03  0.12509000000E+03 0.  0.
<mgrwt>
<rscale>  2 0.45481045E+03</rscale>
<asrwt>0</asrwt>
<pdfrwt beam="1">  1       21 0.99668933E-01 0.45481045E+03</pdfrwt>
<pdfrwt beam="2">  1       21 0.11220785E-01 0.45481045E+03</pdfrwt>
<totfact> 0.50139362E+04</totfact>
</mgrwt>
</event>
<event>
 7    0  0.4732500E-002  0.4742311E+03  0.7546771E-02  0.1020733E+00
         21   -1    0    0  502  501  0.00000000000E+00  0.00000000000E+00  0.19236483064E+03  0.19236483064E+03  0.00000000000E+00 0.  1.
         21   -1    0    0  501  502 -0.00000000000E+00 -0.00000000000E+00 -0.29227678181E+03  0.29227678181E+03  0.00000000000E+00 0.  1.
      99926    2    1    2    0    0 -0.14210854715E-13 -0.77715611724E-15 -0.99911951173E+02  0.48464161246E+03  0.47423105606E+03 0.  0.
      99925    2    3    3    0    0  0.12259888961E+03  0.63254950738E+00 -0.16610093406E+02  0.29068905264E+03  0.26304627401E+03 0.  0.
         25    1    3    3    0    0 -0.12259888961E+03 -0.63254950738E+00 -0.83301857766E+02  0.19395255982E+03  0.12509000000E+03 0.  0.
         25    1    4    4    0    0  0.24365404413E+02  0.55678800012E+01  0.15033929222E+02  0.12844532435E+03  0.12509000000E+03 0.  0.
         25    1    4    4    0    0  0.98233485195E+02 -0.49353304938E+01 -0.31644022628E+02  0.16224372829E+03  0.12509000000E+03 0.  0.
<mgrwt>
<rscale>  2 0.47423106E+03</rscale>
<asrwt>0</asrwt>
<pdfrwt beam="1">  1       21 0.28288946E-01 0.47423106E+03</pdfrwt>
<pdfrwt beam="2">  1       21 0.42981879E-01 0.47423106E+03</pdfrwt>
<totfact> 0.57130772E+04</totfact>
</mgrwt>
</event>
<event>
 7    0  0.4732500E-002  0.4637954E+03  0.7546771E-02  0.1023686E+00
         21   -1    0    0  502  501  0.00000000000E+00  0.00000000000E+00  0.38898269311E+02  0.38898269311E+02  0.00000000000E+00 0. -1.
         21   -1    0    0  501  502 -0.00000000000E+00 -0.00000000000E+00 -0.13824920763E+04  0.13824920763E+04  0.00000000000E+00 0. -1.
      99926    2    1    2    0    0  0.00000000000E+00  0.00000000000E+00 -0.13435938070E+04  0.14213903456E+04  0.46379542518E+03 0.  0.
      99925    2    3    3    0    0  0.11263649332E+03 -0.13884651219E+02 -0.70830134199E+03  0.76402911512E+03  0.26300177665E+03 0.  0.
         25    1    4    4    0    0  0.24878581599E+02  0.80609515898E+01 -0.38726828400E+03  0.40780896834E+03  0.12509000000E+03 0.  0.
         25    1    3    3    0    0 -0.11263649332E+03  0.13884651219E+02 -0.63529246501E+03  0.65736123050E+03  0.12509000000E+03 0.  0.
         25    1    4    4    0    0  0.87757911724E+02 -0.21945602809E+02 -0.32103305799E+03  0.35622014679E+03  0.12509000000E+03 0.  0.
<mgrwt>
<rscale>  2 0.46379543E+03</rscale>
<asrwt>0</asrwt>
<pdfrwt beam="1">  1       21 0.57203335E-02 0.46379543E+03</pdfrwt>
<pdfrwt beam="2">  1       21 0.20330766E+00 0.46379543E+03</pdfrwt>
<totfact> 0.24079335E+04</totfact>
</mgrwt>
</event>
<event>
 7    0  0.4732500E-002  0.4540171E+03  0.7546771E-02  0.1026531E+00
         21   -1    0    0  502  501  0.00000000000E+00  0.00000000000E+00  0.12807111661E+03  0.12807111661E+03  0.00000000000E+00 0.  1.
         21   -1    0    0  501  502 -0.00000000000E+00 -0.00000000000E+00 -0.40237707646E+03  0.40237707646E+03  0.00000000000E+00 0.  1.
      99926    2    1    2    0    0  0.00000000000E+00  0.00000000000E+00 -0.27430595986E+03  0.53044819307E+03  0.45401709871E+03 0.  0.
      99925    2    3    3    0    0  0.10304201684E+03 -0.11960040732E+02 -0.22290202325E+03  0.36000590781E+03  0.26297954650E+03 0.  0.
         25    1    4    4    0    0  0.94210140106E+02 -0.14539668837E+01 -0.11599254165E+03  0.19488315047E+03  0.12509000000E+03 0.  0.
         25    1    4    4    0    0  0.88318767297E+01 -0.10506073848E+02 -0.10690948160E+03  0.16512275733E+03  0.12509000000E+03 0.  0.
         25    1    3    3    0    0 -0.10304201684E+03  0.11960040732E+02 -0.51403936605E+02  0.17044228527E+03  0.12509000000E+03 0.  0.
<mgrwt>
<rscale>  2 0.45401710E+03</rscale>
<asrwt>0</asrwt>
<pdfrwt beam="1">  1       21 0.18833988E-01 0.45401710E+03</pdfrwt>
<pdfrwt beam="2">  1       21 0.59173100E-01 0.45401710E+03</pdfrwt>
<totfact> 0.63670751E+04</totfact>
</mgrwt>
</event>
<event>
 7    0  0.4732500E-002  0.4564980E+03  0.7546771E-02  0.1025802E+00
         21   -1    0    0  502  501  0.00000000000E+00  0.00000000000E+00  0.19374289210E+03  0.19374289210E+03  0.00000000000E+00 0.  1.
         21   -1    0    0  501  502 -0.00000000000E+00 -0.00000000000E+00 -0.26890072191E+03  0.26890072191E+03  0.00000000000E+00 0.  1.
      99926    2    1    2    0    0  0.00000000000E+00  0.49960036108E-15 -0.75157829813E+02  0.46264361401E+03  0.45649798926E+03 0.  0.
      99925    2    3    3    0    0  0.91719538755E+02  0.46415132213E+00  0.21909654728E+02  0.27966193766E+03  0.26328326414E+03 0.  0.
         25    1    4    4    0    0  0.25088452438E+02 -0.27338466731E+02  0.33675200587E+02  0.13475291998E+03  0.12509000000E+03 0.  0.
         25    1    3    3    0    0 -0.91719538755E+02 -0.46415132213E+00 -0.97067484542E+02  0.18298167635E+03  0.12509000000E+03 0.  0.
         25    1    4    4    0    0  0.66631086317E+02  0.27802618054E+02 -0.11765545859E+02  0.14490901768E+03  0.12509000000E+03 0.  0.
<mgrwt>
<rscale>  2 0.45649799E+03</rscale>
<asrwt>0</asrwt>
<pdfrwt beam="1">  1       21 0.28491602E-01 0.45649799E+03</pdfrwt>
<pdfrwt beam="2">  1       21 0.39544223E-01 0.45649799E+03</pdfrwt>
<totfact> 0.67181777E+04</totfact>
</mgrwt>
</event>
<event>
 7    0  0.4732500E-002  0.4563241E+03  0.7546771E-02  0.1025853E+00
         21   -1    0    0  502  501  0.00000000000E+00  0.00000000000E+00  0.24039787569E+03  0.24039787569E+03  0.00000000000E+00 0. -1.
         21   -1    0    0  501  502 -0.00000000000E+00 -0.00000000000E+00 -0.21654904319E+03  0.21654904319E+03  0.00000000000E+00 0. -1.
      99926    2    1    2    0    0  0.00000000000E+00  0.00000000000E+00  0.23848832503E+02  0.45694691887E+03  0.45632413902E+03 0.  0.
      99925    2    3    3    0    0 -0.96621091472E+02  0.36899467274E+02  0.63903559424E+02  0.28976708979E+03  0.26302869695E+03 0.  0.
         25    1    4    4    0    0 -0.53667067065E+02  0.26563829257E+02 -0.79188522540E+01  0.13891006959E+03  0.12509000000E+03 0.  0.
         25    1    4    4    0    0 -0.42954024407E+02  0.10335638017E+02  0.71822411678E+02  0.15085702021E+03  0.12509000000E+03 0.  0.
         25    1    3    3    0    0  0.96621091472E+02 -0.36899467274E+02 -0.40054726921E+02  0.16717982908E+03  0.12509000000E+03 0.  0.
<mgrwt>
<rscale>  2 0.45632414E+03</rscale>
<asrwt>0</asrwt>
<pdfrwt beam="1">  1       21 0.35352629E-01 0.45632414E+03</pdfrwt>
<pdfrwt beam="2">  1       21 0.31845447E-01 0.45632414E+03</pdfrwt>
<totfact> 0.67685491E+04</totfact>
</mgrwt>
</event>
<event>
 7    0  0.4732500E-002  0.4591855E+03  0.7546771E-02  0.1025018E+00
         21   -1    0    0  502  501  0.00000000000E+00  0.00000000000E+00  0.35106102819E+03  0.35106102819E+03  0.00000000000E+00 0. -1.
         21   -1    0    0  501  502 -0.00000000000E+00 -0.00000000000E+00 -0.15015293062E+03  0.15015293062E+03  0.00000000000E+00 0. -1.
      99926    2    1    2    0    0  0.00000000000E+00 -0.35527136788E-14  0.20090809757E+03  0.50121395881E+03  0.45918554946E+03 0.  0.
      99925    2    3    3    0    0  0.51926045661E+01  0.17235551631E+02  0.25217054379E+03  0.36483443734E+03  0.26304021771E+03 0.  0.
         25    1    4    4    0    0 -0.47973021044E+01  0.20965459184E+02  0.74147402467E+02  0.14699629240E+03  0.12509000000E+03 0.  0.
         25    1    4    4    0    0  0.99899066705E+01 -0.37299075533E+01  0.17802314133E+03  0.21783814495E+03  0.12509000000E+03 0.  0.
         25    1    3    3    0    0 -0.51926045661E+01 -0.17235551631E+02 -0.51262446222E+02  0.13637952146E+03  0.12509000000E+03 0.  0.
<mgrwt>
<rscale>  2 0.45918555E+03</rscale>
<asrwt>0</asrwt>
<pdfrwt beam="1">  1       21 0.51626622E-01 0.45918555E+03</pdfrwt>
<pdfrwt beam="2">  1       21 0.22081313E-01 0.45918555E+03</pdfrwt>
<totfact> 0.63063929E+04</totfact>
</mgrwt>
</event>
<event>
 7    0  0.4732500E-002  0.4437982E+03  0.7546771E-02  0.1029588E+00
         21   -1    0    0  502  501  0.00000000000E+00  0.00000000000E+00  0.27310221369E+03  0.27310221369E+03  0.00000000000E+00 0.  1.
         21   -1    0    0  501  502 -0.00000000000E+00 -0.00000000000E+00 -0.18029589662E+03  0.18029589662E+03  0.00000000000E+00 0.  1.
      99926    2    1    2    0    0  0.00000000000E+00  0.00000000000E+00  0.92806317064E+02  0.45339811031E+03  0.44379819056E+03 0.  0.
      99925    2    3    3    0    0  0.67462076085E+01 -0.34737360019E+02  0.15702972657E+03  0.30840035196E+03  0.26305939740E+03 0.  0.
         25    1    4    4    0    0  0.26621989651E+01 -0.34620331968E+02  0.12267970825E+03  0.17861543496E+03  0.12509000000E+03 0.  0.
         25    1    4    4    0    0  0.40840086433E+01 -0.11702805098E+00  0.34350018328E+02  0.12978491700E+03  0.12509000000E+03 0.  0.
         25    1    3    3    0    0 -0.67462076085E+01  0.34737360019E+02 -0.64223409511E+02  0.14499775835E+03  0.12509000000E+03 0.  0.
<mgrwt>
<rscale>  2 0.44379819E+03</rscale>
<asrwt>0</asrwt>
<pdfrwt beam="1">  1       21 0.40162091E-01 0.44379819E+03</pdfrwt>
<pdfrwt beam="2">  1       21 0.26514102E-01 0.44379819E+03</pdfrwt>
<totfact> 0.75149490E+04</totfact>
</mgrwt>
</event>
<event>
 7    0  0.4732500E-002  0.4585888E+03  0.7546771E-02  0.1025191E+00
         21   -1    0    0  502  501  0.00000000000E+00  0.00000000000E+00  0.68258188699E+03  0.68258188699E+03  0.00000000000E+00 0. -1.
         21   -1    0    0  501  502 -0.00000000000E+00 -0.00000000000E+00 -0.77025082235E+02  0.77025082235E+02  0.00000000000E+00 0. -1.
      99926    2    1    2    0    0  0.00000000000E+00  0.00000000000E+00  0.60555680476E+03  0.75960696923E+03  0.45858881791E+03 0.  0.
      99925    2    3    3    0    0 -0.22267172045E+02  0.10364830648E+03  0.29970848987E+03  0.41257743417E+03  0.26297559182E+03 0.  0.
         25    1    3    3    0    0  0.22267172045E+02 -0.10364830648E+03  0.30584831488E+03  0.34702953506E+03  0.12509000000E+03 0.  0.
         25    1    4    4    0    0  0.90148248195E+00  0.12596919178E+02  0.11355999148E+03  0.16941922797E+03  0.12509000000E+03 0.  0.
         25    1    4    4    0    0 -0.23168654527E+02  0.91051387303E+02  0.18614849840E+03  0.24315820619E+03  0.12509000000E+03 0.  0.
<mgrwt>
<rscale>  2 0.45858882E+03</rscale>
<asrwt>0</asrwt>
<pdfrwt beam="1">  1       21 0.10037969E+00 0.45858882E+03</pdfrwt>
<pdfrwt beam="2">  1       21 0.11327218E-01 0.45858882E+03</pdfrwt>
<totfact> 0.48401846E+04</totfact>
</mgrwt>
</event>
<event>
 7    0  0.4732500E-002  0.4526203E+03  0.7546771E-02  0.1026944E+00
         21   -1    0    0  502  501  0.00000000000E+00  0.00000000000E+00  0.24960013019E+03  0.24960013019E+03  0.00000000000E+00 0. -1.
         21   -1    0    0  501  502 -0.00000000000E+00 -0.00000000000E+00 -0.20519334845E+03  0.20519334845E+03  0.00000000000E+00 0. -1.
      99926    2    1    2    0    0 -0.35527136788E-14  0.14210854715E-13  0.44406781739E+02  0.45479347864E+03  0.45262031102E+03 0.  0.
      99925    2    3    3    0    0  0.43584639505E+01  0.88021012867E+02  0.95059232116E+02  0.29361074463E+03  0.26344699056E+03 0.  0.
         25    1    4    4    0    0 -0.31642599298E+02  0.19451196001E+02  0.39338533559E+02  0.13628877958E+03  0.12509000000E+03 0.  0.
         25    1    3    3    0    0 -0.43584639505E+01 -0.88021012867E+02 -0.50652450378E+02  0.16118273401E+03  0.12509000000E+03 0.  0.
         25    1    4    4    0    0  0.36001063249E+02  0.68569816866E+02  0.55720698557E+02  0.15732196505E+03  0.12509000000E+03 0.  0.
<mgrwt>
<rscale>  2 0.45262031E+03</rscale>
<asrwt>0</asrwt>
<pdfrwt beam="1">  1       21 0.36705902E-01 0.45262031E+03</pdfrwt>
<pdfrwt beam="2">  1       21 0.30175492E-01 0.45262031E+03</pdfrwt>
<totfact> 0.69878272E+04</totfact>
</mgrwt>
</event>
<event>
 7    0  0.4732500E-002  0.4528679E+03  0.7546771E-02  0.1026870E+00
         21   -1    0    0  502  501  0.00000000000E+00  0.00000000000E+00  0.64479452344E+03  0.64479452344E+03  0.00000000000E+00 0.  1.
         21   -1    0    0  501  502 -0.00000000000E+00 -0.00000000000E+00 -0.79517322873E+02  0.79517322873E+02  0.00000000000E+00 0.  1.
      99926    2    1    2    0    0  0.00000000000E+00  0.14210854715E-13  0.56527720057E+03  0.72431184632E+03  0.45286790263E+03 0.  0.
      99925    2    3    3    0    0  0.81752611205E+02  0.71115836463E+02  0.31778258900E+03  0.42658371111E+03  0.26314812764E+03 0.  0.
         25    1    4    4    0    0  0.25809561535E+02  0.71226894571E+02  0.14356991114E+03  0.20493714027E+03  0.12509000000E+03 0.  0.
         25    1    4    4    0    0  0.55943049670E+02 -0.11105810859E+00  0.17421267785E+03  0.22164657084E+03  0.12509000000E+03 0.  0.
         25    1    3    3    0    0 -0.81752611205E+02 -0.71115836463E+02  0.24749461158E+03  0.29772813521E+03  0.12509000000E+03 0.  0.
<mgrwt>
<rscale>  2 0.45286790E+03</rscale>
<asrwt>0</asrwt>
<pdfrwt beam="1">  1       21 0.94822721E-01 0.45286790E+03</pdfrwt>
<pdfrwt beam="2">  1       21 0.11693724E-01 0.45286790E+03</pdfrwt>
<totfact> 0.52477254E+04</totfact>
</mgrwt>
</event>
<event>
 7    0  0.4732500E-002  0.4521989E+03  0.7546771E-02  0.1027068E+00
         21   -1    0    0  502  501  0.00000000000E+00  0.00000000000E+00  0.60161826423E+03  0.60161826423E+03  0.00000000000E+00 0. -1.
         21   -1    0    0  501  502 -0.00000000000E+00 -0.00000000000E+00 -0.84972422494E+02  0.84972422494E+02  0.00000000000E+00 0. -1.
      99926    2    1    2    0    0 -0.88817841970E-15  0.00000000000E+00  0.51664584174E+03  0.68659068672E+03  0.45219890017E+03 0.  0.
      99925    2    3    3    0    0 -0.51454088481E+01  0.80869796982E+02  0.21194056306E+03  0.34738689216E+03  0.26304458040E+03 0.  0.
         25    1    3    3    0    0  0.51454088481E+01 -0.80869796982E+02  0.30470527867E+03  0.33920379456E+03  0.12509000000E+03 0.  0.
         25    1    4    4    0    0  0.82779056104E+01  0.16738219446E+02  0.60091612110E+02  0.14002571784E+03  0.12509000000E+03 0.  0.
         25    1    4    4    0    0 -0.13423314459E+02  0.64131577536E+02  0.15184895095E+03  0.20736117432E+03  0.12509000000E+03 0.  0.
<mgrwt>
<rscale>  2 0.45219890E+03</rscale>
<asrwt>0</asrwt>
<pdfrwt beam="1">  1       21 0.88473272E-01 0.45219890E+03</pdfrwt>
<pdfrwt beam="2">  1       21 0.12495945E-01 0.45219890E+03</pdfrwt>
<totfact> 0.54836535E+04</totfact>
</mgrwt>
</event>
<event>
 7    0  0.4732500E-002  0.4547814E+03  0.7546771E-02  0.1026306E+00
         21   -1    0    0  502  501  0.00000000000E+00  0.00000000000E+00  0.12596765031E+03  0.12596765031E+03  0.00000000000E+00 0.  1.
         21   -1    0    0  501  502 -0.00000000000E+00 -0.00000000000E+00 -0.41047474673E+03  0.41047474673E+03  0.00000000000E+00 0.  1.
      99926    2    1    2    0    0  0.00000000000E+00  0.00000000000E+00 -0.28450709642E+03  0.53644239704E+03  0.45478143919E+03 0.  0.
      99925    2    3    3    0    0  0.21683839647E+02 -0.64845699038E+02 -0.28504467582E+03  0.39388381022E+03  0.26309472657E+03 0.  0.
         25    1    3    3    0    0 -0.21683839647E+02  0.64845699038E+02  0.53757940202E+00  0.14255858682E+03  0.12509000000E+03 0.  0.
         25    1    4    4    0    0 -0.71822457489E+01 -0.61223951590E+02 -0.11478734368E+03  0.18062004116E+03  0.12509000000E+03 0.  0.
         25    1    4    4    0    0  0.28866085396E+02 -0.36217474481E+01 -0.17025733215E+03  0.21326376905E+03  0.12509000000E+03 0.  0.
<mgrwt>
<rscale>  2 0.45478144E+03</rscale>
<asrwt>0</asrwt>
<pdfrwt beam="1">  1       21 0.18524655E-01 0.45478144E+03</pdfrwt>
<pdfrwt beam="2">  1       21 0.60363933E-01 0.45478144E+03</pdfrwt>
<totfact> 0.62880099E+04</totfact>
</mgrwt>
</event>
<event>
 7    0  0.4732500E-002  0.4599926E+03  0.7546771E-02  0.1024783E+00
         21   -1    0    0  502  501  0.00000000000E+00  0.00000000000E+00  0.60731621791E+02  0.60731621791E+02  0.00000000000E+00 0.  1.
         21   -1    0    0  501  502 -0.00000000000E+00 -0.00000000000E+00 -0.87101734051E+03  0.87101734051E+03  0.00000000000E+00 0.  1.
      99926    2    1    2    0    0  0.00000000000E+00  0.00000000000E+00 -0.81028571872E+03  0.93174896230E+03  0.45999258993E+03 0.  0.
      99925    2    3    3    0    0  0.35340773062E+02  0.24451645078E+02 -0.28097742756E+03  0.38616521219E+03  0.26139702203E+03 0.  0.
         25    1    4    4    0    0  0.25380730686E+02  0.49577826611E+02 -0.14510139812E+03  0.19950956423E+03  0.12509000000E+03 0.  0.
         25    1    3    3    0    0 -0.35340773062E+02 -0.24451645078E+02 -0.52930829116E+03  0.54558375011E+03  0.12509000000E+03 0.  0.
         25    1    4    4    0    0  0.99600423757E+01 -0.25126181534E+02 -0.13587602944E+03  0.18665564797E+03  0.12509000000E+03 0.  0.
<mgrwt>
<rscale>  2 0.45999259E+03</rscale>
<asrwt>0</asrwt>
<pdfrwt beam="1">  1       21 0.89311211E-02 0.45999259E+03</pdfrwt>
<pdfrwt beam="2">  1       21 0.12809078E+00 0.45999259E+03</pdfrwt>
<totfact> 0.40292147E+04</totfact>
</mgrwt>
</event>
<event>
 7    0  0.4732500E-002  0.4528170E+03  0.7546771E-02  0.1026885E+00
         21   -1    0    0  502  501  0.00000000000E+00  0.00000000000E+00  0.29518421161E+03  0.29518421161E+03  0.00000000000E+00 0. -1.
         21   -1    0    0  501  502 -0.00000000000E+00 -0.00000000000E+00 -0.17365704738E+03  0.17365704738E+03  0.00000000000E+00 0. -1.
      99926    2    1    2    0    0 -0.14210854715E-13  0.44408920985E-15  0.12152716422E+03  0.46884125899E+03  0.45281704306E+03 0.  0.
      99925    2    3    3    0    0  0.11077365831E+03 -0.30840606553E+01  0.87425786122E+02  0.29828122002E+03  0.26277005791E+03 0.  0.
         25    1    4    4    0    0  0.24044668016E+02  0.23079396551E+02  0.25837582887E+02  0.13200717175E+03  0.12509000000E+03 0.  0.
         25    1    3    3    0    0 -0.11077365831E+03  0.30840606553E+01  0.34101378101E+02  0.17056003897E+03  0.12509000000E+03 0.  0.
         25    1    4    4    0    0  0.86728990290E+02 -0.26163457206E+02  0.61588203235E+02  0.16627404827E+03  0.12509000000E+03 0.  0.
<mgrwt>
<rscale>  2 0.45281704E+03</rscale>
<asrwt>0</asrwt>
<pdfrwt beam="1">  1       21 0.43409443E-01 0.45281704E+03</pdfrwt>
<pdfrwt beam="2">  1       21 0.25537801E-01 0.45281704E+03</pdfrwt>
<totfact> 0.68704102E+04</totfact>
</mgrwt>
</event>
<event>
 7    0  0.4732500E-002  0.4439698E+03  0.7546771E-02  0.1029536E+00
         21   -1    0    0  502  501  0.00000000000E+00  0.00000000000E+00  0.87848784566E+02  0.87848784566E+02  0.00000000000E+00 0. -1.
         21   -1    0    0  501  502 -0.00000000000E+00 -0.00000000000E+00 -0.56093323650E+03  0.56093323650E+03  0.00000000000E+00 0. -1.
      99926    2    1    2    0    0  0.00000000000E+00 -0.35527136788E-14 -0.47308445194E+03  0.64878202107E+03  0.44396983253E+03 0.  0.
      99925    2    3    3    0    0 -0.87178850226E+02  0.18649258132E+02 -0.22668452833E+03  0.35842297228E+03  0.26293193972E+03 0.  0.
         25    1    4    4    0    0 -0.44795341131E+02 -0.27457704418E+02 -0.13345811719E+03  0.19031322934E+03  0.12509000000E+03 0.  0.
         25    1    3    3    0    0  0.87178850226E+02 -0.18649258132E+02 -0.24639992361E+03  0.29035904878E+03  0.12509000000E+03 0.  0.
         25    1    4    4    0    0 -0.42383509095E+02  0.46106962550E+02 -0.93226411135E+02  0.16810974294E+03  0.12509000000E+03 0.  0.
<mgrwt>
<rscale>  2 0.44396983E+03</rscale>
<asrwt>0</asrwt>
<pdfrwt beam="1">  1       21 0.12918939E-01 0.44396983E+03</pdfrwt>
<pdfrwt beam="2">  1       21 0.82490183E-01 0.44396983E+03</pdfrwt>
<totfact> 0.60900267E+04</totfact>
</mgrwt>
</event>
<event>
 7    0  0.4732500E-002  0.4443745E+03  0.7546771E-02  0.1029413E+00
         21   -1    0    0  502  501  0.00000000000E+00  0.00000000000E+00  0.24385745435E+03  0.24385745435E+03  0.00000000000E+00 0. -1.
         21   -1    0    0  501  502 -0.00000000000E+00 -0.00000000000E+00 -0.20244274450E+03  0.20244274450E+03  0.00000000000E+00 0. -1.
      99926    2    1    2    0    0  0.00000000000E+00  0.00000000000E+00  0.41414709848E+02  0.44630019885E+03  0.44437449218E+03 0.  0.
      99925    2    3    3    0    0 -0.94460030668E+02  0.35277134906E+02  0.61466631290E+01  0.28180546684E+03  0.26307673031E+03 0.  0.
         25    1    4    4    0    0 -0.51659821598E+02 -0.13870455567E+02 -0.22450960730E+02  0.13788647665E+03  0.12509000000E+03 0.  0.
         25    1    4    4    0    0 -0.42800209070E+02  0.49147590473E+02  0.28597623859E+02  0.14391899019E+03  0.12509000000E+03 0.  0.
         25    1    3    3    0    0  0.94460030668E+02 -0.35277134906E+02  0.35268046719E+02  0.16449473201E+03  0.12509000000E+03 0.  0.
<mgrwt>
<rscale>  2 0.44437449E+03</rscale>
<asrwt>0</asrwt>
<pdfrwt beam="1">  1       21 0.35861390E-01 0.44437449E+03</pdfrwt>
<pdfrwt beam="2">  1       21 0.29770992E-01 0.44437449E+03</pdfrwt>
<totfact> 0.75378392E+04</totfact>
</mgrwt>
</event>
<event>
 7    0  0.4732500E-002  0.4283421E+03  0.7546771E-02  0.1034385E+00
         21   -1    0    0  502  501  0.00000000000E+00  0.00000000000E+00  0.76880991287E+03  0.76880991287E+03  0.00000000000E+00 0. -1.
         21   -1    0    0  501  502 -0.00000000000E+00 -0.00000000000E+00 -0.59662644327E+02  0.59662644327E+02  0.00000000000E+00 0. -1.
      99926    2    1    2    0    0  0.00000000000E+00  0.00000000000E+00  0.70914726855E+03  0.82847255720E+03  0.42834207072E+03 0.  0.
      99925    2    3    3    0    0  0.84316157363E+02  0.15060179116E+02  0.44668337132E+03  0.52537054659E+03  0.26296797072E+03 0.  0.
         25    1    3    3    0    0 -0.84316157363E+02 -0.15060179116E+02  0.26246389723E+03  0.30310201061E+03  0.12509000000E+03 0.  0.
         25    1    4    4    0    0  0.65815917705E+02 -0.11311533111E+02  0.28584395721E+03  0.31908300139E+03  0.12509000000E+03 0.  0.
         25    1    4    4    0    0  0.18500239658E+02  0.26371712227E+02  0.16083941411E+03  0.20628754520E+03  0.12509000000E+03 0.  0.
<mgrwt>
<rscale>  2 0.42834207E+03</rscale>
<asrwt>0</asrwt>
<pdfrwt beam="1">  1       21 0.11306028E+00 0.42834207E+03</pdfrwt>
<pdfrwt beam="2">  1       21 0.87739187E-02 0.42834207E+03</pdfrwt>
<totfact> 0.57541449E+04</totfact>
</mgrwt>
</event>
<event>
 7    0  0.4732500E-002  0.4542710E+03  0.7546771E-02  0.1026456E+00
         21   -1    0    0  502  501  0.00000000000E+00  0.00000000000E+00  0.42173650615E+03  0.42173650615E+03  0.00000000000E+00 0.  1.
         21   -1    0    0  501  502 -0.00000000000E+00 -0.00000000000E+00 -0.12232881566E+03  0.12232881566E+03  0.00000000000E+00 0.  1.
      99926    2    1    2    0    0  0.00000000000E+00  0.35527136788E-14  0.29940769048E+03  0.54406532181E+03  0.45427096460E+03 0.  0.
      99925    2    3    3    0    0 -0.68949913867E+02  0.30087619741E+02  0.28839902831E+03  0.39768207746E+03  0.26328250933E+03 0.  0.
         25    1    4    4    0    0 -0.45512764153E+02  0.21901513063E+02  0.20464662447E+03  0.24510984677E+03  0.12509000000E+03 0.  0.
         25    1    4    4    0    0 -0.23437149713E+02  0.81861066784E+01  0.83752403843E+02  0.15257223069E+03  0.12509000000E+03 0.  0.
         25    1    3    3    0    0  0.68949913867E+02 -0.30087619741E+02  0.11008662171E+02  0.14638324435E+03  0.12509000000E+03 0.  0.
<mgrwt>
<rscale>  2 0.45427096E+03</rscale>
<asrwt>0</asrwt>
<pdfrwt beam="1">  1       21 0.62020074E-01 0.45427096E+03</pdfrwt>
<pdfrwt beam="2">  1       21 0.17989532E-01 0.45427096E+03</pdfrwt>
<totfact> 0.62620866E+04</totfact>
</mgrwt>
</event>
<event>
 7    0  0.4732500E-002  0.4587783E+03  0.7546771E-02  0.1025136E+00
         21   -1    0    0  502  501  0.00000000000E+00  0.00000000000E+00  0.83079502940E+02  0.83079502940E+02  0.00000000000E+00 0. -1.
         21   -1    0    0  501  502 -0.00000000000E+00 -0.00000000000E+00 -0.63336164716E+03  0.63336164716E+03  0.00000000000E+00 0. -1.
      99926    2    1    2    0    0  0.00000000000E+00  0.00000000000E+00 -0.55028214422E+03  0.71644115010E+03  0.45877825069E+03 0.  0.
      99925    2    3    3    0    0  0.64939082434E+02 -0.66979039340E+02 -0.23567886061E+03  0.36526311791E+03  0.26300065366E+03 0.  0.
         25    1    4    4    0    0  0.17763156390E+02 -0.51463951437E+02 -0.16212814607E+03  0.21188938593E+03  0.12509000000E+03 0.  0.
         25    1    4    4    0    0  0.47175926044E+02 -0.15515087903E+02 -0.73550714546E+02  0.15337373198E+03  0.12509000000E+03 0.  0.
         25    1    3    3    0    0 -0.64939082434E+02  0.66979039340E+02 -0.31460328361E+03  0.35117803219E+03  0.12509000000E+03 0.  0.
<mgrwt>
<rscale>  2 0.45877825E+03</rscale>
<asrwt>0</asrwt>
<pdfrwt beam="1">  1       21 0.12217575E-01 0.45877825E+03</pdfrwt>
<pdfrwt beam="2">  1       21 0.93141414E-01 0.45877825E+03</pdfrwt>
<totfact> 0.50501627E+04</totfact>
</mgrwt>
</event>
<event>
 7    0  0.4732500E-002  0.4562480E+03  0.7546771E-02  0.1025875E+00
         21   -1    0    0  502  501  0.00000000000E+00  0.00000000000E+00  0.15301963586E+03  0.15301963586E+03  0.00000000000E+00 0.  1.
         21   -1    0    0  501  502 -0.00000000000E+00 -0.00000000000E+00 -0.34009068801E+03  0.34009068801E+03  0.00000000000E+00 0.  1.
      99926    2    1    2    0    0  0.35527136788E-14  0.14210854715E-13 -0.18707105215E+03  0.49311032388E+03  0.45624797310E+03 0.  0.
      99925    2    3    3    0    0 -0.16603041569E+02 -0.11290300613E+03 -0.11019783069E+03  0.30715401165E+03  0.26301573185E+03 0.  0.
         25    1    4    4    0    0 -0.32231440654E+02 -0.70370174013E+02 -0.90366917105E+02  0.17263984176E+03  0.12509000000E+03 0.  0.
         25    1    4    4    0    0  0.15628399084E+02 -0.42532832113E+02 -0.19830913589E+02  0.13451416988E+03  0.12509000000E+03 0.  0.
         25    1    3    3    0    0  0.16603041569E+02  0.11290300613E+03 -0.76873221457E+02  0.18595631223E+03  0.12509000000E+03 0.  0.
<mgrwt>
<rscale>  2 0.45624797E+03</rscale>
<asrwt>0</asrwt>
<pdfrwt beam="1">  1       21 0.22502888E-01 0.45624797E+03</pdfrwt>
<pdfrwt beam="2">  1       21 0.50013336E-01 0.45624797E+03</pdfrwt>
<totfact> 0.65109984E+04</totfact>
</mgrwt>
</event>
<event>
 7    0  0.4732500E-002  0.4576293E+03  0.7546771E-02  0.1025471E+00
         21   -1    0    0  502  501  0.00000000000E+00  0.00000000000E+00  0.37688287341E+03  0.37688287341E+03  0.00000000000E+00 0. -1.
         21   -1    0    0  501  502 -0.00000000000E+00 -0.00000000000E+00 -0.13891889710E+03  0.13891889710E+03  0.00000000000E+00 0. -1.
      99926    2    1    2    0    0  0.00000000000E+00  0.00000000000E+00  0.23796397631E+03  0.51580177050E+03  0.45762933957E+03 0.  0.
      99925    2    3    3    0    0 -0.22149409866E+02  0.79724582065E+02  0.24037752300E+03  0.36580197500E+03  0.26302685416E+03 0.  0.
         25    1    3    3    0    0  0.22149409866E+02 -0.79724582065E+02 -0.24135466921E+01  0.14999979550E+03  0.12509000000E+03 0.  0.
         25    1    4    4    0    0 -0.27807137095E+02  0.35463364332E+02  0.71526599681E+02  0.15097830853E+03  0.12509000000E+03 0.  0.
         25    1    4    4    0    0  0.56577272292E+01  0.44261217732E+02  0.16885092332E+03  0.21482366648E+03  0.12509000000E+03 0.  0.
<mgrwt>
<rscale>  2 0.45762934E+03</rscale>
<asrwt>0</asrwt>
<pdfrwt beam="1">  1       21 0.55423952E-01 0.45762934E+03</pdfrwt>
<pdfrwt beam="2">  1       21 0.20429250E-01 0.45762934E+03</pdfrwt>
<totfact> 0.62852540E+04</totfact>
</mgrwt>
</event>
<event>
 7    0  0.4732500E-002  0.4598777E+03  0.7546771E-02  0.1024817E+00
         21   -1    0    0  502  501  0.00000000000E+00  0.00000000000E+00  0.39621522049E+03  0.39621522049E+03  0.00000000000E+00 0.  1.
         21   -1    0    0  501  502 -0.00000000000E+00 -0.00000000000E+00 -0.13344229697E+03  0.13344229697E+03  0.00000000000E+00 0.  1.
      99926    2    1    2    0    0 -0.88817841970E-15 -0.35527136788E-14  0.26277292352E+03  0.52965751746E+03  0.45987767555E+03 0.  0.
      99925    2    3    3    0    0 -0.70873810600E+01 -0.18055729530E+02  0.30989715177E+02  0.26556055778E+03  0.26303195065E+03 0.  0.
         25    1    4    4    0    0 -0.19664237494E+02  0.14857373624E+02 -0.13479211214E+02  0.12820538609E+03  0.12509000000E+03 0.  0.
         25    1    3    3    0    0  0.70873810600E+01  0.18055729530E+02  0.23178320835E+03  0.26409695968E+03  0.12509000000E+03 0.  0.
         25    1    4    4    0    0  0.12576856434E+02 -0.32913103154E+02  0.44468926391E+02  0.13735517170E+03  0.12509000000E+03 0.  0.
<mgrwt>
<rscale>  2 0.45987768E+03</rscale>
<asrwt>0</asrwt>
<pdfrwt beam="1">  1       21 0.58266944E-01 0.45987768E+03</pdfrwt>
<pdfrwt beam="2">  1       21 0.19623867E-01 0.45987768E+03</pdfrwt>
<totfact> 0.60843019E+04</totfact>
</mgrwt>
</event>
<event>
 7    0  0.4732500E-002  0.4637257E+03  0.7546771E-02  0.1023706E+00
         21   -1    0    0  502  501  0.00000000000E+00  0.00000000000E+00  0.29825434755E+03  0.29825434755E+03  0.00000000000E+00 0. -1.
         21   -1    0    0  501  502 -0.00000000000E+00 -0.00000000000E+00 -0.18025008986E+03  0.18025008986E+03  0.00000000000E+00 0. -1.
      99926    2    1    2    0    0 -0.35527136788E-14  0.00000000000E+00  0.11800425768E+03  0.47850443741E+03  0.46372566437E+03 0.  0.
      99925    2    3    3    0    0  0.20980288706E+02 -0.11964442148E+03  0.77416570528E+02  0.29947977834E+03  0.26256399627E+03 0.  0.
         25    1    4    4    0    0  0.31218388029E+02 -0.94955513260E+02  0.56906733870E+02  0.16993240335E+03  0.12509000000E+03 0.  0.
         25    1    4    4    0    0 -0.10238099323E+02 -0.24688908222E+02  0.20509836658E+02  0.12954737499E+03  0.12509000000E+03 0.  0.
         25    1    3    3    0    0 -0.20980288706E+02  0.11964442148E+03  0.40587687156E+02  0.17902465907E+03  0.12509000000E+03 0.  0.
<mgrwt>
<rscale>  2 0.46372566E+03</rscale>
<asrwt>0</asrwt>
<pdfrwt beam="1">  1       21 0.43860934E-01 0.46372566E+03</pdfrwt>
<pdfrwt beam="2">  1       21 0.26507366E-01 0.46372566E+03</pdfrwt>
<totfact> 0.62377105E+04</totfact>
</mgrwt>
</event>
<event>
 7    0  0.4732500E-002  0.4613572E+03  0.7546771E-02  0.1024388E+00
         21   -1    0    0  502  501  0.00000000000E+00  0.00000000000E+00  0.21196827896E+03  0.21196827896E+03  0.00000000000E+00 0. -1.
         21   -1    0    0  501  502 -0.00000000000E+00 -0.00000000000E+00 -0.25104047067E+03  0.25104047067E+03  0.00000000000E+00 0. -1.
      99926    2    1    2    0    0  0.00000000000E+00  0.00000000000E+00 -0.39072191715E+02  0.46300874963E+03  0.46135720008E+03 0.  0.
      99925    2    3    3    0    0  0.29943771333E+02 -0.10805476085E+03 -0.64096452664E+02  0.29316711009E+03  0.26318460900E+03 0.  0.
         25    1    4    4    0    0 -0.15896572145E+02 -0.76771689502E+02 -0.17789040942E+02  0.14869617141E+03  0.12509000000E+03 0.  0.
         25    1    4    4    0    0  0.45840343478E+02 -0.31283071346E+02 -0.46307411722E+02  0.14447093868E+03  0.12509000000E+03 0.  0.
         25    1    3    3    0    0 -0.29943771333E+02  0.10805476085E+03  0.25024260949E+02  0.16984163953E+03  0.12509000000E+03 0.  0.
<mgrwt>
<rscale>  2 0.46135720E+03</rscale>
<asrwt>0</asrwt>
<pdfrwt beam="1">  1       21 0.31171806E-01 0.46135720E+03</pdfrwt>
<pdfrwt beam="2">  1       21 0.36917716E-01 0.46135720E+03</pdfrwt>
<totfact> 0.64622525E+04</totfact>
</mgrwt>
</event>
<event>
 7    0  0.4732500E-002  0.4639755E+03  0.7546771E-02  0.1023635E+00
         21   -1    0    0  502  501  0.00000000000E+00  0.00000000000E+00  0.26969223011E+02  0.26969223011E+02  0.00000000000E+00 0.  1.
         21   -1    0    0  501  502 -0.00000000000E+00 -0.00000000000E+00 -0.19955452588E+04  0.19955452588E+04  0.00000000000E+00 0.  1.
      99926    2    1    2    0    0  0.00000000000E+00 -0.14210854715E-13 -0.19685760358E+04  0.20225144818E+04  0.46397545242E+03 0.  0.
      99925    2    3    3    0    0  0.33058422580E+02 -0.11657072783E+03 -0.12585864746E+04  0.12914780402E+04  0.26304756288E+03 0.  0.
         25    1    4    4    0    0  0.18804930494E+02 -0.91312087789E+02 -0.80939579473E+03  0.82429399089E+03  0.12509000000E+03 0.  0.
         25    1    4    4    0    0  0.14253492086E+02 -0.25258640039E+02 -0.44919067987E+03  0.46718404929E+03  0.12509000000E+03 0.  0.
         25    1    3    3    0    0 -0.33058422580E+02  0.11657072783E+03 -0.70998956117E+03  0.73103644161E+03  0.12509000000E+03 0.  0.
<mgrwt>
<rscale>  2 0.46397545E+03</rscale>
<asrwt>0</asrwt>
<pdfrwt beam="1">  1       21 0.39660629E-02 0.46397545E+03</pdfrwt>
<pdfrwt beam="2">  1       21 0.29346248E+00 0.46397545E+03</pdfrwt>
<totfact> 0.12454956E+04</totfact>
</mgrwt>
</event>
<event>
 7    0  0.4732500E-002  0.4518833E+03  0.7546771E-02  0.1027162E+00
         21   -1    0    0  502  501  0.00000000000E+00  0.00000000000E+00  0.14346024381E+03  0.14346024381E+03  0.00000000000E+00 0.  1.
         21   -1    0    0  501  502 -0.00000000000E+00 -0.00000000000E+00 -0.35584511841E+03  0.35584511841E+03  0.00000000000E+00 0.  1.
      99926    2    1    2    0    0 -0.35527136788E-14  0.00000000000E+00 -0.21238487461E+03  0.49930536222E+03  0.45188329221E+03 0.  0.
      99925    2    3    3    0    0 -0.27671332618E+02  0.88669219541E+02 -0.19950598817E+03  0.34296820426E+03  0.26305249795E+03 0.  0.
         25    1    3    3    0    0  0.27671332618E+02 -0.88669219541E+02 -0.12878886441E+02  0.15633715796E+03  0.12509000000E+03 0.  0.
         25    1    4    4    0    0 -0.26926422360E+02  0.83517618129E+02 -0.95351254722E+02  0.18010995152E+03  0.12509000000E+03 0.  0.
         25    1    4    4    0    0 -0.74491025807E+00  0.51516014119E+01 -0.10415473344E+03  0.16285825274E+03  0.12509000000E+03 0.  0.
<mgrwt>
<rscale>  2 0.45188329E+03</rscale>
<asrwt>0</asrwt>
<pdfrwt beam="1">  1       21 0.21097095E-01 0.45188329E+03</pdfrwt>
<pdfrwt beam="2">  1       21 0.52330164E-01 0.45188329E+03</pdfrwt>
<totfact> 0.66960838E+04</totfact>
</mgrwt>
</event>
<event>
 7    0  0.4732500E-002  0.4499809E+03  0.7546771E-02  0.1027728E+00
         21   -1    0    0  502  501  0.00000000000E+00  0.00000000000E+00  0.29210093459E+03  0.29210093459E+03  0.00000000000E+00 0. -1.
         21   -1    0    0  501  502 -0.00000000000E+00 -0.00000000000E+00 -0.17329866573E+03  0.17329866573E+03  0.00000000000E+00 0. -1.
      99926    2    1    2    0    0  0.00000000000E+00  0.44408920985E-14  0.11880226886E+03  0.46539960032E+03  0.44998089836E+03 0.  0.
      99925    2    3    3    0    0 -0.35211258523E+02 -0.45617399446E+01 -0.30539681959E+02  0.26738149869E+03  0.26324807971E+03 0.  0.
         25    1    4    4    0    0 -0.26527879638E+02 -0.42150385344E+02 -0.12044110307E+02  0.13517748361E+03  0.12509000000E+03 0.  0.
         25    1    3    3    0    0  0.35211258523E+02  0.45617399446E+01  0.14934195082E+03  0.19801810163E+03  0.12509000000E+03 0.  0.
         25    1    4    4    0    0 -0.86833788858E+01  0.37588645400E+02 -0.18495571652E+02  0.13220401508E+03  0.12509000000E+03 0.  0.
<mgrwt>
<rscale>  2 0.44998090E+03</rscale>
<asrwt>0</asrwt>
<pdfrwt beam="1">  1       21 0.42956020E-01 0.44998090E+03</pdfrwt>
<pdfrwt beam="2">  1       21 0.25485098E-01 0.44998090E+03</pdfrwt>
<totfact> 0.70546704E+04</totfact>
</mgrwt>
</event>
<event>
 7    0  0.4732500E-002  0.4550833E+03  0.7546771E-02  0.1026217E+00
         21   -1    0    0  502  501  0.00000000000E+00  0.00000000000E+00  0.16248201425E+03  0.16248201425E+03  0.00000000000E+00 0.  1.
         21   -1    0    0  501  502 -0.00000000000E+00 -0.00000000000E+00 -0.31865193028E+03  0.31865193028E+03  0.00000000000E+00 0.  1.
      99926    2    1    2    0    0  0.00000000000E+00  0.00000000000E+00 -0.15616991604E+03  0.48113394453E+03  0.45508332194E+03 0.  0.
      99925    2    3    3    0    0 -0.93744028212E+01  0.79783592991E+02 -0.18265827821E+03  0.33012916789E+03  0.26299794629E+03 0.  0.
         25    1    3    3    0    0  0.93744028212E+01 -0.79783592991E+02  0.26488362171E+02  0.15100477664E+03  0.12509000000E+03 0.  0.
         25    1    4    4    0    0  0.31817579905E+01  0.75874930411E+02 -0.12183052742E+03  0.19041353460E+03  0.12509000000E+03 0.  0.
         25    1    4    4    0    0 -0.12556160812E+02  0.39086625807E+01 -0.60827750789E+02  0.13971563328E+03  0.12509000000E+03 0.  0.
<mgrwt>
<rscale>  2 0.45508332E+03</rscale>
<asrwt>0</asrwt>
<pdfrwt beam="1">  1       21 0.23894414E-01 0.45508332E+03</pdfrwt>
<pdfrwt beam="2">  1       21 0.46860577E-01 0.45508332E+03</pdfrwt>
<totfact> 0.66573607E+04</totfact>
</mgrwt>
</event>
<event>
 7    0  0.4732500E-002  0.4544961E+03  0.7546771E-02  0.1026390E+00
         21   -1    0    0  502  501  0.00000000000E+00  0.00000000000E+00  0.85889666494E+02  0.85889666494E+02  0.00000000000E+00 0. -1.
         21   -1    0    0  501  502 -0.00000000000E+00 -0.00000000000E+00 -0.60125591495E+03  0.60125591495E+03  0.00000000000E+00 0. -1.
      99926    2    1    2    0    0  0.00000000000E+00  0.00000000000E+00 -0.51536624846E+03  0.68714558145E+03  0.45449607265E+03 0.  0.
      99925    2    3    3    0    0 -0.45281131615E+02  0.81536468190E+02 -0.22881287054E+03  0.36086514528E+03  0.26300141983E+03 0.  0.
         25    1    4    4    0    0 -0.41333569226E+02  0.32769925861E+02 -0.16036857378E+03  0.21011406317E+03  0.12509000000E+03 0.  0.
         25    1    3    3    0    0  0.45281131615E+02 -0.81536468190E+02 -0.28655337792E+03  0.32628043616E+03  0.12509000000E+03 0.  0.
         25    1    4    4    0    0 -0.39475623896E+01  0.48766542329E+02 -0.68444296757E+02  0.15075108211E+03  0.12509000000E+03 0.  0.
<mgrwt>
<rscale>  2 0.45449607E+03</rscale>
<asrwt>0</asrwt>
<pdfrwt beam="1">  1       21 0.12630833E-01 0.45449607E+03</pdfrwt>
<pdfrwt beam="2">  1       21 0.88419989E-01 0.45449607E+03</pdfrwt>
<totfact> 0.53819807E+04</totfact>
</mgrwt>
</event>
<event>
 7    0  0.4732500E-002  0.4428626E+03  0.7546771E-02  0.1029872E+00
         21   -1    0    0  502  501  0.00000000000E+00  0.00000000000E+00  0.33397508170E+03  0.33397508170E+03  0.00000000000E+00 0.  1.
         21   -1    0    0  501  502 -0.00000000000E+00 -0.00000000000E+00 -0.14681282816E+03  0.14681282816E+03  0.00000000000E+00 0.  1.
      99926    2    1    2    0    0  0.13322676296E-14  0.14210854715E-13  0.18716225354E+03  0.48078790986E+03  0.44286262556E+03 0.  0.
      99925    2    3    3    0    0  0.33488140475E+01  0.91890891371E+02  0.16538755818E+03  0.32401802777E+03  0.26301993736E+03 0.  0.
         25    1    4    4    0    0 -0.30021591325E+02  0.52941804178E+02  0.11226264865E+03  0.17875833116E+03  0.12509000000E+03 0.  0.
         25    1    4    4    0    0  0.33370405372E+02  0.38949087193E+02  0.53124909528E+02  0.14525969661E+03  0.12509000000E+03 0.  0.
         25    1    3    3    0    0 -0.33488140475E+01 -0.91890891371E+02  0.21774695359E+02  0.15676988209E+03  0.12509000000E+03 0.  0.
<mgrwt>
<rscale>  2 0.44286263E+03</rscale>
<asrwt>0</asrwt>
<pdfrwt beam="1">  1       21 0.49113983E-01 0.44286263E+03</pdfrwt>
<pdfrwt beam="2">  1       21 0.21590122E-01 0.44286263E+03</pdfrwt>
<totfact> 0.73470782E+04</totfact>
</mgrwt>
</event>
<event>
 7    0  0.4732500E-002  0.4576052E+03  0.7546771E-02  0.1025478E+00
         21   -1    0    0  502  501  0.00000000000E+00  0.00000000000E+00  0.12761880931E+03  0.12761880931E+03  0.00000000000E+00 0.  1.
         21   -1    0    0  501  502 -0.00000000000E+00 -0.00000000000E+00 -0.41021084815E+03  0.41021084815E+03  0.00000000000E+00 0.  1.
      99926    2    1    2    0    0  0.00000000000E+00  0.00000000000E+00 -0.28259203884E+03  0.53782965746E+03  0.45760515735E+03 0.  0.
      99925    2    3    3    0    0  0.72542464412E+02 -0.26386116574E+02 -0.76158296376E+02  0.28441096356E+03  0.26292750673E+03 0.  0.
         25    1    4    4    0    0  0.52375946246E+02  0.18170781464E+02 -0.17830660910E+02  0.13798136690E+03  0.12509000000E+03 0.  0.
         25    1    3    3    0    0 -0.72542464412E+02  0.26386116574E+02 -0.20643374246E+03  0.25341869390E+03  0.12509000000E+03 0.  0.
         25    1    4    4    0    0  0.20166518166E+02 -0.44556898038E+02 -0.58327635465E+02  0.14642959666E+03  0.12509000000E+03 0.  0.
<mgrwt>
<rscale>  2 0.45760516E+03</rscale>
<asrwt>0</asrwt>
<pdfrwt beam="1">  1       21 0.18767472E-01 0.45760516E+03</pdfrwt>
<pdfrwt beam="2">  1       21 0.60325124E-01 0.45760516E+03</pdfrwt>
<totfact> 0.61401992E+04</totfact>
</mgrwt>
</event>
<event>
 7    0  0.4732500E-002  0.4532847E+03  0.7546771E-02  0.1026747E+00
         21   -1    0    0  502  501  0.00000000000E+00  0.00000000000E+00  0.34116513580E+03  0.34116513580E+03  0.00000000000E+00 0.  1.
         21   -1    0    0  501  502 -0.00000000000E+00 -0.00000000000E+00 -0.15056270491E+03  0.15056270491E+03  0.00000000000E+00 0.  1.
      99926    2    1    2    0    0  0.00000000000E+00  0.00000000000E+00  0.19060243090E+03  0.49172784071E+03  0.45328465964E+03 0.  0.
      99925    2    3    3    0    0  0.84733633341E+02  0.13140376072E+02  0.42663523483E+02  0.27986494511E+03  0.26296720930E+03 0.  0.
         25    1    4    4    0    0  0.79543680568E+02 -0.63866809110E+01  0.84535507960E+01  0.14861681410E+03  0.12509000000E+03 0.  0.
         25    1    4    4    0    0  0.51899527730E+01  0.19527056983E+02  0.34209972687E+02  0.13124813102E+03  0.12509000000E+03 0.  0.
         25    1    3    3    0    0 -0.84733633341E+02 -0.13140376072E+02  0.14793890741E+03  0.21186289559E+03  0.12509000000E+03 0.  0.
<mgrwt>
<rscale>  2 0.45328466E+03</rscale>
<asrwt>0</asrwt>
<pdfrwt beam="1">  1       21 0.50171343E-01 0.45328466E+03</pdfrwt>
<pdfrwt beam="2">  1       21 0.22141574E-01 0.45328466E+03</pdfrwt>
<totfact> 0.66760284E+04</totfact>
</mgrwt>
</event>
<event>
 7    0  0.4732500E-002  0.4527057E+03  0.7546771E-02  0.1026918E+00
         21   -1    0    0  502  501  0.00000000000E+00  0.00000000000E+00  0.27355190932E+03  0.27355190932E+03  0.00000000000E+00 0. -1.
         21   -1    0    0  501  502 -0.00000000000E+00 -0.00000000000E+00 -0.18729755859E+03  0.18729755859E+03  0.00000000000E+00 0. -1.
      99926    2    1    2    0    0  0.00000000000E+00  0.00000000000E+00  0.86254350731E+02  0.46084946792E+03  0.45270566493E+03 0.  0.
      99925    2    3    3    0    0 -0.96268612248E+02  0.12259686188E+02  0.10917703569E+03  0.30087789796E+03  0.26303980449E+03 0.  0.
         25    1    4    4    0    0 -0.19740409651E+02  0.26993565978E+02  0.27475811137E+02  0.13236602538E+03  0.12509000000E+03 0.  0.
         25    1    3    3    0    0  0.96268612248E+02 -0.12259686188E+02 -0.22922684958E+02  0.15997156996E+03  0.12509000000E+03 0.  0.
         25    1    4    4    0    0 -0.76528202597E+02 -0.14733879790E+02  0.81701224552E+02  0.16851187258E+03  0.12509000000E+03 0.  0.
<mgrwt>
<rscale>  2 0.45270566E+03</rscale>
<asrwt>0</asrwt>
<pdfrwt beam="1">  1       21 0.40228222E-01 0.45270566E+03</pdfrwt>
<pdfrwt beam="2">  1       21 0.27543758E-01 0.45270566E+03</pdfrwt>
<totfact> 0.69376086E+04</totfact>
</mgrwt>
</event>
<event>
 7    0  0.4732500E-002  0.4548433E+03  0.7546771E-02  0.1026287E+00
         21   -1    0    0  502  501  0.00000000000E+00  0.00000000000E+00  0.22050179288E+03  0.22050179288E+03  0.00000000000E+00 0. -1.
         21   -1    0    0  501  502 -0.00000000000E+00 -0.00000000000E+00 -0.23455867525E+03  0.23455867525E+03  0.00000000000E+00 0. -1.
      99926    2    1    2    0    0  0.00000000000E+00  0.00000000000E+00 -0.14056882372E+02  0.45506046814E+03  0.45484330678E+03 0.  0.
      99925    2    3    3    0    0  0.74591298829E+02  0.41536985340E+02  0.65289944928E+02  0.28408500173E+03  0.26296830281E+03 0.  0.
         25    1    3    3    0    0 -0.74591298829E+02 -0.41536985340E+02 -0.79346827300E+02  0.17097546641E+03  0.12509000000E+03 0.  0.
         25    1    4    4    0    0  0.18149862391E+02 -0.58647132499E+01  0.43099927089E+01  0.12660922756E+03  0.12509000000E+03 0.  0.
         25    1    4    4    0    0  0.56441436438E+02  0.47401698589E+02  0.60979952219E+02  0.15747577417E+03  0.12509000000E+03 0.  0.
<mgrwt>
<rscale>  2 0.45484331E+03</rscale>
<asrwt>0</asrwt>
<pdfrwt beam="1">  1       21 0.32426734E-01 0.45484331E+03</pdfrwt>
<pdfrwt beam="2">  1       21 0.34493923E-01 0.45484331E+03</pdfrwt>
<totfact> 0.68627134E+04</totfact>
</mgrwt>
</event>
<event>
 7    0  0.4732500E-002  0.4545314E+03  0.7546771E-02  0.1026379E+00
         21   -1    0    0  502  501  0.00000000000E+00  0.00000000000E+00  0.17242813509E+04  0.17242813509E+04  0.00000000000E+00 0.  1.
         21   -1    0    0  501  502 -0.00000000000E+00 -0.00000000000E+00 -0.29954328814E+02  0.29954328814E+02  0.00000000000E+00 0.  1.
      99926    2    1    2    0    0 -0.71054273576E-14 -0.35527136788E-14  0.16943270221E+04  0.17542356797E+04  0.45453136549E+03 0.  0.
      99925    2    3    3    0    0 -0.27093212334E+02 -0.81106819528E+01  0.64532833498E+03  0.69742652997E+03  0.26297391405E+03 0.  0.
         25    1    3    3    0    0  0.27093212334E+02  0.81106819528E+01  0.10489986871E+04  0.10568091498E+04  0.12509000000E+03 0.  0.
         25    1    4    4    0    0 -0.34689921028E+02 -0.34152222283E+02  0.28468172478E+03  0.31473950726E+03  0.12509000000E+03 0.  0.
         25    1    4    4    0    0  0.75967086945E+01  0.26041540331E+02  0.36064661020E+03  0.38268702272E+03  0.12509000000E+03 0.  0.
<mgrwt>
<rscale>  2 0.45453137E+03</rscale>
<asrwt>0</asrwt>
<pdfrwt beam="1">  1       21 0.25357072E+00 0.45453137E+03</pdfrwt>
<pdfrwt beam="2">  1       21 0.44050495E-02 0.45453137E+03</pdfrwt>
<totfact> 0.18221831E+04</totfact>
</mgrwt>
</event>
<event>
 7    0  0.4732500E-002  0.4473301E+03  0.7546771E-02  0.1028521E+00
         21   -1    0    0  502  501  0.00000000000E+00  0.00000000000E+00  0.50744041913E+02  0.50744041913E+02  0.00000000000E+00 0.  1.
         21   -1    0    0  501  502 -0.00000000000E+00 -0.00000000000E+00 -0.98585091260E+03  0.98585091260E+03  0.00000000000E+00 0.  1.
      99926    2    1    2    0    0  0.00000000000E+00  0.71054273576E-14 -0.93510687069E+03  0.10365949545E+04  0.44733012431E+03 0.  0.
      99925    2    3    3    0    0 -0.79963388601E+02 -0.50593922114E+02 -0.48268056638E+03  0.55775160079E+03  0.26296849727E+03 0.  0.
         25    1    3    3    0    0  0.79963388601E+02  0.50593922114E+02 -0.45242630431E+03  0.47884335372E+03  0.12509000000E+03 0.  0.
         25    1    4    4    0    0 -0.57795355377E+02 -0.59725243177E+02 -0.29347619697E+03  0.32967134250E+03  0.12509000000E+03 0.  0.
         25    1    4    4    0    0 -0.22168033225E+02  0.91313210624E+01 -0.18920436941E+03  0.22808025830E+03  0.12509000000E+03 0.  0.
<mgrwt>
<rscale>  2 0.44733012E+03</rscale>
<asrwt>0</asrwt>
<pdfrwt beam="1">  1       21 0.74623602E-02 0.44733012E+03</pdfrwt>
<pdfrwt beam="2">  1       21 0.14497805E+00 0.44733012E+03</pdfrwt>
<totfact> 0.40122101E+04</totfact>
</mgrwt>
</event>
<event>
 7    0  0.4732500E-002  0.4625067E+03  0.7546771E-02  0.1024057E+00
         21   -1    0    0  502  501  0.00000000000E+00  0.00000000000E+00  0.70345602964E+03  0.70345602964E+03  0.00000000000E+00 0. -1.
         21   -1    0    0  501  502 -0.00000000000E+00 -0.00000000000E+00 -0.76021967002E+02  0.76021967002E+02  0.00000000000E+00 0. -1.
      99926    2    1    2    0    0  0.00000000000E+00  0.14210854715E-13  0.62743406264E+03  0.77947799664E+03  0.46250669648E+03 0.  0.
      99925    2    3    3    0    0  0.76327311740E+02  0.79652575088E+02  0.47361673670E+03  0.55259108848E+03  0.26243800516E+03 0.  0.
         25    1    3    3    0    0 -0.76327311740E+02 -0.79652575088E+02  0.15381732594E+03  0.22688690816E+03  0.12509000000E+03 0.  0.
         25    1    4    4    0    0  0.65752386866E+02  0.14738248836E+02  0.26351568664E+03  0.29938038941E+03  0.12509000000E+03 0.  0.
         25    1    4    4    0    0  0.10574924874E+02  0.64914326253E+02  0.21010105006E+03  0.25321069907E+03  0.12509000000E+03 0.  0.
<mgrwt>
<rscale>  2 0.46250670E+03</rscale>
<asrwt>0</asrwt>
<pdfrwt beam="1">  1       21 0.10344941E+00 0.46250670E+03</pdfrwt>
<pdfrwt beam="2">  1       21 0.11179701E-01 0.46250670E+03</pdfrwt>
<totfact> 0.46002482E+04</totfact>
</mgrwt>
</event>
<event>
 7    0  0.4732500E-002  0.4475670E+03  0.7546771E-02  0.1028450E+00
         21   -1    0    0  502  501  0.00000000000E+00  0.00000000000E+00  0.27689670951E+02  0.27689670951E+02  0.00000000000E+00 0.  1.
         21   -1    0    0  501  502 -0.00000000000E+00 -0.00000000000E+00 -0.18085825150E+04  0.18085825150E+04  0.00000000000E+00 0.  1.
      99926    2    1    2    0    0  0.00000000000E+00 -0.17763568394E-14 -0.17808928441E+04  0.18362721860E+04  0.44756699936E+03 0.  0.
      99925    2    3    3    0    0  0.34522804165E+02  0.97498134879E+01 -0.71936158029E+03  0.76679426897E+03  0.26306935370E+03 0.  0.
         25    1    3    3    0    0 -0.34522804165E+02 -0.97498134879E+01 -0.10615312638E+04  0.10694779170E+04  0.12509000000E+03 0.  0.
         25    1    4    4    0    0  0.35883680463E+02  0.40639399559E+02 -0.35110005786E+03  0.37664035637E+03  0.12509000000E+03 0.  0.
         25    1    4    4    0    0 -0.13608762975E+01 -0.30889586071E+02 -0.36826152243E+03  0.39015391260E+03  0.12509000000E+03 0.  0.
<mgrwt>
<rscale>  2 0.44756700E+03</rscale>
<asrwt>0</asrwt>
<pdfrwt beam="1">  1       21 0.40720097E-02 0.44756700E+03</pdfrwt>
<pdfrwt beam="2">  1       21 0.26596807E+00 0.44756700E+03</pdfrwt>
<totfact> 0.17564109E+04</totfact>
</mgrwt>
</event>
<event>
 7    0  0.4732500E-002  0.4606407E+03  0.7546771E-02  0.1024596E+00
         21   -1    0    0  502  501  0.00000000000E+00  0.00000000000E+00  0.56578424293E+02  0.56578424293E+02  0.00000000000E+00 0.  1.
         21   -1    0    0  501  502 -0.00000000000E+00 -0.00000000000E+00 -0.93759158144E+03  0.93759158144E+03  0.00000000000E+00 0.  1.
      99926    2    1    2    0    0 -0.14210854715E-13  0.71054273576E-14 -0.88101315714E+03  0.99417000573E+03  0.46064065955E+03 0.  0.
      99925    2    3    3    0    0 -0.10297690018E+03  0.55305288735E+02 -0.59375734316E+03  0.65976556841E+03  0.26283056476E+03 0.  0.
         25    1    4    4    0    0 -0.86069775953E+02  0.11332361247E+02 -0.28000605617E+03  0.31872767112E+03  0.12509000000E+03 0.  0.
         25    1    3    3    0    0  0.10297690018E+03 -0.55305288735E+02 -0.28725581398E+03  0.33440443732E+03  0.12509000000E+03 0.  0.
         25    1    4    4    0    0 -0.16907124224E+02  0.43972927488E+02 -0.31375128699E+03  0.34103789729E+03  0.12509000000E+03 0.  0.
<mgrwt>
<rscale>  2 0.46064066E+03</rscale>
<asrwt>0</asrwt>
<pdfrwt beam="1">  1       21 0.83203566E-02 0.46064066E+03</pdfrwt>
<pdfrwt beam="2">  1       21 0.13788111E+00 0.46064066E+03</pdfrwt>
<totfact> 0.37705545E+04</totfact>
</mgrwt>
</event>
<event>
 7    0  0.4732500E-002  0.4573069E+03  0.7546771E-02  0.1025565E+00
         21   -1    0    0  502  501  0.00000000000E+00  0.00000000000E+00  0.29004393152E+03  0.29004393152E+03  0.00000000000E+00 0. -1.
         21   -1    0    0  501  502 -0.00000000000E+00 -0.00000000000E+00 -0.18025681788E+03  0.18025681788E+03  0.00000000000E+00 0. -1.
      99926    2    1    2    0    0  0.00000000000E+00  0.14210854715E-13  0.10978711363E+03  0.47030074940E+03  0.45730688226E+03 0.  0.
      99925    2    3    3    0    0  0.51295761844E+01  0.82231748627E+02  0.15193326341E+03  0.31469811743E+03  0.26298824223E+03 0.  0.
         25    1    4    4    0    0 -0.22917826938E+01  0.82759292874E+02  0.75765651672E+02  0.16805444028E+03  0.12509000000E+03 0.  0.
         25    1    4    4    0    0  0.74213588781E+01 -0.52754424699E+00  0.76167611735E+02  0.14664367715E+03  0.12509000000E+03 0.  0.
         25    1    3    3    0    0 -0.51295761844E+01 -0.82231748627E+02 -0.42146149774E+02  0.15560263197E+03  0.12509000000E+03 0.  0.
<mgrwt>
<rscale>  2 0.45730688E+03</rscale>
<asrwt>0</asrwt>
<pdfrwt beam="1">  1       21 0.42653519E-01 0.45730688E+03</pdfrwt>
<pdfrwt beam="2">  1       21 0.26508355E-01 0.45730688E+03</pdfrwt>
<totfact> 0.66193806E+04</totfact>
</mgrwt>
</event>
<event>
 7    0  0.4732500E-002  0.4615432E+03  0.7546771E-02  0.1024335E+00
         21   -1    0    0  502  501  0.00000000000E+00  0.00000000000E+00  0.85923754995E+02  0.85923754995E+02  0.00000000000E+00 0.  1.
         21   -1    0    0  501  502 -0.00000000000E+00 -0.00000000000E+00 -0.61979988632E+03  0.61979988632E+03  0.00000000000E+00 0.  1.
      99926    2    1    2    0    0 -0.71054273576E-14  0.00000000000E+00 -0.53387613132E+03  0.70572364131E+03  0.46154320958E+03 0.  0.
      99925    2    3    3    0    0  0.52662441086E+02 -0.92068245559E+02 -0.41726100614E+03  0.50448624404E+03  0.26296335987E+03 0.  0.
         25    1    4    4    0    0 -0.14163682531E+02 -0.40853957547E+02 -0.20863146454E+03  0.24707134971E+03  0.12509000000E+03 0.  0.
         25    1    4    4    0    0  0.66826123617E+02 -0.51214288012E+02 -0.20862954160E+03  0.25741489433E+03  0.12509000000E+03 0.  0.
         25    1    3    3    0    0 -0.52662441086E+02  0.92068245559E+02 -0.11661512518E+03  0.20123739728E+03  0.12509000000E+03 0.  0.
<mgrwt>
<rscale>  2 0.46154321E+03</rscale>
<asrwt>0</asrwt>
<pdfrwt beam="1">  1       21 0.12635846E-01 0.46154321E+03</pdfrwt>
<pdfrwt beam="2">  1       21 0.91147044E-01 0.46154321E+03</pdfrwt>
<totfact> 0.49970355E+04</totfact>
</mgrwt>
</event>
<event>
 7    0  0.4732500E-002  0.4571333E+03  0.7546771E-02  0.1025616E+00
         21   -1    0    0  502  501  0.00000000000E+00  0.00000000000E+00  0.69389107654E+03  0.69389107654E+03  0.00000000000E+00 0.  1.
         21   -1    0    0  501  502 -0.00000000000E+00 -0.00000000000E+00 -0.75289508942E+02  0.75289508942E+02  0.00000000000E+00 0.  1.
      99926    2    1    2    0    0  0.00000000000E+00  0.00000000000E+00  0.61860156760E+03  0.76918058548E+03  0.45713332153E+03 0.  0.
      99925    2    3    3    0    0 -0.46358405491E+02  0.88632636875E+02  0.48443244310E+03  0.56024588720E+03  0.26305097627E+03 0.  0.
         25    1    4    4    0    0 -0.10558714349E+02  0.27644285557E+02  0.15871295142E+03  0.20423761167E+03  0.12509000000E+03 0.  0.
         25    1    4    4    0    0 -0.35799691142E+02  0.60988351318E+02  0.32571949169E+03  0.35600827553E+03  0.12509000000E+03 0.  0.
         25    1    3    3    0    0  0.46358405491E+02 -0.88632636875E+02  0.13416912450E+03  0.20893469828E+03  0.12509000000E+03 0.  0.
<mgrwt>
<rscale>  2 0.45713332E+03</rscale>
<asrwt>0</asrwt>
<pdfrwt beam="1">  1       21 0.10204280E+00 0.45713332E+03</pdfrwt>
<pdfrwt beam="2">  1       21 0.11071987E-01 0.45713332E+03</pdfrwt>
<totfact> 0.48474645E+04</totfact>
</mgrwt>
</event>
<event>
 7    0  0.4732500E-002  0.4605321E+03  0.7546771E-02  0.1024627E+00
         21   -1    0    0  502  501  0.00000000000E+00  0.00000000000E+00  0.28665937561E+03  0.28665937561E+03  0.00000000000E+00 0. -1.
         21   -1    0    0  501  502 -0.00000000000E+00 -0.00000000000E+00 -0.18496678643E+03  0.18496678643E+03  0.00000000000E+00 0. -1.
      99926    2    1    2    0    0  0.00000000000E+00 -0.14210854715E-13  0.10169258918E+03  0.47162616204E+03  0.46053214223E+03 0.  0.
      99925    2    3    3    0    0 -0.42285321173E+02 -0.79209677359E+02 -0.15441125286E+02  0.27815772395E+03  0.26281375471E+03 0.  0.
         25    1    4    4    0    0  0.88984417369E+01 -0.60626333665E+02 -0.24495948826E+02  0.14142946725E+03  0.12509000000E+03 0.  0.
         25    1    3    3    0    0  0.42285321173E+02  0.79209677359E+02  0.11713371447E+03  0.19346843810E+03  0.12509000000E+03 0.  0.
         25    1    4    4    0    0 -0.51183762910E+02 -0.18583343694E+02  0.90548235405E+01  0.13672825669E+03  0.12509000000E+03 0.  0.
<mgrwt>
<rscale>  2 0.46053214E+03</rscale>
<asrwt>0</asrwt>
<pdfrwt beam="1">  1       21 0.42155791E-01 0.46053214E+03</pdfrwt>
<pdfrwt beam="2">  1       21 0.27200998E-01 0.46053214E+03</pdfrwt>
<totfact> 0.64440600E+04</totfact>
</mgrwt>
</event>
<event>
 7    0  0.4732500E-002  0.4832865E+03  0.7546771E-02  0.1018236E+00
         21   -1    0    0  502  501  0.00000000000E+00  0.00000000000E+00  0.56756473764E+03  0.56756473764E+03  0.00000000000E+00 0. -1.
         21   -1    0    0  501  502 -0.00000000000E+00 -0.00000000000E+00 -0.10288070586E+03  0.10288070586E+03  0.00000000000E+00 0. -1.
      99926    2    1    2    0    0  0.00000000000E+00  0.88817841970E-15  0.46468403178E+03  0.67044544349E+03  0.48328650230E+03 0.  0.
      99925    2    3    3    0    0  0.27460776874E+02 -0.60528350645E+01  0.97411269894E+02  0.28143706209E+03  0.26253977477E+03 0.  0.
         25    1    3    3    0    0 -0.27460776874E+02  0.60528350645E+01  0.36727276189E+03  0.38900838141E+03  0.12509000000E+03 0.  0.
         25    1    4    4    0    0  0.36351180078E+01 -0.19120129232E+02  0.11166536683E+02  0.12708655738E+03  0.12509000000E+03 0.  0.
         25    1    4    4    0    0  0.23825658867E+02  0.13067294167E+02  0.86244733210E+02  0.15435050471E+03  0.12509000000E+03 0.  0.
<mgrwt>
<rscale>  2 0.48328650E+03</rscale>
<asrwt>0</asrwt>
<pdfrwt beam="1">  1       21 0.83465402E-01 0.48328650E+03</pdfrwt>
<pdfrwt beam="2">  1       21 0.15129516E-01 0.48328650E+03</pdfrwt>
<totfact> 0.43896413E+04</totfact>
</mgrwt>
</event>
<event>
 7    0  0.4732500E-002  0.4568767E+03  0.7546771E-02  0.1025691E+00
         21   -1    0    0  502  501  0.00000000000E+00  0.00000000000E+00  0.79331338985E+02  0.79331338985E+02  0.00000000000E+00 0. -1.
         21   -1    0    0  501  502 -0.00000000000E+00 -0.00000000000E+00 -0.65779917598E+03  0.65779917598E+03  0.00000000000E+00 0. -1.
      99926    2    1    2    0    0  0.17763568394E-14  0.71054273576E-14 -0.57846783700E+03  0.73713051497E+03  0.45687674230E+03 0.  0.
      99925    2    3    3    0    0 -0.45076995855E+01  0.41325550380E+02 -0.53612791833E+03  0.59868089495E+03  0.26316828969E+03 0.  0.
         25    1    4    4    0    0 -0.40205310103E+02  0.73765404177E+01 -0.24899708005E+03  0.28163439826E+03  0.12509000000E+03 0.  0.
         25    1    3    3    0    0  0.45076995855E+01 -0.41325550380E+02 -0.42339918668E+02  0.13844962002E+03  0.12509000000E+03 0.  0.
         25    1    4    4    0    0  0.35697610518E+02  0.33949009962E+02 -0.28713083828E+03  0.31704649669E+03  0.12509000000E+03 0.  0.
<mgrwt>
<rscale>  2 0.45687674E+03</rscale>
<asrwt>0</asrwt>
<pdfrwt beam="1">  1       21 0.11666374E-01 0.45687674E+03</pdfrwt>
<pdfrwt beam="2">  1       21 0.96735168E-01 0.45687674E+03</pdfrwt>
<totfact> 0.50188312E+04</totfact>
</mgrwt>
</event>
<event>
 7    0  0.4732500E-002  0.4538684E+03  0.7546771E-02  0.1026575E+00
         21   -1    0    0  502  501  0.00000000000E+00  0.00000000000E+00  0.59473510059E+03  0.59473510059E+03  0.00000000000E+00 0. -1.
         21   -1    0    0  501  502 -0.00000000000E+00 -0.00000000000E+00 -0.86591729777E+02  0.86591729777E+02  0.00000000000E+00 0. -1.
      99926    2    1    2    0    0  0.00000000000E+00 -0.35527136788E-14  0.50814337081E+03  0.68132683036E+03  0.45386844402E+03 0.  0.
      99925    2    3    3    0    0  0.18663706071E+02 -0.31798377902E+02  0.16107352257E+03  0.31056483337E+03  0.26295696471E+03 0.  0.
         25    1    4    4    0    0  0.23633715961E+02  0.51136456152E+01  0.11651898301E+03  0.17265249319E+03  0.12509000000E+03 0.  0.
         25    1    4    4    0    0 -0.49700098899E+01 -0.36912023517E+02  0.44554539561E+02  0.13791234018E+03  0.12509000000E+03 0.  0.
         25    1    3    3    0    0 -0.18663706071E+02  0.31798377902E+02  0.34706984824E+03  0.37076199700E+03  0.12509000000E+03 0.  0.
<mgrwt>
<rscale>  2 0.45386844E+03</rscale>
<asrwt>0</asrwt>
<pdfrwt beam="1">  1       21 0.87461042E-01 0.45386844E+03</pdfrwt>
<pdfrwt beam="2">  1       21 0.12734078E-01 0.45386844E+03</pdfrwt>
<totfact> 0.54412106E+04</totfact>
</mgrwt>
</event>
<event>
 7    0  0.4732500E-002  0.4674744E+03  0.7546771E-02  0.1022635E+00
         21   -1    0    0  502  501  0.00000000000E+00  0.00000000000E+00  0.83017993558E+03  0.83017993558E+03  0.00000000000E+00 0.  1.
         21   -1    0    0  501  502 -0.00000000000E+00 -0.00000000000E+00 -0.65808708634E+02  0.65808708634E+02  0.00000000000E+00 0.  1.
      99926    2    1    2    0    0  0.14210854715E-13  0.00000000000E+00  0.76437122695E+03  0.89598864421E+03  0.46747436077E+03 0.  0.
      99925    2    3    3    0    0  0.11917509119E+03  0.34286882143E+02  0.45413415846E+03  0.53923545304E+03  0.26298050743E+03 0.  0.
         25    1    4    4    0    0  0.91693782694E+02  0.43359263234E+02  0.27789366127E+03  0.32118557029E+03  0.12509000000E+03 0.  0.
         25    1    4    4    0    0  0.27481308501E+02 -0.90723810909E+01  0.17624049719E+03  0.21804988275E+03  0.12509000000E+03 0.  0.
         25    1    3    3    0    0 -0.11917509119E+03 -0.34286882143E+02  0.31023706849E+03  0.35675319117E+03  0.12509000000E+03 0.  0.
<mgrwt>
<rscale>  2 0.46747436E+03</rscale>
<asrwt>0</asrwt>
<pdfrwt beam="1">  1       21 0.12208528E+00 0.46747436E+03</pdfrwt>
<pdfrwt beam="2">  1       21 0.96777518E-02 0.46747436E+03</pdfrwt>
<totfact> 0.39414415E+04</totfact>
</mgrwt>
</event>
<event>
 7    0  0.4732500E-002  0.4546379E+03  0.7546771E-02  0.1026348E+00
         21   -1    0    0  502  501  0.00000000000E+00  0.00000000000E+00  0.38703650654E+02  0.38703650654E+02  0.00000000000E+00 0. -1.
         21   -1    0    0  501  502 -0.00000000000E+00 -0.00000000000E+00 -0.13351171005E+04  0.13351171005E+04  0.00000000000E+00 0. -1.
      99926    2    1    2    0    0 -0.71054273576E-14  0.00000000000E+00 -0.12964134498E+04  0.13738207511E+04  0.45463790356E+03 0.  0.
      99925    2    3    3    0    0 -0.41170612135E+02  0.93934011848E+02 -0.67370371598E+03  0.73044408182E+03  0.26297003985E+03 0.  0.
         25    1    4    4    0    0 -0.47792531638E+02  0.75990163696E+02 -0.32896031085E+03  0.36320934084E+03  0.12509000000E+03 0.  0.
         25    1    3    3    0    0  0.41170612135E+02 -0.93934011848E+02 -0.62270973384E+03  0.64337666930E+03  0.12509000000E+03 0.  0.
         25    1    4    4    0    0  0.66219195032E+01  0.17943848152E+02 -0.34474340513E+03  0.36723474098E+03  0.12509000000E+03 0.  0.
<mgrwt>
<rscale>  2 0.45463790E+03</rscale>
<asrwt>0</asrwt>
<pdfrwt beam="1">  1       21 0.56917127E-02 0.45463790E+03</pdfrwt>
<pdfrwt beam="2">  1       21 0.19634077E+00 0.45463790E+03</pdfrwt>
<totfact> 0.27114293E+04</totfact>
</mgrwt>
</event>
<event>
 7    0  0.4732500E-002  0.4520137E+03  0.7546771E-02  0.1027123E+00
         21   -1    0    0  502  501  0.00000000000E+00  0.00000000000E+00  0.56658794129E+03  0.56658794129E+03  0.00000000000E+00 0.  1.
         21   -1    0    0  501  502 -0.00000000000E+00 -0.00000000000E+00 -0.90152102629E+02  0.90152102629E+02  0.00000000000E+00 0.  1.
      99926    2    1    2    0    0  0.00000000000E+00 -0.71054273576E-14  0.47643583866E+03  0.65674004392E+03  0.45201369108E+03 0.  0.
      99925    2    3    3    0    0 -0.87961266471E+02  0.63699948434E+02  0.27196490451E+03  0.39358469277E+03  0.26296222783E+03 0.  0.
         25    1    4    4    0    0 -0.12243790687E+02  0.36879923829E+02  0.91533549493E+02  0.15979968077E+03  0.12509000000E+03 0.  0.
         25    1    3    3    0    0  0.87961266471E+02 -0.63699948434E+02  0.20447093415E+03  0.26315535115E+03  0.12509000000E+03 0.  0.
         25    1    4    4    0    0 -0.75717475784E+02  0.26820024604E+02  0.18043135502E+03  0.23378501200E+03  0.12509000000E+03 0.  0.
<mgrwt>
<rscale>  2 0.45201369E+03</rscale>
<asrwt>0</asrwt>
<pdfrwt beam="1">  1       21 0.83321754E-01 0.45201369E+03</pdfrwt>
<pdfrwt beam="2">  1       21 0.13257663E-01 0.45201369E+03</pdfrwt>
<totfact> 0.56636893E+04</totfact>
</mgrwt>
</event>
<event>
 7    0  0.4732500E-002  0.4551757E+03  0.7546771E-02  0.1026190E+00
         21   -1    0    0  502  501  0.00000000000E+00  0.00000000000E+00  0.14678380573E+04  0.14678380573E+04  0.00000000000E+00 0.  1.
         21   -1    0    0  501  502 -0.00000000000E+00 -0.00000000000E+00 -0.35287421325E+02  0.35287421325E+02  0.00000000000E+00 0.  1.
      99926    2    1    2    0    0  0.00000000000E+00  0.00000000000E+00  0.14325506360E+04  0.15031254786E+04  0.45517565825E+03 0.  0.
      99925    2    3    3    0    0  0.95384649226E+02  0.57811464394E+02  0.83729721605E+03  0.88472872996E+03  0.26313095769E+03 0.  0.
         25    1    3    3    0    0 -0.95384649226E+02 -0.57811464394E+02  0.59525341994E+03  0.61839674868E+03  0.12509000000E+03 0.  0.
         25    1    4    4    0    0  0.16649853943E+02  0.35656467682E+02  0.30844516937E+03  0.33516344062E+03  0.12509000000E+03 0.  0.
         25    1    4    4    0    0  0.78734795283E+02  0.22154996712E+02  0.52885204668E+03  0.54956528934E+03  0.12509000000E+03 0.  0.
<mgrwt>
<rscale>  2 0.45517566E+03</rscale>
<asrwt>0</asrwt>
<pdfrwt beam="1">  1       21 0.21585850E+00 0.45517566E+03</pdfrwt>
<pdfrwt beam="2">  1       21 0.51893277E-02 0.45517566E+03</pdfrwt>
<totfact> 0.23670316E+04</totfact>
</mgrwt>
</event>
<event>
 7    0  0.4732500E-002  0.4504499E+03  0.7546771E-02  0.1027588E+00
         21   -1    0    0  502  501  0.00000000000E+00  0.00000000000E+00  0.52353579220E+03  0.52353579220E+03  0.00000000000E+00 0.  1.
         21   -1    0    0  501  502 -0.00000000000E+00 -0.00000000000E+00 -0.96891695346E+02  0.96891695346E+02  0.00000000000E+00 0.  1.
      99926    2    1    2    0    0  0.71054273576E-14  0.14210854715E-13  0.42664409686E+03  0.62042748755E+03  0.45044986616E+03 0.  0.
      99925    2    3    3    0    0  0.58503666662E+02 -0.90475517449E+02  0.28865442313E+03  0.40525974734E+03  0.26325954598E+03 0.  0.
         25    1    3    3    0    0 -0.58503666662E+02  0.90475517449E+02  0.13798967372E+03  0.21516774020E+03  0.12509000000E+03 0.  0.
         25    1    4    4    0    0  0.14945133424E+02 -0.49772787455E+01  0.14268595352E+03  0.19040724710E+03  0.12509000000E+03 0.  0.
         25    1    4    4    0    0  0.43558533239E+02 -0.85498238703E+02  0.14596846961E+03  0.21485250024E+03  0.12509000000E+03 0.  0.
<mgrwt>
<rscale>  2 0.45044987E+03</rscale>
<asrwt>0</asrwt>
<pdfrwt beam="1">  1       21 0.76990556E-01 0.45044987E+03</pdfrwt>
<pdfrwt beam="2">  1       21 0.14248779E-01 0.45044987E+03</pdfrwt>
<totfact> 0.59549052E+04</totfact>
</mgrwt>
</event>
<event>
 7    0  0.4732500E-002  0.4303942E+03  0.7546771E-02  0.1033736E+00
         21   -1    0    0  502  501  0.00000000000E+00  0.00000000000E+00  0.74813096895E+02  0.74813096895E+02  0.00000000000E+00 0.  1.
         21   -1    0    0  501  502 -0.00000000000E+00 -0.00000000000E+00 -0.61900634988E+03  0.61900634988E+03  0.00000000000E+00 0.  1.
      99926    2    1    2    0    0  0.00000000000E+00  0.00000000000E+00 -0.54419325299E+03  0.69381944678E+03  0.43039415439E+03 0.  0.
      99925    2    3    3    0    0 -0.10306284317E+02  0.87575216145E+02 -0.34810352322E+03  0.44507393788E+03  0.26294316747E+03 0.  0.
         25    1    4    4    0    0  0.29469657022E+00  0.32036567702E+02 -0.10730094158E+03  0.16789112151E+03  0.12509000000E+03 0.  0.
         25    1    3    3    0    0  0.10306284317E+02 -0.87575216145E+02 -0.19608972977E+03  0.24874550890E+03  0.12509000000E+03 0.  0.
         25    1    4    4    0    0 -0.10600980887E+02  0.55538648443E+02 -0.24080258164E+03  0.27718281637E+03  0.12509000000E+03 0.  0.
<mgrwt>
<rscale>  2 0.43039415E+03</rscale>
<asrwt>0</asrwt>
<pdfrwt beam="1">  1       21 0.11001926E-01 0.43039415E+03</pdfrwt>
<pdfrwt beam="2">  1       21 0.91030346E-01 0.43039415E+03</pdfrwt>
<totfact> 0.64930543E+04</totfact>
</mgrwt>
</event>
<event>
 7    0  0.4732500E-002  0.4526295E+03  0.7546771E-02  0.1026941E+00
         21   -1    0    0  502  501  0.00000000000E+00  0.00000000000E+00  0.26008048662E+03  0.26008048662E+03  0.00000000000E+00 0.  1.
         21   -1    0    0  501  502 -0.00000000000E+00 -0.00000000000E+00 -0.19693278770E+03  0.19693278770E+03  0.00000000000E+00 0.  1.
      99926    2    1    2    0    0 -0.71054273576E-14  0.00000000000E+00  0.63147698924E+02  0.45701327433E+03  0.45262954061E+03 0.  0.
      99925    2    3    3    0    0 -0.43501326485E+02 -0.75361256512E+02 -0.29733830751E+02  0.27855831910E+03  0.26294286843E+03 0.  0.
         25    1    3    3    0    0  0.43501326485E+02  0.75361256512E+02  0.92881529675E+02  0.17845495522E+03  0.12509000000E+03 0.  0.
         25    1    4    4    0    0 -0.36002415924E+01 -0.74498328019E+02 -0.17549118595E+02  0.14669165716E+03  0.12509000000E+03 0.  0.
         25    1    4    4    0    0 -0.39901084892E+02 -0.86292849342E+00 -0.12184712156E+02  0.13186666194E+03  0.12509000000E+03 0.  0.
<mgrwt>
<rscale>  2 0.45262954E+03</rscale>
<asrwt>0</asrwt>
<pdfrwt beam="1">  1       21 0.38247130E-01 0.45262954E+03</pdfrwt>
<pdfrwt beam="2">  1       21 0.28960704E-01 0.45262954E+03</pdfrwt>
<totfact> 0.69707231E+04</totfact>
</mgrwt>
</event>
<event>
 7    0  0.4732500E-002  0.4519295E+03  0.7546771E-02  0.1027148E+00
         21   -1    0    0  502  501  0.00000000000E+00  0.00000000000E+00  0.18610424801E+03  0.18610424801E+03  0.00000000000E+00 0. -1.
         21   -1    0    0  501  502 -0.00000000000E+00 -0.00000000000E+00 -0.27436268024E+03  0.27436268024E+03  0.00000000000E+00 0. -1.
      99926    2    1    2    0    0  0.14210854715E-13  0.00000000000E+00 -0.88258432235E+02  0.46046692825E+03  0.45192946479E+03 0.  0.
      99925    2    3    3    0    0 -0.98178264728E+02  0.12407607927E+02 -0.62281724471E+01  0.28110864987E+03  0.26304060999E+03 0.  0.
         25    1    4    4    0    0 -0.81893413636E+02  0.27726418508E+02 -0.19664170634E+02  0.15332799218E+03  0.12509000000E+03 0.  0.
         25    1    4    4    0    0 -0.16284851092E+02 -0.15318810581E+02  0.13435998187E+02  0.12778065769E+03  0.12509000000E+03 0.  0.
         25    1    3    3    0    0  0.98178264728E+02 -0.12407607927E+02 -0.82030259788E+02  0.17935827837E+03  0.12509000000E+03 0.  0.
<mgrwt>
<rscale>  2 0.45192946E+03</rscale>
<asrwt>0</asrwt>
<pdfrwt beam="1">  1       21 0.27368272E-01 0.45192946E+03</pdfrwt>
<pdfrwt beam="2">  1       21 0.40347452E-01 0.45192946E+03</pdfrwt>
<totfact> 0.69837147E+04</totfact>
</mgrwt>
</event>
<event>
 7    0  0.4732500E-002  0.4612285E+03  0.7546771E-02  0.1024426E+00
         21   -1    0    0  502  501  0.00000000000E+00  0.00000000000E+00  0.32168052800E+03  0.32168052800E+03  0.00000000000E+00 0. -1.
         21   -1    0    0  501  502 -0.00000000000E+00 -0.00000000000E+00 -0.16532843388E+03  0.16532843388E+03  0.00000000000E+00 0. -1.
      99926    2    1    2    0    0 -0.71054273576E-14  0.00000000000E+00  0.15635209412E+03  0.48700896188E+03  0.46122852429E+03 0.  0.
      99925    2    3    3    0    0  0.58928504010E+02  0.72791318862E+02  0.17513853718E+03  0.32961905360E+03  0.26306666190E+03 0.  0.
         25    1    4    4    0    0  0.47673727920E+02  0.16144740419E+02  0.50983963024E+02  0.14415377055E+03  0.12509000000E+03 0.  0.
         25    1    3    3    0    0 -0.58928504010E+02 -0.72791318862E+02 -0.18786443060E+02  0.15738990828E+03  0.12509000000E+03 0.  0.
         25    1    4    4    0    0  0.11254776090E+02  0.56646578443E+02  0.12415457415E+03  0.18546528305E+03  0.12509000000E+03 0.  0.
<mgrwt>
<rscale>  2 0.46122852E+03</rscale>
<asrwt>0</asrwt>
<pdfrwt beam="1">  1       21 0.47305960E-01 0.46122852E+03</pdfrwt>
<pdfrwt beam="2">  1       21 0.24313005E-01 0.46122852E+03</pdfrwt>
<totfact> 0.63019372E+04</totfact>
</mgrwt>
</event>
<event>
 7    0  0.4732500E-002  0.4577547E+03  0.7546771E-02  0.1025434E+00
         21   -1    0    0  502  501  0.00000000000E+00  0.00000000000E+00  0.68718864448E+02  0.68718864448E+02  0.00000000000E+00 0. -1.
         21   -1    0    0  501  502 -0.00000000000E+00 -0.00000000000E+00 -0.76230640943E+03  0.76230640943E+03  0.00000000000E+00 0. -1.
      99926    2    1    2    0    0  0.71054273576E-14 -0.14210854715E-13 -0.69358754498E+03  0.83102527388E+03  0.45775465401E+03 0.  0.
      99925    2    3    3    0    0 -0.53287204284E+02  0.10243927616E+03 -0.44962919857E+03  0.53354163680E+03  0.26299606567E+03 0.  0.
         25    1    4    4    0    0  0.12214380588E+02  0.43075940481E+02 -0.18474613789E+03  0.22755959946E+03  0.12509000000E+03 0.  0.
         25    1    4    4    0    0 -0.65501584873E+02  0.59363335678E+02 -0.26488306068E+03  0.30598203734E+03  0.12509000000E+03 0.  0.
         25    1    3    3    0    0  0.53287204284E+02 -0.10243927616E+03 -0.24395834642E+03  0.29748363707E+03  0.12509000000E+03 0.  0.
<mgrwt>
<rscale>  2 0.45775465E+03</rscale>
<asrwt>0</asrwt>
<pdfrwt beam="1">  1       21 0.10105716E-01 0.45775465E+03</pdfrwt>
<pdfrwt beam="2">  1       21 0.11210388E+00 0.45775465E+03</pdfrwt>
<totfact> 0.45313155E+04</totfact>
</mgrwt>
</event>
<event>
 7    0  0.4732500E-002  0.4514476E+03  0.7546771E-02  0.1027291E+00
         21   -1    0    0  502  501  0.00000000000E+00  0.00000000000E+00  0.78972692916E+02  0.78972692916E+02  0.00000000000E+00 0. -1.
         21   -1    0    0  501  502 -0.00000000000E+00 -0.00000000000E+00 -0.64517536671E+03  0.64517536671E+03  0.00000000000E+00 0. -1.
      99926    2    1    2    0    0  0.00000000000E+00 -0.14210854715E-13 -0.56620267380E+03  0.72414805963E+03  0.45144760986E+03 0.  0.
      99925    2    3    3    0    0  0.65393426238E+02  0.74592458928E+02 -0.28174509865E+03  0.39795186823E+03  0.26295447076E+03 0.  0.
         25    1    3    3    0    0 -0.65393426238E+02 -0.74592458928E+02 -0.28445757515E+03  0.32619619140E+03  0.12509000000E+03 0.  0.
         25    1    4    4    0    0  0.31044489540E+02 -0.29542936466E+01 -0.11311884543E+03  0.17151055207E+03  0.12509000000E+03 0.  0.
         25    1    4    4    0    0  0.34348936697E+02  0.77546752574E+02 -0.16862625322E+03  0.22644131616E+03  0.12509000000E+03 0.  0.
<mgrwt>
<rscale>  2 0.45144761E+03</rscale>
<asrwt>0</asrwt>
<pdfrwt beam="1">  1       21 0.11613631E-01 0.45144761E+03</pdfrwt>
<pdfrwt beam="2">  1       21 0.94878732E-01 0.45144761E+03</pdfrwt>
<totfact> 0.53078918E+04</totfact>
</mgrwt>
</event>
<event>
 7    0  0.4732500E-002  0.4615236E+03  0.7546771E-02  0.1024340E+00
         21   -1    0    0  502  501  0.00000000000E+00  0.00000000000E+00  0.29412803404E+02  0.29412803404E+02  0.00000000000E+00 0. -1.
         21   -1    0    0  501  502 -0.00000000000E+00 -0.00000000000E+00 -0.18104706975E+04  0.18104706975E+04  0.00000000000E+00 0. -1.
      99926    2    1    2    0    0  0.00000000000E+00  0.14210854715E-13 -0.17810578941E+04  0.18398835009E+04  0.46152364487E+03 0.  0.
      99925    2    3    3    0    0  0.38803776450E+02  0.10412543982E+03 -0.94614487375E+03  0.98837008355E+03  0.26332007074E+03 0.  0.
         25    1    3    3    0    0 -0.38803776450E+02 -0.10412543982E+03 -0.83491302038E+03  0.85151341739E+03  0.12509000000E+03 0.  0.
         25    1    4    4    0    0 -0.10001738277E+02  0.22440721574E+02 -0.46833445920E+03  0.48537438594E+03  0.12509000000E+03 0.  0.
         25    1    4    4    0    0  0.48805514727E+02  0.81684718251E+02 -0.47781041455E+03  0.50299569761E+03  0.12509000000E+03 0.  0.
<mgrwt>
<rscale>  2 0.46152364E+03</rscale>
<asrwt>0</asrwt>
<pdfrwt beam="1">  1       21 0.43254128E-02 0.46152364E+03</pdfrwt>
<pdfrwt beam="2">  1       21 0.26624566E+00 0.46152364E+03</pdfrwt>
<totfact> 0.15695249E+04</totfact>
</mgrwt>
</event>
<event>
 7    0  0.4732500E-002  0.4550275E+03  0.7546771E-02  0.1026233E+00
         21   -1    0    0  502  501  0.00000000000E+00  0.00000000000E+00  0.10198032087E+03  0.10198032087E+03  0.00000000000E+00 0.  1.
         21   -1    0    0  501  502 -0.00000000000E+00 -0.00000000000E+00 -0.50757348271E+03  0.50757348271E+03  0.00000000000E+00 0.  1.
      99926    2    1    2    0    0 -0.88817841970E-15  0.14210854715E-13 -0.40559316183E+03  0.60955380358E+03  0.45502750086E+03 0.  0.
      99925    2    3    3    0    0 -0.69390355286E+01 -0.91750639201E+02 -0.34358129874E+03  0.44234342928E+03  0.26297009446E+03 0.  0.
         25    1    4    4    0    0  0.10858964561E+02 -0.35593009686E+02 -0.10897236729E+03  0.17002136449E+03  0.12509000000E+03 0.  0.
         25    1    4    4    0    0 -0.17798000089E+02 -0.56157629515E+02 -0.23460893144E+03  0.27232206479E+03  0.12509000000E+03 0.  0.
         25    1    3    3    0    0  0.69390355286E+01  0.91750639201E+02 -0.62011863094E+02  0.16721037430E+03  0.12509000000E+03 0.  0.
<mgrwt>
<rscale>  2 0.45502750E+03</rscale>
<asrwt>0</asrwt>
<pdfrwt beam="1">  1       21 0.14997106E-01 0.45502750E+03</pdfrwt>
<pdfrwt beam="2">  1       21 0.74643159E-01 0.45502750E+03</pdfrwt>
<totfact> 0.58081410E+04</totfact>
</mgrwt>
</event>
<event>
 7    0  0.4732500E-002  0.4539055E+03  0.7546771E-02  0.1026564E+00
         21   -1    0    0  502  501  0.00000000000E+00  0.00000000000E+00  0.14902815047E+03  0.14902815047E+03  0.00000000000E+00 0. -1.
         21   -1    0    0  501  502 -0.00000000000E+00 -0.00000000000E+00 -0.34562296246E+03  0.34562296246E+03  0.00000000000E+00 0. -1.
      99926    2    1    2    0    0  0.00000000000E+00  0.00000000000E+00 -0.19659481200E+03  0.49465111293E+03  0.45390550054E+03 0.  0.
      99925    2    3    3    0    0 -0.99314546673E+02 -0.51403833955E+02 -0.11842893723E+03  0.30954804595E+03  0.26322774598E+03 0.  0.
         25    1    4    4    0    0 -0.49608964641E+02 -0.15954542561E+02 -0.15421333545E+02  0.13638519872E+03  0.12509000000E+03 0.  0.
         25    1    4    4    0    0 -0.49705582032E+02 -0.35449291394E+02 -0.10300760368E+03  0.17316284723E+03  0.12509000000E+03 0.  0.
         25    1    3    3    0    0  0.99314546673E+02  0.51403833955E+02 -0.78165874765E+02  0.18510306698E+03  0.12509000000E+03 0.  0.
<mgrwt>
<rscale>  2 0.45390550E+03</rscale>
<asrwt>0</asrwt>
<pdfrwt beam="1">  1       21 0.21915905E-01 0.45390550E+03</pdfrwt>
<pdfrwt beam="2">  1       21 0.50826906E-01 0.45390550E+03</pdfrwt>
<totfact> 0.66221601E+04</totfact>
</mgrwt>
</event>
<event>
 7    0  0.4732500E-002  0.4536268E+03  0.7546771E-02  0.1026646E+00
         21   -1    0    0  502  501  0.00000000000E+00  0.00000000000E+00  0.12366600599E+03  0.12366600599E+03  0.00000000000E+00 0.  1.
         21   -1    0    0  501  502 -0.00000000000E+00 -0.00000000000E+00 -0.41599404142E+03  0.41599404142E+03  0.00000000000E+00 0.  1.
      99926    2    1    2    0    0  0.00000000000E+00  0.00000000000E+00 -0.29232803543E+03  0.53966004741E+03  0.45362681410E+03 0.  0.
      99925    2    3    3    0    0 -0.67686580173E+02  0.48197032357E+02 -0.94983938540E+02  0.29167491128E+03  0.26295984147E+03 0.  0.
         25    1    4    4    0    0 -0.32136941701E+02 -0.14368924005E+01 -0.12225833475E+02  0.12973753037E+03  0.12509000000E+03 0.  0.
         25    1    3    3    0    0  0.67686580173E+02 -0.48197032357E+02 -0.19734409689E+03  0.24798513613E+03  0.12509000000E+03 0.  0.
         25    1    4    4    0    0 -0.35549638472E+02  0.49633924758E+02 -0.82758105064E+02  0.16193738091E+03  0.12509000000E+03 0.  0.
<mgrwt>
<rscale>  2 0.45362681E+03</rscale>
<asrwt>0</asrwt>
<pdfrwt beam="1">  1       21 0.18186177E-01 0.45362681E+03</pdfrwt>
<pdfrwt beam="2">  1       21 0.61175594E-01 0.45362681E+03</pdfrwt>
<totfact> 0.63239448E+04</totfact>
</mgrwt>
</event>
<event>
 7    0  0.4732500E-002  0.4329401E+03  0.7546771E-02  0.1032935E+00
         21   -1    0    0  502  501  0.00000000000E+00  0.00000000000E+00  0.76389241851E+02  0.76389241851E+02  0.00000000000E+00 0.  1.
         21   -1    0    0  501  502 -0.00000000000E+00 -0.00000000000E+00 -0.61342771868E+03  0.61342771868E+03  0.00000000000E+00 0.  1.
      99926    2    1    2    0    0 -0.71054273576E-14  0.00000000000E+00 -0.53703847683E+03  0.68981696053E+03  0.43294008066E+03 0.  0.
      99925    2    3    3    0    0 -0.32321936390E+02  0.48897712188E+01 -0.20999859214E+03  0.33814778118E+03  0.26301310951E+03 0.  0.
         25    1    4    4    0    0 -0.31498750647E+02 -0.18063514779E+01 -0.58743345645E+02  0.14175232963E+03  0.12509000000E+03 0.  0.
         25    1    4    4    0    0 -0.82318574308E+00  0.66961226968E+01 -0.15125524650E+03  0.19639545155E+03  0.12509000000E+03 0.  0.
         25    1    3    3    0    0  0.32321936390E+02 -0.48897712188E+01 -0.32703988469E+03  0.35166917936E+03  0.12509000000E+03 0.  0.
<mgrwt>
<rscale>  2 0.43294008E+03</rscale>
<asrwt>0</asrwt>
<pdfrwt beam="1">  1       21 0.11233712E-01 0.43294008E+03</pdfrwt>
<pdfrwt beam="2">  1       21 0.90209959E-01 0.43294008E+03</pdfrwt>
<totfact> 0.63844531E+04</totfact>
</mgrwt>
</event>
<event>
 6    0  0.4732500E-002  0.4571964E+03  0.7546771E-02  0.1025597E+00
         21   -1    0    0  502  501  0.00000000000E+00  0.00000000000E+00  0.29774439339E+03  0.29774439339E+03  0.00000000000E+00 0.  1.
         21   -1    0    0  501  502 -0.00000000000E+00 -0.00000000000E+00 -0.17551006873E+03  0.17551006873E+03  0.00000000000E+00 0.  1.
      99926    2    1    2    0    0  0.00000000000E+00  0.00000000000E+00  0.12223432466E+03  0.47325446211E+03  0.45719640832E+03 0.  0.
         25    1    3    3    0    0  0.86985018058E+02 -0.33134775237E+02  0.14265643251E+02  0.15657369950E+03  0.12509000000E+03 0.  0.
         25    1    3    3    0    0  0.10479725266E+02 -0.20922377260E+02  0.24874199853E+02  0.12966805478E+03  0.12509000000E+03 0.  0.
         25    1    3    3    0    0 -0.97464743324E+02  0.54057152498E+02  0.83094481561E+02  0.18701270784E+03  0.12509000000E+03 0.  0.
<mgrwt>
<rscale>  2 0.45719641E+03</rscale>
<asrwt>0</asrwt>
<pdfrwt beam="1">  1       21 0.43785941E-01 0.45719641E+03</pdfrwt>
<pdfrwt beam="2">  1       21 0.25810304E-01 0.45719641E+03</pdfrwt>
<totfact> 0.66036218E+04</totfact>
</mgrwt>
</event>
<event>
 7    0  0.4732500E-002  0.4604460E+03  0.7546771E-02  0.1024652E+00
         21   -1    0    0  502  501  0.00000000000E+00  0.00000000000E+00  0.18607654395E+03  0.18607654395E+03  0.00000000000E+00 0.  1.
         21   -1    0    0  501  502 -0.00000000000E+00 -0.00000000000E+00 -0.28484312512E+03  0.28484312512E+03  0.00000000000E+00 0.  1.
      99926    2    1    2    0    0  0.00000000000E+00  0.00000000000E+00 -0.98766581173E+02  0.47091966907E+03  0.46044597637E+03 0.  0.
      99925    2    3    3    0    0  0.36977755475E+02  0.78345983784E+02  0.20344983183E+02  0.27768271495E+03  0.26303673558E+03 0.  0.
         25    1    4    4    0    0  0.10958335578E+02  0.57181676602E+02 -0.25474411133E+02  0.14030781511E+03  0.12509000000E+03 0.  0.
         25    1    3    3    0    0 -0.36977755475E+02 -0.78345983784E+02 -0.11911156436E+03  0.19323695412E+03  0.12509000000E+03 0.  0.
         25    1    4    4    0    0  0.26019419897E+02  0.21164307182E+02  0.45819394315E+02  0.13737489984E+03  0.12509000000E+03 0.  0.
<mgrwt>
<rscale>  2 0.46044598E+03</rscale>
<asrwt>0</asrwt>
<pdfrwt beam="1">  1       21 0.27364198E-01 0.46044598E+03</pdfrwt>
<pdfrwt beam="2">  1       21 0.41888695E-01 0.46044598E+03</pdfrwt>
<totfact> 0.64533894E+04</totfact>
</mgrwt>
</event>
<event>
 7    0  0.4732500E-002  0.4597697E+03  0.7546771E-02  0.1024848E+00
         21   -1    0    0  502  501  0.00000000000E+00  0.00000000000E+00  0.32428009041E+03  0.32428009041E+03  0.00000000000E+00 0. -1.
         21   -1    0    0  501  502 -0.00000000000E+00 -0.00000000000E+00 -0.16296726390E+03  0.16296726390E+03  0.00000000000E+00 0. -1.
      99926    2    1    2    0    0  0.35527136788E-14  0.14210854715E-13  0.16131282652E+03  0.48724735431E+03  0.45976967743E+03 0.  0.
      99925    2    3    3    0    0  0.20781723569E+02  0.10675816324E+03  0.53896612520E+02  0.28972536419E+03  0.26307177036E+03 0.  0.
         25    1    4    4    0    0  0.46351031505E+02  0.70712284193E+02  0.40884352916E+02  0.15642149363E+03  0.12509000000E+03 0.  0.
         25    1    3    3    0    0 -0.20781723569E+02 -0.10675816324E+03  0.10741621400E+03  0.19752199012E+03  0.12509000000E+03 0.  0.
         25    1    4    4    0    0 -0.25569307935E+02  0.36045879048E+02  0.13012259604E+02  0.13330387055E+03  0.12509000000E+03 0.  0.
<mgrwt>
<rscale>  2 0.45976968E+03</rscale>
<asrwt>0</asrwt>
<pdfrwt beam="1">  1       21 0.47688249E-01 0.45976968E+03</pdfrwt>
<pdfrwt beam="2">  1       21 0.23965774E-01 0.45976968E+03</pdfrwt>
<totfact> 0.63728850E+04</totfact>
</mgrwt>
</event>
<event>
 7    0  0.4732500E-002  0.4523396E+03  0.7546771E-02  0.1027027E+00
         21   -1    0    0  502  501  0.00000000000E+00  0.00000000000E+00  0.30227591420E+03  0.30227591420E+03  0.00000000000E+00 0.  1.
         21   -1    0    0  501  502 -0.00000000000E+00 -0.00000000000E+00 -0.16922545455E+03  0.16922545455E+03  0.00000000000E+00 0.  1.
      99926    2    1    2    0    0  0.00000000000E+00  0.00000000000E+00  0.13305045966E+03  0.47150136875E+03  0.45233960242E+03 0.  0.
      99925    2    3    3    0    0 -0.67072707187E+02  0.87758015499E+02  0.84869865983E+02  0.29780883857E+03  0.26322422541E+03 0.  0.
         25    1    4    4    0    0 -0.77026393027E+00  0.19841742323E+02  0.54460777345E+02  0.13786867815E+03  0.12509000000E+03 0.  0.
         25    1    4    4    0    0 -0.66302443257E+02  0.67916273176E+02  0.30409088637E+02  0.15994016042E+03  0.12509000000E+03 0.  0.
         25    1    3    3    0    0  0.67072707187E+02 -0.87758015499E+02  0.48180593675E+02  0.17369253018E+03  0.12509000000E+03 0.  0.
<mgrwt>
<rscale>  2 0.45233960E+03</rscale>
<asrwt>0</asrwt>
<pdfrwt beam="1">  1       21 0.44452340E-01 0.45233960E+03</pdfrwt>
<pdfrwt beam="2">  1       21 0.24886096E-01 0.45233960E+03</pdfrwt>
<totfact> 0.68764381E+04</totfact>
</mgrwt>
</event>
<event>
 7    0  0.4732500E-002  0.4542694E+03  0.7546771E-02  0.1026456E+00
         21   -1    0    0  502  501  0.00000000000E+00  0.00000000000E+00  0.15514756918E+04  0.15514756918E+04  0.00000000000E+00 0.  1.
         21   -1    0    0  501  502 -0.00000000000E+00 -0.00000000000E+00 -0.33252319659E+02  0.33252319659E+02  0.00000000000E+00 0.  1.
      99926    2    1    2    0    0  0.71054273576E-14  0.00000000000E+00  0.15182233722E+04  0.15847280115E+04  0.45426937228E+03 0.  0.
      99925    2    3    3    0    0 -0.36447297944E+02 -0.34199568100E+02  0.13076270477E+04  0.13347353397E+04  0.26292948691E+03 0.  0.
         25    1    4    4    0    0 -0.54188532721E+02 -0.26597235197E+02  0.59887056368E+03  0.61476602878E+03  0.12509000000E+03 0.  0.
         25    1    3    3    0    0  0.36447297944E+02  0.34199568100E+02  0.21059632448E+03  0.24999267183E+03  0.12509000000E+03 0.  0.
         25    1    4    4    0    0  0.17741234777E+02 -0.76023329030E+01  0.70875648401E+03  0.71996931088E+03  0.12509000000E+03 0.  0.
<mgrwt>
<rscale>  2 0.45426937E+03</rscale>
<asrwt>0</asrwt>
<pdfrwt beam="1">  1       21 0.22815814E+00 0.45426937E+03</pdfrwt>
<pdfrwt beam="2">  1       21 0.48900481E-02 0.45426937E+03</pdfrwt>
<totfact> 0.21900803E+04</totfact>
</mgrwt>
</event>
<event>
 7    0  0.4732500E-002  0.4587090E+03  0.7546771E-02  0.1025156E+00
         21   -1    0    0  502  501  0.00000000000E+00  0.00000000000E+00  0.19947037246E+04  0.19947037246E+04  0.00000000000E+00 0. -1.
         21   -1    0    0  501  502 -0.00000000000E+00 -0.00000000000E+00 -0.26371577290E+02  0.26371577290E+02  0.00000000000E+00 0. -1.
      99926    2    1    2    0    0  0.00000000000E+00  0.35527136788E-14  0.19683321473E+04  0.20210753019E+04  0.45870898594E+03 0.  0.
      99925    2    3    3    0    0  0.71789921752E+02 -0.28280337141E+02  0.16196156544E+04  0.16426519004E+04  0.26305289826E+03 0.  0.
         25    1    3    3    0    0 -0.71789921752E+02  0.28280337141E+02  0.34871649286E+03  0.37842340154E+03  0.12509000000E+03 0.  0.
         25    1    4    4    0    0  0.53427983060E+02  0.11856395470E+02  0.97643701882E+03  0.98593705849E+03  0.12509000000E+03 0.  0.
         25    1    4    4    0    0  0.18361938691E+02 -0.40136732611E+02  0.64317863563E+03  0.65671484187E+03  0.12509000000E+03 0.  0.
<mgrwt>
<rscale>  2 0.45870899E+03</rscale>
<asrwt>0</asrwt>
<pdfrwt beam="1">  1       21 0.29333868E+00 0.45870899E+03</pdfrwt>
<pdfrwt beam="2">  1       21 0.38781745E-02 0.45870899E+03</pdfrwt>
<totfact> 0.12990565E+04</totfact>
</mgrwt>
</event>
<event>
 7    0  0.4732500E-002  0.4557721E+03  0.7546771E-02  0.1026015E+00
         21   -1    0    0  502  501  0.00000000000E+00  0.00000000000E+00  0.16589763844E+03  0.16589763844E+03  0.00000000000E+00 0. -1.
         21   -1    0    0  501  502 -0.00000000000E+00 -0.00000000000E+00 -0.31303675616E+03  0.31303675616E+03  0.00000000000E+00 0. -1.
      99926    2    1    2    0    0  0.00000000000E+00  0.00000000000E+00 -0.14713911772E+03  0.47893439460E+03  0.45577212987E+03 0.  0.
      99925    2    3    3    0    0  0.50220080507E+02 -0.81340009603E+02 -0.15762037699E+03  0.32115094000E+03  0.26297431314E+03 0.  0.
         25    1    3    3    0    0 -0.50220080507E+02  0.81340009603E+02  0.10481259267E+02  0.15778345460E+03  0.12509000000E+03 0.  0.
         25    1    4    4    0    0  0.23111457126E+01 -0.43909669978E+02 -0.38607555584E+02  0.13809942781E+03  0.12509000000E+03 0.  0.
         25    1    4    4    0    0  0.47908934794E+02 -0.37430339626E+02 -0.11901282141E+03  0.18305151219E+03  0.12509000000E+03 0.  0.
<mgrwt>
<rscale>  2 0.45577213E+03</rscale>
<asrwt>0</asrwt>
<pdfrwt beam="1">  1       21 0.24396712E-01 0.45577213E+03</pdfrwt>
<pdfrwt beam="2">  1       21 0.46034816E-01 0.45577213E+03</pdfrwt>
<totfact> 0.66370068E+04</totfact>
</mgrwt>
</event>
<event>
 7    0  0.4732500E-002  0.4497241E+03  0.7546771E-02  0.1027804E+00
         21   -1    0    0  502  501  0.00000000000E+00  0.00000000000E+00  0.85811302609E+02  0.85811302609E+02  0.00000000000E+00 0. -1.
         21   -1    0    0  501  502 -0.00000000000E+00 -0.00000000000E+00 -0.58923417008E+03  0.58923417008E+03  0.00000000000E+00 0. -1.
      99926    2    1    2    0    0  0.00000000000E+00  0.14210854715E-13 -0.50342286747E+03  0.67504547269E+03  0.44972414512E+03 0.  0.
      99925    2    3    3    0    0  0.70801370712E+02  0.69147091339E+02 -0.38460437075E+03  0.47614977741E+03  0.26268599924E+03 0.  0.
         25    1    3    3    0    0 -0.70801370712E+02 -0.69147091339E+02 -0.11881849672E+03  0.19889569527E+03  0.12509000000E+03 0.  0.
         25    1    4    4    0    0  0.24769756646E+02  0.55454196051E+01 -0.22511383741E+03  0.25878183942E+03  0.12509000000E+03 0.  0.
         25    1    4    4    0    0  0.46031614066E+02  0.63601671734E+02 -0.15949053334E+03  0.21736793799E+03  0.12509000000E+03 0.  0.
<mgrwt>
<rscale>  2 0.44972415E+03</rscale>
<asrwt>0</asrwt>
<pdfrwt beam="1">  1       21 0.12619309E-01 0.44972415E+03</pdfrwt>
<pdfrwt beam="2">  1       21 0.86652086E-01 0.44972415E+03</pdfrwt>
<totfact> 0.56594567E+04</totfact>
</mgrwt>
</event>
<event>
 7    0  0.4732500E-002  0.4536551E+03  0.7546771E-02  0.1026638E+00
         21   -1    0    0  502  501  0.00000000000E+00  0.00000000000E+00  0.67417644155E+03  0.67417644155E+03  0.00000000000E+00 0. -1.
         21   -1    0    0  501  502 -0.00000000000E+00 -0.00000000000E+00 -0.76316416009E+02  0.76316416009E+02  0.00000000000E+00 0. -1.
      99926    2    1    2    0    0  0.00000000000E+00  0.00000000000E+00  0.59786002554E+03  0.75049285756E+03  0.45365506622E+03 0.  0.
      99925    2    3    3    0    0  0.78582793627E+02  0.32244184807E+02  0.49762893723E+03  0.56908524451E+03  0.26269471530E+03 0.  0.
         25    1    4    4    0    0  0.75802749128E+02  0.36889814353E+02  0.27630874663E+03  0.31480302848E+03  0.12509000000E+03 0.  0.
         25    1    4    4    0    0  0.27800444982E+01 -0.46456295458E+01  0.22132019060E+03  0.25428221603E+03  0.12509000000E+03 0.  0.
         25    1    3    3    0    0 -0.78582793627E+02 -0.32244184807E+02  0.10023108832E+03  0.18140761305E+03  0.12509000000E+03 0.  0.
<mgrwt>
<rscale>  2 0.45365507E+03</rscale>
<asrwt>0</asrwt>
<pdfrwt beam="1">  1       21 0.99143591E-01 0.45365507E+03</pdfrwt>
<pdfrwt beam="2">  1       21 0.11223003E-01 0.45365507E+03</pdfrwt>
<totfact> 0.50780421E+04</totfact>
</mgrwt>
</event>
<event>
 7    0  0.4732500E-002  0.4642885E+03  0.7546771E-02  0.1023545E+00
         21   -1    0    0  502  501  0.00000000000E+00  0.00000000000E+00  0.13835054568E+03  0.13835054568E+03  0.00000000000E+00 0. -1.
         21   -1    0    0  501  502 -0.00000000000E+00 -0.00000000000E+00 -0.38952467298E+03  0.38952467298E+03  0.00000000000E+00 0. -1.
      99926    2    1    2    0    0 -0.14210854715E-13 -0.71054273576E-14 -0.25117412730E+03  0.52787521866E+03  0.46428849249E+03 0.  0.
      99925    2    3    3    0    0  0.10557056259E+03  0.59140184038E+02 -0.14167829824E+03  0.32225530296E+03  0.26293161666E+03 0.  0.
         25    1    4    4    0    0  0.60627227196E+02  0.60702433556E+02 -0.46105604628E+02  0.15853605582E+03  0.12509000000E+03 0.  0.
         25    1    4    4    0    0  0.44943335392E+02 -0.15622495187E+01 -0.95572693616E+02  0.16371924714E+03  0.12509000000E+03 0.  0.
         25    1    3    3    0    0 -0.10557056259E+03 -0.59140184038E+02 -0.10949582905E+03  0.20561991570E+03  0.12509000000E+03 0.  0.
<mgrwt>
<rscale>  2 0.46428849E+03</rscale>
<asrwt>0</asrwt>
<pdfrwt beam="1">  1       21 0.20345669E-01 0.46428849E+03</pdfrwt>
<pdfrwt beam="2">  1       21 0.57283039E-01 0.46428849E+03</pdfrwt>
<totfact> 0.58892855E+04</totfact>
</mgrwt>
</event>
<event>
 7    0  0.4732500E-002  0.4620083E+03  0.7546771E-02  0.1024200E+00
         21   -1    0    0  502  501  0.00000000000E+00  0.00000000000E+00  0.31954889477E+02  0.31954889477E+02  0.00000000000E+00 0. -1.
         21   -1    0    0  501  502 -0.00000000000E+00 -0.00000000000E+00 -0.16699451900E+04  0.16699451900E+04  0.00000000000E+00 0. -1.
      99926    2    1    2    0    0  0.88817841970E-15  0.00000000000E+00 -0.16379903005E+04  0.17019000795E+04  0.46200828555E+03 0.  0.
      99925    2    3    3    0    0  0.76606896627E+01 -0.11826401189E+03 -0.10793841266E+04  0.11173203772E+04  0.26322931042E+03 0.  0.
         25    1    3    3    0    0 -0.76606896627E+01  0.11826401189E+03 -0.55860617390E+03  0.58457970226E+03  0.12509000000E+03 0.  0.
         25    1    4    4    0    0  0.33440182710E+02 -0.77275347110E+02 -0.66007460578E+03  0.67707881254E+03  0.12509000000E+03 0.  0.
         25    1    4    4    0    0 -0.25779493047E+02 -0.40988664785E+02 -0.41930952084E+03  0.44024156468E+03  0.12509000000E+03 0.  0.
<mgrwt>
<rscale>  2 0.46200829E+03</rscale>
<asrwt>0</asrwt>
<pdfrwt beam="1">  1       21 0.46992478E-02 0.46200829E+03</pdfrwt>
<pdfrwt beam="2">  1       21 0.24558021E+00 0.46200829E+03</pdfrwt>
<totfact> 0.18210926E+04</totfact>
</mgrwt>
</event>
<event>
 7    0  0.4732500E-002  0.4566715E+03  0.7546771E-02  0.1025751E+00
         21   -1    0    0  502  501  0.00000000000E+00  0.00000000000E+00  0.56821764230E+02  0.56821764230E+02  0.00000000000E+00 0.  1.
         21   -1    0    0  501  502 -0.00000000000E+00 -0.00000000000E+00 -0.91755730999E+03  0.91755730999E+03  0.00000000000E+00 0.  1.
      99926    2    1    2    0    0  0.14210854715E-13  0.17763568394E-14 -0.86073554576E+03  0.97437907422E+03  0.45667154558E+03 0.  0.
      99925    2    3    3    0    0 -0.11290010866E+03  0.12507449805E+02 -0.57605323269E+03  0.64332862745E+03  0.26292874541E+03 0.  0.
         25    1    4    4    0    0 -0.39932707537E+02 -0.23411709135E+02 -0.32468811541E+03  0.35101653757E+03  0.12509000000E+03 0.  0.
         25    1    4    4    0    0 -0.72967401118E+02  0.35919158940E+02 -0.25136511728E+03  0.29231208988E+03  0.12509000000E+03 0.  0.
         25    1    3    3    0    0  0.11290010866E+03 -0.12507449805E+02 -0.28468231307E+03  0.33105044677E+03  0.12509000000E+03 0.  0.
<mgrwt>
<rscale>  2 0.45667155E+03</rscale>
<asrwt>0</asrwt>
<pdfrwt beam="1">  1       21 0.83561419E-02 0.45667155E+03</pdfrwt>
<pdfrwt beam="2">  1       21 0.13493490E+00 0.45667155E+03</pdfrwt>
<totfact> 0.39648408E+04</totfact>
</mgrwt>
</event>
<event>
 7    0  0.4732500E-002  0.4537602E+03  0.7546771E-02  0.1026607E+00
         21   -1    0    0  502  501  0.00000000000E+00  0.00000000000E+00  0.31122165686E+03  0.31122165686E+03  0.00000000000E+00 0. -1.
         21   -1    0    0  501  502 -0.00000000000E+00 -0.00000000000E+00 -0.16539526635E+03  0.16539526635E+03  0.00000000000E+00 0. -1.
      99926    2    1    2    0    0 -0.71054273576E-14  0.00000000000E+00  0.14582639051E+03  0.47661692321E+03  0.45376023991E+03 0.  0.
      99925    2    3    3    0    0 -0.56110023127E+02 -0.48465526596E+02  0.36962937195E+01  0.27328046687E+03  0.26300438974E+03 0.  0.
         25    1    3    3    0    0  0.56110023127E+02  0.48465526596E+02  0.14213009679E+03  0.20333645634E+03  0.12509000000E+03 0.  0.
         25    1    4    4    0    0 -0.28144950791E+02  0.13175855056E+02  0.18780303467E+02  0.13025340422E+03  0.12509000000E+03 0.  0.
         25    1    4    4    0    0 -0.27965072336E+02 -0.61641381652E+02 -0.15084009747E+02  0.14302706266E+03  0.12509000000E+03 0.  0.
<mgrwt>
<rscale>  2 0.45376024E+03</rscale>
<asrwt>0</asrwt>
<pdfrwt beam="1">  1       21 0.45767891E-01 0.45376024E+03</pdfrwt>
<pdfrwt beam="2">  1       21 0.24322833E-01 0.45376024E+03</pdfrwt>
<totfact> 0.67610002E+04</totfact>
</mgrwt>
</event>
<event>
 7    0  0.4732500E-002  0.4544078E+03  0.7546771E-02  0.1026416E+00
         21   -1    0    0  502  501  0.00000000000E+00  0.00000000000E+00  0.38066350277E+03  0.38066350277E+03  0.00000000000E+00 0. -1.
         21   -1    0    0  501  502 -0.00000000000E+00 -0.00000000000E+00 -0.13560959016E+03  0.13560959016E+03  0.00000000000E+00 0. -1.
      99926    2    1    2    0    0  0.00000000000E+00 -0.35527136788E-14  0.24505391260E+03  0.51627309293E+03  0.45440784148E+03 0.  0.
      99925    2    3    3    0    0  0.10348611552E+03 -0.22308077849E+02  0.11029330139E+03  0.30410580780E+03  0.26288534300E+03 0.  0.
         25    1    4    4    0    0  0.84596396856E+02 -0.32159676262E+02  0.78902418438E+02  0.17338943126E+03  0.12509000000E+03 0.  0.
         25    1    4    4    0    0  0.18889718669E+02  0.98515984137E+01  0.31390882952E+02  0.13071637654E+03  0.12509000000E+03 0.  0.
         25    1    3    3    0    0 -0.10348611552E+03  0.22308077849E+02  0.13476061121E+03  0.21216728513E+03  0.12509000000E+03 0.  0.
<mgrwt>
<rscale>  2 0.45440784E+03</rscale>
<asrwt>0</asrwt>
<pdfrwt beam="1">  1       21 0.55979926E-01 0.45440784E+03</pdfrwt>
<pdfrwt beam="2">  1       21 0.19942587E-01 0.45440784E+03</pdfrwt>
<totfact> 0.64444165E+04</totfact>
</mgrwt>
</event>
<event>
 7    0  0.4732500E-002  0.4541955E+03  0.7546771E-02  0.1026478E+00
         21   -1    0    0  502  501  0.00000000000E+00  0.00000000000E+00  0.32966543309E+03  0.32966543309E+03  0.00000000000E+00 0.  1.
         21   -1    0    0  501  502 -0.00000000000E+00 -0.00000000000E+00 -0.15644157273E+03  0.15644157273E+03  0.00000000000E+00 0.  1.
      99926    2    1    2    0    0  0.00000000000E+00  0.00000000000E+00  0.17322386036E+03  0.48610700582E+03  0.45419545936E+03 0.  0.
      99925    2    3    3    0    0  0.65992604082E+02 -0.70141937906E+02  0.47059151928E+02  0.28401802294E+03  0.26301474926E+03 0.  0.
         25    1    4    4    0    0  0.23378139744E+02 -0.31515309224E+01 -0.38585858494E+01  0.12735331307E+03  0.12509000000E+03 0.  0.
         25    1    4    4    0    0  0.42614464337E+02 -0.66990406984E+02  0.50917737777E+02  0.15666470987E+03  0.12509000000E+03 0.  0.
         25    1    3    3    0    0 -0.65992604082E+02  0.70141937906E+02  0.12616470843E+03  0.20208898288E+03  0.12509000000E+03 0.  0.
<mgrwt>
<rscale>  2 0.45419546E+03</rscale>
<asrwt>0</asrwt>
<pdfrwt beam="1">  1       21 0.48480211E-01 0.45419546E+03</pdfrwt>
<pdfrwt beam="2">  1       21 0.23006114E-01 0.45419546E+03</pdfrwt>
<totfact> 0.66683052E+04</totfact>
</mgrwt>
</event>
<event>
 7    0  0.4732500E-002  0.4493897E+03  0.7546771E-02  0.1027904E+00
         21   -1    0    0  502  501  0.00000000000E+00  0.00000000000E+00  0.20470110098E+03  0.20470110098E+03  0.00000000000E+00 0. -1.
         21   -1    0    0  501  502 -0.00000000000E+00 -0.00000000000E+00 -0.24664148991E+03  0.24664148991E+03  0.00000000000E+00 0. -1.
      99926    2    1    2    0    0  0.35527136788E-14  0.00000000000E+00 -0.41940388923E+02  0.45134259089E+03  0.44938973968E+03 0.  0.
      99925    2    3    3    0    0  0.13750946359E+02  0.77850284718E+02  0.47110575121E+02  0.27863666263E+03  0.26300043369E+03 0.  0.
         25    1    3    3    0    0 -0.13750946359E+02 -0.77850284718E+02 -0.89050964045E+02  0.17270592825E+03  0.12509000000E+03 0.  0.
         25    1    4    4    0    0 -0.23883376858E+02  0.62597626630E+02  0.11407833575E+02  0.14236054691E+03  0.12509000000E+03 0.  0.
         25    1    4    4    0    0  0.37634323217E+02  0.15252658089E+02  0.35702741547E+02  0.13627611572E+03  0.12509000000E+03 0.  0.
<mgrwt>
<rscale>  2 0.44938974E+03</rscale>
<asrwt>0</asrwt>
<pdfrwt beam="1">  1       21 0.30103103E-01 0.44938974E+03</pdfrwt>
<pdfrwt beam="2">  1       21 0.36270807E-01 0.44938974E+03</pdfrwt>
<totfact> 0.71983130E+04</totfact>
</mgrwt>
</event>
<event>
 7    0  0.4732500E-002  0.4524803E+03  0.7546771E-02  0.1026985E+00
         21   -1    0    0  502  501  0.00000000000E+00  0.00000000000E+00  0.49225670994E+02  0.49225670994E+02  0.00000000000E+00 0. -1.
         21   -1    0    0  501  502 -0.00000000000E+00 -0.00000000000E+00 -0.10397949743E+04  0.10397949743E+04  0.00000000000E+00 0. -1.
      99926    2    1    2    0    0 -0.14210854715E-13  0.00000000000E+00 -0.99056930331E+03  0.10890206453E+04  0.45248029927E+03 0.  0.
      99925    2    3    3    0    0  0.94979523722E+02 -0.34261434800E+02 -0.73459620014E+03  0.78675471357E+03  0.26297613240E+03 0.  0.
         25    1    4    4    0    0  0.83810379588E+02 -0.10580819276E+02 -0.45375125668E+03  0.47819854089E+03  0.12509000000E+03 0.  0.
         25    1    4    4    0    0  0.11169144134E+02 -0.23680615523E+02 -0.28084494346E+03  0.30855617268E+03  0.12509000000E+03 0.  0.
         25    1    3    3    0    0 -0.94979523722E+02  0.34261434800E+02 -0.25597310317E+03  0.30226593173E+03  0.12509000000E+03 0.  0.
<mgrwt>
<rscale>  2 0.45248030E+03</rscale>
<asrwt>0</asrwt>
<pdfrwt beam="1">  1       21 0.72390692E-02 0.45248030E+03</pdfrwt>
<pdfrwt beam="2">  1       21 0.15291103E+00 0.45248030E+03</pdfrwt>
<totfact> 0.36591358E+04</totfact>
</mgrwt>
</event>
<event>
 7    0  0.4732500E-002  0.4565901E+03  0.7546771E-02  0.1025775E+00
         21   -1    0    0  502  501  0.00000000000E+00  0.00000000000E+00  0.32737542439E+02  0.32737542439E+02  0.00000000000E+00 0. -1.
         21   -1    0    0  501  502 -0.00000000000E+00 -0.00000000000E+00 -0.15920141594E+04  0.15920141594E+04  0.00000000000E+00 0. -1.
      99926    2    1    2    0    0  0.00000000000E+00  0.00000000000E+00 -0.15592766170E+04  0.16247517018E+04  0.45659010548E+03 0.  0.
      99925    2    3    3    0    0  0.84989418135E+02 -0.51951266322E+02 -0.11821992507E+04  0.12151702282E+04  0.26290964224E+03 0.  0.
         25    1    3    3    0    0 -0.84989418135E+02  0.51951266322E+02 -0.37707736627E+03  0.40958147360E+03  0.12509000000E+03 0.  0.
         25    1    4    4    0    0  0.84708525111E+01 -0.17669391475E+01 -0.57374890567E+03  0.58729055183E+03  0.12509000000E+03 0.  0.
         25    1    4    4    0    0  0.76518565624E+02 -0.50184327174E+02 -0.60845034502E+03  0.62787967640E+03  0.12509000000E+03 0.  0.
<mgrwt>
<rscale>  2 0.45659011E+03</rscale>
<asrwt>0</asrwt>
<pdfrwt beam="1">  1       21 0.48143427E-02 0.45659011E+03</pdfrwt>
<pdfrwt beam="2">  1       21 0.23411982E+00 0.45659011E+03</pdfrwt>
<totfact> 0.20620403E+04</totfact>
</mgrwt>
</event>
<event>
 7    0  0.4732500E-002  0.4571970E+03  0.7546771E-02  0.1025597E+00
         21   -1    0    0  502  501  0.00000000000E+00  0.00000000000E+00  0.79481348972E+02  0.79481348972E+02  0.00000000000E+00 0. -1.
         21   -1    0    0  501  502 -0.00000000000E+00 -0.00000000000E+00 -0.65747838034E+03  0.65747838034E+03  0.00000000000E+00 0. -1.
      99926    2    1    2    0    0 -0.35527136788E-14  0.00000000000E+00 -0.57799703137E+03  0.73695972931E+03  0.45719697545E+03 0.  0.
      99925    2    3    3    0    0 -0.27380016594E+02  0.63796221497E+02 -0.51000240120E+03  0.57856023115E+03  0.26421557232E+03 0.  0.
         25    1    4    4    0    0 -0.15726115300E+02  0.51066067259E+02 -0.34453129180E+03  0.37041108658E+03  0.12509000000E+03 0.  0.
         25    1    4    4    0    0 -0.11653901294E+02  0.12730154238E+02 -0.16547110940E+03  0.20814914457E+03  0.12509000000E+03 0.  0.
         25    1    3    3    0    0  0.27380016594E+02 -0.63796221497E+02 -0.67994630170E+02  0.15839949816E+03  0.12509000000E+03 0.  0.
<mgrwt>
<rscale>  2 0.45719698E+03</rscale>
<asrwt>0</asrwt>
<pdfrwt beam="1">  1       21 0.11688434E-01 0.45719698E+03</pdfrwt>
<pdfrwt beam="2">  1       21 0.96687991E-01 0.45719698E+03</pdfrwt>
<totfact> 0.50071313E+04</totfact>
</mgrwt>
</event>
<event>
 7    0  0.4732500E-002  0.4468041E+03  0.7546771E-02  0.1028679E+00
         21   -1    0    0  502  501  0.00000000000E+00  0.00000000000E+00  0.35440254941E+03  0.35440254941E+03  0.00000000000E+00 0.  1.
         21   -1    0    0  501  502 -0.00000000000E+00 -0.00000000000E+00 -0.14082426477E+03  0.14082426477E+03  0.00000000000E+00 0.  1.
      99926    2    1    2    0    0 -0.71054273576E-14  0.14210854715E-13  0.21357828464E+03  0.49522681418E+03  0.44680411123E+03 0.  0.
      99925    2    3    3    0    0  0.52811221599E+02 -0.89919569530E+02  0.15137135666E+03  0.32089447610E+03  0.26303122070E+03 0.  0.
         25    1    4    4    0    0  0.94275628584E+01 -0.79456127693E+02  0.97104869529E+02  0.17742327625E+03  0.12509000000E+03 0.  0.
         25    1    4    4    0    0  0.43383658741E+02 -0.10463441837E+02  0.54266487130E+02  0.14347119985E+03  0.12509000000E+03 0.  0.
         25    1    3    3    0    0 -0.52811221599E+02  0.89919569530E+02  0.62206927977E+02  0.17433233808E+03  0.12509000000E+03 0.  0.
<mgrwt>
<rscale>  2 0.44680411E+03</rscale>
<asrwt>0</asrwt>
<pdfrwt beam="1">  1       21 0.52118022E-01 0.44680411E+03</pdfrwt>
<pdfrwt beam="2">  1       21 0.20709451E-01 0.44680411E+03</pdfrwt>
<totfact> 0.70055312E+04</totfact>
</mgrwt>
</event>
<event>
 7    0  0.4732500E-002  0.4561460E+03  0.7546771E-02  0.1025905E+00
         21   -1    0    0  502  501  0.00000000000E+00  0.00000000000E+00  0.17673207019E+03  0.17673207019E+03  0.00000000000E+00 0.  1.
         21   -1    0    0  501  502 -0.00000000000E+00 -0.00000000000E+00 -0.29432855243E+03  0.29432855243E+03  0.00000000000E+00 0.  1.
      99926    2    1    2    0    0  0.00000000000E+00  0.00000000000E+00 -0.11759648224E+03  0.47106062262E+03  0.45614600464E+03 0.  0.
      99925    2    3    3    0    0 -0.39448894992E+02  0.96932313861E+02 -0.12117778581E+03  0.30792747877E+03  0.26302697129E+03 0.  0.
         25    1    4    4    0    0 -0.18138434570E+02  0.67785062419E+01 -0.66201813070E+02  0.14284655792E+03  0.12509000000E+03 0.  0.
         25    1    3    3    0    0  0.39448894992E+02 -0.96932313861E+02  0.35813035674E+01  0.16313314385E+03  0.12509000000E+03 0.  0.
         25    1    4    4    0    0 -0.21310460422E+02  0.90153807620E+02 -0.54975972737E+02  0.16508092085E+03  0.12509000000E+03 0.  0.
<mgrwt>
<rscale>  2 0.45614600E+03</rscale>
<asrwt>0</asrwt>
<pdfrwt beam="1">  1       21 0.25990010E-01 0.45614600E+03</pdfrwt>
<pdfrwt beam="2">  1       21 0.43283611E-01 0.45614600E+03</pdfrwt>
<totfact> 0.66748014E+04</totfact>
</mgrwt>
</event>
<event>
 7    0  0.4732500E-002  0.4594814E+03  0.7546771E-02  0.1024932E+00
         21   -1    0    0  502  501  0.00000000000E+00  0.00000000000E+00  0.60596410701E+02  0.60596410701E+02  0.00000000000E+00 0.  1.
         21   -1    0    0  501  502 -0.00000000000E+00 -0.00000000000E+00 -0.87102177813E+03  0.87102177813E+03  0.00000000000E+00 0.  1.
      99926    2    1    2    0    0 -0.14210854715E-13  0.88817841970E-15 -0.81042536742E+03  0.93161818883E+03  0.45948141811E+03 0.  0.
      99925    2    3    3    0    0 -0.92443964607E+02  0.70438103041E+01 -0.65376256116E+03  0.71074210406E+03  0.26297024594E+03 0.  0.
         25    1    4    4    0    0 -0.74855037706E+01  0.64655845526E+01 -0.34070067233E+03  0.36307339861E+03  0.12509000000E+03 0.  0.
         25    1    3    3    0    0  0.92443964607E+02 -0.70438103041E+01 -0.15666280627E+03  0.22087608477E+03  0.12509000000E+03 0.  0.
         25    1    4    4    0    0 -0.84958460836E+02  0.57822575148E+00 -0.31306188883E+03  0.34766870545E+03  0.12509000000E+03 0.  0.
<mgrwt>
<rscale>  2 0.45948142E+03</rscale>
<asrwt>0</asrwt>
<pdfrwt beam="1">  1       21 0.89112363E-02 0.45948142E+03</pdfrwt>
<pdfrwt beam="2">  1       21 0.12809145E+00 0.45948142E+03</pdfrwt>
<totfact> 0.40457406E+04</totfact>
</mgrwt>
</event>
<event>
 7    0  0.4732500E-002  0.4539513E+03  0.7546771E-02  0.1026550E+00
         21   -1    0    0  502  501  0.00000000000E+00  0.00000000000E+00  0.19053179965E+03  0.19053179965E+03  0.00000000000E+00 0.  1.
         21   -1    0    0  501  502 -0.00000000000E+00 -0.00000000000E+00 -0.27039025330E+03  0.27039025330E+03  0.00000000000E+00 0.  1.
      99926    2    1    2    0    0 -0.35527136788E-14  0.00000000000E+00 -0.79858453644E+02  0.46092205295E+03  0.45395128183E+03 0.  0.
      99925    2    3    3    0    0  0.28722834096E+02  0.80754268008E+01 -0.16021472463E+03  0.30928151713E+03  0.26286134203E+03 0.  0.
         25    1    4    4    0    0  0.23613558585E+02  0.17672405326E+02 -0.37901103809E+02  0.13399222302E+03  0.12509000000E+03 0.  0.
         25    1    4    4    0    0  0.51092755109E+01 -0.95969785251E+01 -0.12231362082E+03  0.17528929411E+03  0.12509000000E+03 0.  0.
         25    1    3    3    0    0 -0.28722834096E+02 -0.80754268008E+01  0.80356270983E+02  0.15164053582E+03  0.12509000000E+03 0.  0.
<mgrwt>
<rscale>  2 0.45395128E+03</rscale>
<asrwt>0</asrwt>
<pdfrwt beam="1">  1       21 0.28019382E-01 0.45395128E+03</pdfrwt>
<pdfrwt beam="2">  1       21 0.39763273E-01 0.45395128E+03</pdfrwt>
<totfact> 0.68684707E+04</totfact>
</mgrwt>
</event>
<event>
 7    0  0.4732500E-002  0.4483193E+03  0.7546771E-02  0.1028224E+00
         21   -1    0    0  502  501  0.00000000000E+00  0.00000000000E+00  0.22703706667E+03  0.22703706667E+03  0.00000000000E+00 0.  1.
         21   -1    0    0  501  502 -0.00000000000E+00 -0.00000000000E+00 -0.22131869868E+03  0.22131869868E+03  0.00000000000E+00 0.  1.
      99926    2    1    2    0    0  0.00000000000E+00  0.00000000000E+00  0.57183679892E+01  0.44835576536E+03  0.44831929759E+03 0.  0.
      99925    2    3    3    0    0 -0.82268527949E+02  0.53838903820E+01 -0.64338020808E+02  0.28296984492E+03  0.26293621897E+03 0.  0.
         25    1    4    4    0    0 -0.25912335081E+02  0.31146639775E+02 -0.58568560119E+01  0.13161828574E+03  0.12509000000E+03 0.  0.
         25    1    4    4    0    0 -0.56356192867E+02 -0.25762749393E+02 -0.58481164796E+02  0.15135155918E+03  0.12509000000E+03 0.  0.
         25    1    3    3    0    0  0.82268527949E+02 -0.53838903820E+01  0.70056388798E+02  0.16538592043E+03  0.12509000000E+03 0.  0.
<mgrwt>
<rscale>  2 0.44831930E+03</rscale>
<asrwt>0</asrwt>
<pdfrwt beam="1">  1       21 0.33387804E-01 0.44831930E+03</pdfrwt>
<pdfrwt beam="2">  1       21 0.32546867E-01 0.44831930E+03</pdfrwt>
<totfact> 0.72841372E+04</totfact>
</mgrwt>
</event>
<event>
 7    0  0.4732500E-002  0.4528042E+03  0.7546771E-02  0.1026889E+00
         21   -1    0    0  502  501  0.00000000000E+00  0.00000000000E+00  0.26757092944E+03  0.26757092944E+03  0.00000000000E+00 0. -1.
         21   -1    0    0  501  502 -0.00000000000E+00 -0.00000000000E+00 -0.19156753153E+03  0.19156753153E+03  0.00000000000E+00 0. -1.
      99926    2    1    2    0    0  0.00000000000E+00  0.00000000000E+00  0.76003397917E+02  0.45913846097E+03  0.45280416280E+03 0.  0.
      99925    2    3    3    0    0  0.13090302224E+02  0.33702733824E+02  0.15431589390E+03  0.30719246594E+03  0.26314746007E+03 0.  0.
         25    1    4    4    0    0  0.83817735115E+01  0.22404633418E+02  0.30919714531E+02  0.13105631832E+03  0.12509000000E+03 0.  0.
         25    1    4    4    0    0  0.47085287125E+01  0.11298100406E+02  0.12339617937E+03  0.17613614762E+03  0.12509000000E+03 0.  0.
         25    1    3    3    0    0 -0.13090302224E+02 -0.33702733824E+02 -0.78312495979E+02  0.15194599503E+03  0.12509000000E+03 0.  0.
<mgrwt>
<rscale>  2 0.45280416E+03</rscale>
<asrwt>0</asrwt>
<pdfrwt beam="1">  1       21 0.39348666E-01 0.45280416E+03</pdfrwt>
<pdfrwt beam="2">  1       21 0.28171696E-01 0.45280416E+03</pdfrwt>
<totfact> 0.69451501E+04</totfact>
</mgrwt>
</event>
<event>
 7    0  0.4732500E-002  0.4542974E+03  0.7546771E-02  0.1026448E+00
         21   -1    0    0  502  501  0.00000000000E+00  0.00000000000E+00  0.18475212937E+03  0.18475212937E+03  0.00000000000E+00 0.  1.
         21   -1    0    0  501  502 -0.00000000000E+00 -0.00000000000E+00 -0.27927435733E+03  0.27927435733E+03  0.00000000000E+00 0.  1.
      99926    2    1    2    0    0 -0.35527136788E-14  0.00000000000E+00 -0.94522227965E+02  0.46402648670E+03  0.45429740125E+03 0.  0.
      99925    2    3    3    0    0 -0.24382996258E+02  0.57884505924E+02 -0.15624868526E+03  0.31104671627E+03  0.26151722988E+03 0.  0.
         25    1    3    3    0    0  0.24382996258E+02 -0.57884505924E+02  0.61726457291E+02  0.15297977043E+03  0.12509000000E+03 0.  0.
         25    1    4    4    0    0  0.12761077050E+01  0.48568203595E+02 -0.45313412089E+02  0.14163796195E+03  0.12509000000E+03 0.  0.
         25    1    4    4    0    0 -0.25659103963E+02  0.93163023291E+01 -0.11093527317E+03  0.16940875431E+03  0.12509000000E+03 0.  0.
<mgrwt>
<rscale>  2 0.45429740E+03</rscale>
<asrwt>0</asrwt>
<pdfrwt beam="1">  1       21 0.27169431E-01 0.45429740E+03</pdfrwt>
<pdfrwt beam="2">  1       21 0.41069758E-01 0.45429740E+03</pdfrwt>
<totfact> 0.68263004E+04</totfact>
</mgrwt>
</event>
<event>
 7    0  0.4732500E-002  0.4536989E+03  0.7546771E-02  0.1026625E+00
         21   -1    0    0  502  501  0.00000000000E+00  0.00000000000E+00  0.39444186140E+02  0.39444186140E+02  0.00000000000E+00 0. -1.
         21   -1    0    0  501  502 -0.00000000000E+00 -0.00000000000E+00 -0.13046451387E+04  0.13046451387E+04  0.00000000000E+00 0. -1.
      99926    2    1    2    0    0  0.00000000000E+00  0.44408920985E-15 -0.12652009525E+04  0.13440893248E+04  0.45369886796E+03 0.  0.
      99925    2    3    3    0    0  0.82393712400E+02  0.22719793446E+01 -0.10210087464E+04  0.10576085621E+04  0.26321687790E+03 0.  0.
         25    1    3    3    0    0 -0.82393712400E+02 -0.22719793446E+01 -0.24419220618E+03  0.28648076270E+03  0.12509000000E+03 0.  0.
         25    1    4    4    0    0  0.17402456197E+02 -0.48811616466E+01 -0.61245482140E+03  0.62535996640E+03  0.12509000000E+03 0.  0.
         25    1    4    4    0    0  0.64991256202E+02  0.71531409912E+01 -0.40855392496E+03  0.43224859572E+03  0.12509000000E+03 0.  0.
<mgrwt>
<rscale>  2 0.45369887E+03</rscale>
<asrwt>0</asrwt>
<pdfrwt beam="1">  1       21 0.58006156E-02 0.45369887E+03</pdfrwt>
<pdfrwt beam="2">  1       21 0.19185958E+00 0.45369887E+03</pdfrwt>
<totfact> 0.28144296E+04</totfact>
</mgrwt>
</event>
<event>
 7    0  0.4732500E-002  0.4532068E+03  0.7546771E-02  0.1026770E+00
         21   -1    0    0  502  501  0.00000000000E+00  0.00000000000E+00  0.70787299735E+02  0.70787299735E+02  0.00000000000E+00 0. -1.
         21   -1    0    0  501  502 -0.00000000000E+00 -0.00000000000E+00 -0.72539983136E+03  0.72539983136E+03  0.00000000000E+00 0. -1.
      99926    2    1    2    0    0 -0.35527136788E-14  0.00000000000E+00 -0.65461253163E+03  0.79618713110E+03  0.45320677528E+03 0.  0.
      99925    2    3    3    0    0  0.18386670108E+02  0.17052965771E+02 -0.60335919869E+03  0.65869791146E+03  0.26308124722E+03 0.  0.
         25    1    4    4    0    0 -0.30806296072E+02  0.14216855553E+02 -0.30956641229E+03  0.33560396091E+03  0.12509000000E+03 0.  0.
         25    1    4    4    0    0  0.49192966180E+02  0.28361102180E+01 -0.29379278640E+03  0.32309395055E+03  0.12509000000E+03 0.  0.
         25    1    3    3    0    0 -0.18386670108E+02 -0.17052965771E+02 -0.51253332937E+02  0.13748921964E+03  0.12509000000E+03 0.  0.
<mgrwt>
<rscale>  2 0.45320678E+03</rscale>
<asrwt>0</asrwt>
<pdfrwt beam="1">  1       21 0.10409897E-01 0.45320678E+03</pdfrwt>
<pdfrwt beam="2">  1       21 0.10667644E+00 0.45320678E+03</pdfrwt>
<totfact> 0.48630580E+04</totfact>
</mgrwt>
</event>
<event>
 7    0  0.4732500E-002  0.4512412E+03  0.7546771E-02  0.1027353E+00
         21   -1    0    0  502  501  0.00000000000E+00  0.00000000000E+00  0.74026932907E+03  0.74026932907E+03  0.00000000000E+00 0.  1.
         21   -1    0    0  501  502 -0.00000000000E+00 -0.00000000000E+00 -0.68765059038E+02  0.68765059038E+02  0.00000000000E+00 0.  1.
      99926    2    1    2    0    0  0.00000000000E+00  0.00000000000E+00  0.67150427003E+03  0.80903438811E+03  0.45124123977E+03 0.  0.
      99925    2    3    3    0    0  0.90525962299E+02 -0.27960245071E+02  0.32411137176E+03  0.42784406947E+03  0.26272731362E+03 0.  0.
         25    1    4    4    0    0  0.14807915351E+02  0.85360182905E+01  0.17544941813E+03  0.21615305778E+03  0.12509000000E+03 0.  0.
         25    1    3    3    0    0 -0.90525962299E+02  0.27960245071E+02  0.34739289827E+03  0.38119031864E+03  0.12509000000E+03 0.  0.
         25    1    4    4    0    0  0.75718046948E+02 -0.36496263361E+02  0.14866195363E+03  0.21169101169E+03  0.12509000000E+03 0.  0.
<mgrwt>
<rscale>  2 0.45124124E+03</rscale>
<asrwt>0</asrwt>
<pdfrwt beam="1">  1       21 0.10886313E+00 0.45124124E+03</pdfrwt>
<pdfrwt beam="2">  1       21 0.10112509E-01 0.45124124E+03</pdfrwt>
<totfact> 0.48753129E+04</totfact>
</mgrwt>
</event>
<event>
 6    0  0.4732500E-002  0.4561342E+03  0.7546771E-02  0.1025908E+00
         21   -1    0    0  502  501  0.00000000000E+00  0.00000000000E+00  0.22741263617E+03  0.22741263617E+03  0.00000000000E+00 0.  1.
         21   -1    0    0  501  502 -0.00000000000E+00 -0.00000000000E+00 -0.22872347879E+03  0.22872347879E+03  0.00000000000E+00 0.  1.
      99926    2    1    2    0    0  0.00000000000E+00  0.00000000000E+00 -0.13108426163E+01  0.45613611496E+03  0.45613423141E+03 0.  0.
         25    1    3    3    0    0  0.96382491506E+00  0.22157260128E+02  0.19110303305E+02  0.12847017135E+03  0.12509000000E+03 0.  0.
         25    1    3    3    0    0  0.16706960279E+02 -0.17836090090E+01  0.92916315043E+02  0.15672668402E+03  0.12509000000E+03 0.  0.
         25    1    3    3    0    0 -0.17670785194E+02 -0.20373651119E+02 -0.11333746096E+03  0.17093925958E+03  0.12509000000E+03 0.  0.
<mgrwt>
<rscale>  2 0.45613423E+03</rscale>
<asrwt>0</asrwt>
<pdfrwt beam="1">  1       21 0.33443035E-01 0.45613423E+03</pdfrwt>
<pdfrwt beam="2">  1       21 0.33635805E-01 0.45613423E+03</pdfrwt>
<totfact> 0.67846546E+04</totfact>
</mgrwt>
</event>
<event>
 7    0  0.4732500E-002  0.4537694E+03  0.7546771E-02  0.1026604E+00
         21   -1    0    0  502  501  0.00000000000E+00  0.00000000000E+00  0.13667361603E+03  0.13667361603E+03  0.00000000000E+00 0.  1.
         21   -1    0    0  501  502 -0.00000000000E+00 -0.00000000000E+00 -0.37663939952E+03  0.37663939952E+03  0.00000000000E+00 0.  1.
      99926    2    1    2    0    0  0.00000000000E+00  0.00000000000E+00 -0.23996578349E+03  0.51331301555E+03  0.45376940695E+03 0.  0.
      99925    2    3    3    0    0 -0.87697045222E+02 -0.65834216043E+02 -0.17705756330E+03  0.33546513670E+03  0.26298775918E+03 0.  0.
         25    1    4    4    0    0 -0.72532138528E+02 -0.58022468292E+02 -0.12128654234E+03  0.19744733829E+03  0.12509000000E+03 0.  0.
         25    1    3    3    0    0  0.87697045222E+02  0.65834216043E+02 -0.62908220193E+02  0.17784787885E+03  0.12509000000E+03 0.  0.
         25    1    4    4    0    0 -0.15164906694E+02 -0.78117477514E+01 -0.55771020954E+02  0.13801779840E+03  0.12509000000E+03 0.  0.
<mgrwt>
<rscale>  2 0.45376941E+03</rscale>
<asrwt>0</asrwt>
<pdfrwt beam="1">  1       21 0.20099062E-01 0.45376941E+03</pdfrwt>
<pdfrwt beam="2">  1       21 0.55388146E-01 0.45376941E+03</pdfrwt>
<totfact> 0.64977342E+04</totfact>
</mgrwt>
</event>
<event>
 7    0  0.4732500E-002  0.4569442E+03  0.7546771E-02  0.1025671E+00
         21   -1    0    0  502  501  0.00000000000E+00  0.00000000000E+00  0.11709606244E+04  0.11709606244E+04  0.00000000000E+00 0.  1.
         21   -1    0    0  501  502 -0.00000000000E+00 -0.00000000000E+00 -0.44578349214E+02  0.44578349214E+02  0.00000000000E+00 0.  1.
      99926    2    1    2    0    0 -0.71054273576E-14 -0.14210854715E-13  0.11263822752E+04  0.12155389736E+04  0.45694416128E+03 0.  0.
      99925    2    3    3    0    0 -0.45670657652E+02 -0.10549220191E+03  0.70019867962E+03  0.75674230965E+03  0.26299490231E+03 0.  0.
         25    1    4    4    0    0 -0.44700042011E+02 -0.88755164101E+02  0.42302559462E+03  0.45218772066E+03  0.12509000000E+03 0.  0.
         25    1    4    4    0    0 -0.97061564130E+00 -0.16737037806E+02  0.27717308500E+03  0.30455458900E+03  0.12509000000E+03 0.  0.
         25    1    3    3    0    0  0.45670657652E+02  0.10549220191E+03  0.42618359559E+03  0.45879666398E+03  0.12509000000E+03 0.  0.
<mgrwt>
<rscale>  2 0.45694416E+03</rscale>
<asrwt>0</asrwt>
<pdfrwt beam="1">  1       21 0.17220007E+00 0.45694416E+03</pdfrwt>
<pdfrwt beam="2">  1       21 0.65556403E-02 0.45694416E+03</pdfrwt>
<totfact> 0.31192277E+04</totfact>
</mgrwt>
</event>
<event>
 7    0  0.4732500E-002  0.4853783E+03  0.7546771E-02  0.1017667E+00
         21   -1    0    0  502  501  0.00000000000E+00  0.00000000000E+00  0.10803818551E+03  0.10803818551E+03  0.00000000000E+00 0. -1.
         21   -1    0    0  501  502 -0.00000000000E+00 -0.00000000000E+00 -0.54515927590E+03  0.54515927590E+03  0.00000000000E+00 0. -1.
      99926    2    1    2    0    0 -0.35527136788E-14  0.00000000000E+00 -0.43712109039E+03  0.65319746141E+03  0.48537828127E+03 0.  0.
      99925    2    3    3    0    0  0.26040857392E+02  0.72341172687E+02 -0.42466480136E+03  0.50584061984E+03  0.26386202389E+03 0.  0.
         25    1    3    3    0    0 -0.26040857392E+02 -0.72341172687E+02 -0.12456289030E+02  0.14735684156E+03  0.12509000000E+03 0.  0.
         25    1    4    4    0    0 -0.21687497272E+02  0.34792594284E+02 -0.16293886627E+03  0.20946945934E+03  0.12509000000E+03 0.  0.
         25    1    4    4    0    0  0.47728354663E+02  0.37548578403E+02 -0.26172593510E+03  0.29637116051E+03  0.12509000000E+03 0.  0.
<mgrwt>
<rscale>  2 0.48537828E+03</rscale>
<asrwt>0</asrwt>
<pdfrwt beam="1">  1       21 0.15887968E-01 0.48537828E+03</pdfrwt>
<pdfrwt beam="2">  1       21 0.80170482E-01 0.48537828E+03</pdfrwt>
<totfact> 0.43987419E+04</totfact>
</mgrwt>
</event>
<event>
 7    0  0.4732500E-002  0.4488854E+03  0.7546771E-02  0.1028055E+00
         21   -1    0    0  502  501  0.00000000000E+00  0.00000000000E+00  0.68545813284E+02  0.68545813284E+02  0.00000000000E+00 0.  1.
         21   -1    0    0  501  502 -0.00000000000E+00 -0.00000000000E+00 -0.73490305710E+03  0.73490305710E+03  0.00000000000E+00 0.  1.
      99926    2    1    2    0    0 -0.17763568394E-14  0.00000000000E+00 -0.66635724382E+03  0.80344887038E+03  0.44888540958E+03 0.  0.
      99925    2    3    3    0    0 -0.95888930415E+01 -0.20554546545E+02 -0.23387965129E+03  0.35267308089E+03  0.26299082578E+03 0.  0.
         25    1    3    3    0    0  0.95888930415E+01  0.20554546545E+02 -0.43247759253E+03  0.45077578949E+03  0.12509000000E+03 0.  0.
         25    1    4    4    0    0  0.34173116848E+02 -0.14534298850E+02 -0.10208715355E+03  0.16567541392E+03  0.12509000000E+03 0.  0.
         25    1    4    4    0    0 -0.43762009889E+02 -0.60202476957E+01 -0.13179249774E+03  0.18699766697E+03  0.12509000000E+03 0.  0.
<mgrwt>
<rscale>  2 0.44888541E+03</rscale>
<asrwt>0</asrwt>
<pdfrwt beam="1">  1       21 0.10080267E-01 0.44888541E+03</pdfrwt>
<pdfrwt beam="2">  1       21 0.10807398E+00 0.44888541E+03</pdfrwt>
<totfact> 0.49952636E+04</totfact>
</mgrwt>
</event>
<event>
 7    0  0.4732500E-002  0.4490613E+03  0.7546771E-02  0.1028002E+00
         21   -1    0    0  502  501  0.00000000000E+00  0.00000000000E+00  0.24502909294E+02  0.24502909294E+02  0.00000000000E+00 0.  1.
         21   -1    0    0  501  502 -0.00000000000E+00 -0.00000000000E+00 -0.20574707020E+04  0.20574707020E+04  0.00000000000E+00 0.  1.
      99926    2    1    2    0    0 -0.88817841970E-15  0.00000000000E+00 -0.20329677927E+04  0.20819736113E+04  0.44906132314E+03 0.  0.
      99925    2    3    3    0    0 -0.50327296019E+01  0.43729905555E+02 -0.83163524971E+03  0.87334421402E+03  0.26301196662E+03 0.  0.
         25    1    4    4    0    0  0.21985062016E+02 -0.45374422589E+00 -0.32512520075E+03  0.34905222116E+03  0.12509000000E+03 0.  0.
         25    1    4    4    0    0 -0.27017791618E+02  0.44183649781E+02 -0.50651004896E+03  0.52429199285E+03  0.12509000000E+03 0.  0.
         25    1    3    3    0    0  0.50327296019E+01 -0.43729905555E+02 -0.12013325430E+04  0.12086293973E+04  0.12509000000E+03 0.  0.
<mgrwt>
<rscale>  2 0.44906132E+03</rscale>
<asrwt>0</asrwt>
<pdfrwt beam="1">  1       21 0.36033696E-02 0.44906132E+03</pdfrwt>
<pdfrwt beam="2">  1       21 0.30256917E+00 0.44906132E+03</pdfrwt>
<totfact> 0.13006807E+04</totfact>
</mgrwt>
</event>
<event>
 7    0  0.4732500E-002  0.4189333E+03  0.7546771E-02  0.1037414E+00
         21   -1    0    0  502  501  0.00000000000E+00  0.00000000000E+00  0.43187269891E+03  0.43187269891E+03  0.00000000000E+00 0.  1.
         21   -1    0    0  501  502 -0.00000000000E+00 -0.00000000000E+00 -0.10159541435E+03  0.10159541435E+03  0.00000000000E+00 0.  1.
      99926    2    1    2    0    0  0.00000000000E+00  0.35527136788E-14  0.33027728456E+03  0.53346811327E+03  0.41893333977E+03 0.  0.
      99925    2    3    3    0    0 -0.67161785775E+02  0.28897605723E+02  0.19803864541E+03  0.33730404197E+03  0.26307591027E+03 0.  0.
         25    1    3    3    0    0  0.67161785775E+02 -0.28897605723E+02  0.13223863915E+03  0.19616407130E+03  0.12509000000E+03 0.  0.
         25    1    4    4    0    0 -0.58466266594E+02  0.27201322434E+02  0.14208259232E+03  0.19998296781E+03  0.12509000000E+03 0.  0.
         25    1    4    4    0    0 -0.86955191809E+01  0.16962832894E+01  0.55956053092E+02  0.13732107416E+03  0.12509000000E+03 0.  0.
<mgrwt>
<rscale>  2 0.41893334E+03</rscale>
<asrwt>0</asrwt>
<pdfrwt beam="1">  1       21 0.63510690E-01 0.41893334E+03</pdfrwt>
<pdfrwt beam="2">  1       21 0.14940502E-01 0.41893334E+03</pdfrwt>
<totfact> 0.84678659E+04</totfact>
</mgrwt>
</event>
<event>
 7    0  0.4732500E-002  0.4561131E+03  0.7546771E-02  0.1025915E+00
         21   -1    0    0  502  501  0.00000000000E+00  0.00000000000E+00  0.12473884401E+03  0.12473884401E+03  0.00000000000E+00 0. -1.
         21   -1    0    0  501  502 -0.00000000000E+00 -0.00000000000E+00 -0.41694945996E+03  0.41694945996E+03  0.00000000000E+00 0. -1.
      99926    2    1    2    0    0  0.00000000000E+00  0.00000000000E+00 -0.29221061596E+03  0.54168830397E+03  0.45611311600E+03 0.  0.
      99925    2    3    3    0    0  0.67440003906E+02 -0.50406122071E+02 -0.91956050541E+02  0.29101255657E+03  0.26295144339E+03 0.  0.
         25    1    4    4    0    0 -0.41036194906E+01 -0.11089961607E+02 -0.54872000984E+02  0.13710678879E+03  0.12509000000E+03 0.  0.
         25    1    3    3    0    0 -0.67440003906E+02  0.50406122071E+02 -0.20025456541E+03  0.25067574741E+03  0.12509000000E+03 0.  0.
         25    1    4    4    0    0  0.71543623396E+02 -0.39316160464E+02 -0.37084049557E+02  0.15390576777E+03  0.12509000000E+03 0.  0.
<mgrwt>
<rscale>  2 0.45611312E+03</rscale>
<asrwt>0</asrwt>
<pdfrwt beam="1">  1       21 0.18343948E-01 0.45611312E+03</pdfrwt>
<pdfrwt beam="2">  1       21 0.61316097E-01 0.45611312E+03</pdfrwt>
<totfact> 0.61872298E+04</totfact>
</mgrwt>
</event>
<event>
 7    0  0.4732500E-002  0.4553748E+03  0.7546771E-02  0.1026131E+00
         21   -1    0    0  502  501  0.00000000000E+00  0.00000000000E+00  0.14847866391E+03  0.14847866391E+03  0.00000000000E+00 0.  1.
         21   -1    0    0  501  502 -0.00000000000E+00 -0.00000000000E+00 -0.34915147390E+03  0.34915147390E+03  0.00000000000E+00 0.  1.
      99926    2    1    2    0    0  0.00000000000E+00  0.00000000000E+00 -0.20067280999E+03  0.49763013782E+03  0.45537476587E+03 0.  0.
      99925    2    3    3    0    0  0.10280121789E+03 -0.20894454681E+02 -0.77131545121E+02  0.29289953223E+03  0.26236652243E+03 0.  0.
         25    1    4    4    0    0  0.46042234495E+02 -0.27942321919E+02 -0.74699594661E+02  0.15533254087E+03  0.12509000000E+03 0.  0.
         25    1    3    3    0    0 -0.10280121789E+03  0.20894454681E+02 -0.12354126487E+03  0.20473060558E+03  0.12509000000E+03 0.  0.
         25    1    4    4    0    0  0.56758983398E+02  0.70478672382E+01 -0.24319504602E+01  0.13756699136E+03  0.12509000000E+03 0.  0.
<mgrwt>
<rscale>  2 0.45537477E+03</rscale>
<asrwt>0</asrwt>
<pdfrwt beam="1">  1       21 0.21835097E-01 0.45537477E+03</pdfrwt>
<pdfrwt beam="2">  1       21 0.51345805E-01 0.45537477E+03</pdfrwt>
<totfact> 0.65243155E+04</totfact>
</mgrwt>
</event>
<event>
 7    0  0.4732500E-002  0.4583219E+03  0.7546771E-02  0.1025269E+00
         21   -1    0    0  502  501  0.00000000000E+00  0.00000000000E+00  0.39455075032E+03  0.39455075032E+03  0.00000000000E+00 0. -1.
         21   -1    0    0  501  502 -0.00000000000E+00 -0.00000000000E+00 -0.13310008938E+03  0.13310008938E+03  0.00000000000E+00 0. -1.
      99926    2    1    2    0    0  0.71054273576E-14  0.00000000000E+00  0.26145066094E+03  0.52765083971E+03  0.45832189620E+03 0.  0.
      99925    2    3    3    0    0  0.56189061095E+02  0.69737770534E+02  0.24938356679E+03  0.37333399005E+03  0.26299341725E+03 0.  0.
         25    1    4    4    0    0  0.11686676204E+01  0.35564590785E+02  0.16129490253E+03  0.20719497963E+03  0.12509000000E+03 0.  0.
         25    1    4    4    0    0  0.55020393475E+02  0.34173179749E+02  0.88088664261E+02  0.16613901042E+03  0.12509000000E+03 0.  0.
         25    1    3    3    0    0 -0.56189061095E+02 -0.69737770534E+02  0.12067094144E+02  0.15431684965E+03  0.12509000000E+03 0.  0.
<mgrwt>
<rscale>  2 0.45832190E+03</rscale>
<asrwt>0</asrwt>
<pdfrwt beam="1">  1       21 0.58022169E-01 0.45832190E+03</pdfrwt>
<pdfrwt beam="2">  1       21 0.19573543E-01 0.45832190E+03</pdfrwt>
<totfact> 0.61724367E+04</totfact>
</mgrwt>
</event>
<event>
 7    0  0.4732500E-002  0.4683545E+03  0.7546771E-02  0.1022386E+00
         21   -1    0    0  502  501  0.00000000000E+00  0.00000000000E+00  0.37250894794E+03  0.37250894794E+03  0.00000000000E+00 0.  1.
         21   -1    0    0  501  502 -0.00000000000E+00 -0.00000000000E+00 -0.14721518454E+03  0.14721518454E+03  0.00000000000E+00 0.  1.
      99926    2    1    2    0    0 -0.17763568394E-14  0.00000000000E+00  0.22529376340E+03  0.51972413247E+03  0.46835445343E+03 0.  0.
      99925    2    3    3    0    0  0.14946342223E+02 -0.12436773235E+03  0.13775548831E+03  0.32223695897E+03  0.26300067903E+03 0.  0.
         25    1    4    4    0    0 -0.12774692590E+02 -0.53320998935E+02  0.28605851650E+02  0.13954255461E+03  0.12509000000E+03 0.  0.
         25    1    3    3    0    0 -0.14946342223E+02  0.12436773235E+03  0.87538275086E+02  0.19748717351E+03  0.12509000000E+03 0.  0.
         25    1    4    4    0    0  0.27721034813E+02 -0.71046733415E+02  0.10914963666E+03  0.18269440436E+03  0.12509000000E+03 0.  0.
<mgrwt>
<rscale>  2 0.46835445E+03</rscale>
<asrwt>0</asrwt>
<pdfrwt beam="1">  1       21 0.54780728E-01 0.46835445E+03</pdfrwt>
<pdfrwt beam="2">  1       21 0.21649292E-01 0.46835445E+03</pdfrwt>
<totfact> 0.57559808E+04</totfact>
</mgrwt>
</event>
<event>
 7    0  0.4732500E-002  0.4615882E+03  0.7546771E-02  0.1024322E+00
         21   -1    0    0  502  501  0.00000000000E+00  0.00000000000E+00  0.68104503074E+03  0.68104503074E+03  0.00000000000E+00 0. -1.
         21   -1    0    0  501  502 -0.00000000000E+00 -0.00000000000E+00 -0.78212035784E+02  0.78212035784E+02  0.00000000000E+00 0. -1.
      99926    2    1    2    0    0 -0.44408920985E-15  0.00000000000E+00  0.60283299496E+03  0.75925706653E+03  0.46158820745E+03 0.  0.
      99925    2    3    3    0    0  0.34764659519E+01  0.95882744808E+02  0.26112053760E+03  0.38293207642E+03  0.26314910873E+03 0.  0.
         25    1    4    4    0    0 -0.87879797706E+01  0.89804675211E+02  0.14602860247E+03  0.21240049227E+03  0.12509000000E+03 0.  0.
         25    1    3    3    0    0 -0.34764659519E+01 -0.95882744808E+02  0.34171245736E+03  0.37632499011E+03  0.12509000000E+03 0.  0.
         25    1    4    4    0    0  0.12264445723E+02  0.60780695971E+01  0.11509193513E+03  0.17053158414E+03  0.12509000000E+03 0.  0.
<mgrwt>
<rscale>  2 0.46158821E+03</rscale>
<asrwt>0</asrwt>
<pdfrwt beam="1">  1       21 0.10015368E+00 0.46158821E+03</pdfrwt>
<pdfrwt beam="2">  1       21 0.11501770E-01 0.46158821E+03</pdfrwt>
<totfact> 0.47303411E+04</totfact>
</mgrwt>
</event>
<event>
 7    0  0.4732500E-002  0.4632898E+03  0.7546771E-02  0.1023831E+00
         21   -1    0    0  502  501  0.00000000000E+00  0.00000000000E+00  0.19165498037E+03  0.19165498037E+03  0.00000000000E+00 0. -1.
         21   -1    0    0  501  502 -0.00000000000E+00 -0.00000000000E+00 -0.27997889380E+03  0.27997889380E+03  0.00000000000E+00 0. -1.
      99926    2    1    2    0    0  0.00000000000E+00 -0.14210854715E-13 -0.88323913431E+02  0.47163387417E+03  0.46328975553E+03 0.  0.
      99925    2    3    3    0    0  0.56544383157E+02  0.81670936340E+02 -0.12512493779E+03  0.30771550240E+03  0.26299272091E+03 0.  0.
         25    1    4    4    0    0 -0.12674205892E+02  0.37048472281E+02 -0.51484949338E+02  0.14082412045E+03  0.12509000000E+03 0.  0.
         25    1    4    4    0    0  0.69218589049E+02  0.44622464059E+02 -0.73639988448E+02  0.16689138194E+03  0.12509000000E+03 0.  0.
         25    1    3    3    0    0 -0.56544383157E+02 -0.81670936340E+02  0.36801024355E+02  0.16391837177E+03  0.12509000000E+03 0.  0.
<mgrwt>
<rscale>  2 0.46328976E+03</rscale>
<asrwt>0</asrwt>
<pdfrwt beam="1">  1       21 0.28184556E-01 0.46328976E+03</pdfrwt>
<pdfrwt beam="2">  1       21 0.41173366E-01 0.46328976E+03</pdfrwt>
<totfact> 0.63061409E+04</totfact>
</mgrwt>
</event>
<event>
 7    0  0.4732500E-002  0.4700439E+03  0.7546771E-02  0.1021908E+00
         21   -1    0    0  502  501  0.00000000000E+00  0.00000000000E+00  0.36525803658E+03  0.36525803658E+03  0.00000000000E+00 0.  1.
         21   -1    0    0  501  502 -0.00000000000E+00 -0.00000000000E+00 -0.15122274052E+03  0.15122274052E+03  0.00000000000E+00 0.  1.
      99926    2    1    2    0    0  0.00000000000E+00  0.00000000000E+00  0.21403529606E+03  0.51648077710E+03  0.47004391833E+03 0.  0.
      99925    2    3    3    0    0 -0.15681025431E+02 -0.56052027503E+02  0.25627529243E+03  0.37219131201E+03  0.26355573012E+03 0.  0.
         25    1    4    4    0    0  0.33020715687E+02 -0.26696600911E+02  0.11553395003E+03  0.17549552095E+03  0.12509000000E+03 0.  0.
         25    1    3    3    0    0  0.15681025431E+02  0.56052027503E+02 -0.42239996365E+02  0.14428946510E+03  0.12509000000E+03 0.  0.
         25    1    4    4    0    0 -0.48701741119E+02 -0.29355426592E+02  0.14074134239E+03  0.19669579105E+03  0.12509000000E+03 0.  0.
<mgrwt>
<rscale>  2 0.47004392E+03</rscale>
<asrwt>0</asrwt>
<pdfrwt beam="1">  1       21 0.53714417E-01 0.47004392E+03</pdfrwt>
<pdfrwt beam="2">  1       21 0.22238638E-01 0.47004392E+03</pdfrwt>
<totfact> 0.57010507E+04</totfact>
</mgrwt>
</event>
<event>
 7    0  0.4732500E-002  0.4599912E+03  0.7546771E-02  0.1024784E+00
         21   -1    0    0  502  501  0.00000000000E+00  0.00000000000E+00  0.19201298066E+02  0.19201298066E+02  0.00000000000E+00 0.  1.
         21   -1    0    0  501  502 -0.00000000000E+00 -0.00000000000E+00 -0.27549165538E+04  0.27549165538E+04  0.00000000000E+00 0.  1.
      99926    2    1    2    0    0  0.00000000000E+00  0.00000000000E+00 -0.27357152557E+04  0.27741178519E+04  0.45999119077E+03 0.  0.
      99925    2    3    3    0    0  0.34860617196E+02  0.98075728386E+02 -0.13805213041E+04  0.14091884523E+04  0.26294279210E+03 0.  0.
         25    1    4    4    0    0  0.98590506031E+01  0.13506763011E+02 -0.73620911464E+03  0.74694779075E+03  0.12509000000E+03 0.  0.
         25    1    3    3    0    0 -0.34860617196E+02 -0.98075728386E+02 -0.13551939516E+04  0.13649293995E+04  0.12509000000E+03 0.  0.
         25    1    4    4    0    0  0.25001566593E+02  0.84568965375E+02 -0.64431218948E+03  0.66224066158E+03  0.12509000000E+03 0.  0.
<mgrwt>
<rscale>  2 0.45999119E+03</rscale>
<asrwt>0</asrwt>
<pdfrwt beam="1">  1       21 0.28237188E-02 0.45999119E+03</pdfrwt>
<pdfrwt beam="2">  1       21 0.40513501E+00 0.45999119E+03</pdfrwt>
<totfact> 0.45356494E+03</totfact>
</mgrwt>
</event>
<event>
 7    0  0.4732500E-002  0.4542147E+03  0.7546771E-02  0.1026473E+00
         21   -1    0    0  502  501  0.00000000000E+00  0.00000000000E+00  0.74232389257E+03  0.74232389257E+03  0.00000000000E+00 0. -1.
         21   -1    0    0  501  502 -0.00000000000E+00 -0.00000000000E+00 -0.69481466293E+02  0.69481466293E+02  0.00000000000E+00 0. -1.
      99926    2    1    2    0    0  0.71054273576E-14  0.00000000000E+00  0.67284242628E+03  0.81180535886E+03  0.45421471803E+03 0.  0.
      99925    2    3    3    0    0 -0.51634464018E+02 -0.27847014007E+02  0.25245401978E+03  0.36929491324E+03  0.26306677248E+03 0.  0.
         25    1    4    4    0    0 -0.66433573187E+02 -0.21892786194E+02  0.13947880968E+03  0.19998640000E+03  0.12509000000E+03 0.  0.
         25    1    4    4    0    0  0.14799109169E+02 -0.59542278131E+01  0.11297521009E+03  0.16930851324E+03  0.12509000000E+03 0.  0.
         25    1    3    3    0    0  0.51634464018E+02  0.27847014007E+02  0.42038840650E+03  0.44251044562E+03  0.12509000000E+03 0.  0.
<mgrwt>
<rscale>  2 0.45421472E+03</rscale>
<asrwt>0</asrwt>
<pdfrwt beam="1">  1       21 0.10916527E+00 0.45421472E+03</pdfrwt>
<pdfrwt beam="2">  1       21 0.10217863E-01 0.45421472E+03</pdfrwt>
<totfact> 0.47491070E+04</totfact>
</mgrwt>
</event>
<event>
 7    0  0.4732500E-002  0.4560951E+03  0.7546771E-02  0.1025920E+00
         21   -1    0    0  502  501  0.00000000000E+00  0.00000000000E+00  0.98528253676E+02  0.98528253676E+02  0.00000000000E+00 0. -1.
         21   -1    0    0  501  502 -0.00000000000E+00 -0.00000000000E+00 -0.52782517378E+03  0.52782517378E+03  0.00000000000E+00 0. -1.
      99926    2    1    2    0    0  0.00000000000E+00  0.00000000000E+00 -0.42929692010E+03  0.62635342745E+03  0.45609513314E+03 0.  0.
      99925    2    3    3    0    0  0.84849263610E+02  0.14541961566E+02 -0.37287938860E+03  0.46436172352E+03  0.26302453431E+03 0.  0.
         25    1    4    4    0    0  0.57173372795E+02 -0.23040365745E+02 -0.15211543473E+03  0.20636440244E+03  0.12509000000E+03 0.  0.
         25    1    4    4    0    0  0.27675890815E+02  0.37582327311E+02 -0.22076395387E+03  0.25799732109E+03  0.12509000000E+03 0.  0.
         25    1    3    3    0    0 -0.84849263610E+02 -0.14541961566E+02 -0.56417531499E+02  0.16199170393E+03  0.12509000000E+03 0.  0.
<mgrwt>
<rscale>  2 0.45609513E+03</rscale>
<asrwt>0</asrwt>
<pdfrwt beam="1">  1       21 0.14489449E-01 0.45609513E+03</pdfrwt>
<pdfrwt beam="2">  1       21 0.77621348E-01 0.45609513E+03</pdfrwt>
<totfact> 0.56593866E+04</totfact>
</mgrwt>
</event>
<event>
 7    0  0.4732500E-002  0.4422197E+03  0.7546771E-02  0.1030068E+00
         21   -1    0    0  502  501  0.00000000000E+00  0.00000000000E+00  0.41744101047E+03  0.41744101047E+03  0.00000000000E+00 0.  1.
         21   -1    0    0  501  502 -0.00000000000E+00 -0.00000000000E+00 -0.11711732445E+03  0.11711732445E+03  0.00000000000E+00 0.  1.
      99926    2    1    2    0    0  0.00000000000E+00  0.35527136788E-14  0.30032368602E+03  0.53455833492E+03  0.44221973842E+03 0.  0.
      99925    2    3    3    0    0  0.74331923385E+02 -0.29952284548E+02  0.26500239518E+03  0.38185772631E+03  0.26299558837E+03 0.  0.
         25    1    4    4    0    0  0.44390525958E+02 -0.53166955161E+02  0.12024209428E+03  0.18682321390E+03  0.12509000000E+03 0.  0.
         25    1    4    4    0    0  0.29941397427E+02  0.23214670612E+02  0.14476030090E+03  0.19503451241E+03  0.12509000000E+03 0.  0.
         25    1    3    3    0    0 -0.74331923385E+02  0.29952284548E+02  0.35321290836E+02  0.15270060861E+03  0.12509000000E+03 0.  0.
<mgrwt>
<rscale>  2 0.44221974E+03</rscale>
<asrwt>0</asrwt>
<pdfrwt beam="1">  1       21 0.61388384E-01 0.44221974E+03</pdfrwt>
<pdfrwt beam="2">  1       21 0.17223136E-01 0.44221974E+03</pdfrwt>
<totfact> 0.69684468E+04</totfact>
</mgrwt>
</event>
<event>
 7    0  0.4732500E-002  0.4593893E+03  0.7546771E-02  0.1024958E+00
         21   -1    0    0  502  501  0.00000000000E+00  0.00000000000E+00  0.17074779709E+03  0.17074779709E+03  0.00000000000E+00 0.  1.
         21   -1    0    0  501  502 -0.00000000000E+00 -0.00000000000E+00 -0.30899162588E+03  0.30899162588E+03  0.00000000000E+00 0.  1.
      99926    2    1    2    0    0 -0.14210854715E-13 -0.71054273576E-14 -0.13824382879E+03  0.47973942297E+03  0.45938933135E+03 0.  0.
      99925    2    3    3    0    0 -0.93835287093E+02 -0.52357111959E+02 -0.13548123794E+03  0.31481074662E+03  0.26306712466E+03 0.  0.
         25    1    4    4    0    0 -0.80471565768E+02 -0.44096528905E+02 -0.97123918700E+02  0.18303207490E+03  0.12509000000E+03 0.  0.
         25    1    3    3    0    0  0.93835287093E+02  0.52357111959E+02 -0.27625908487E+01  0.16492867636E+03  0.12509000000E+03 0.  0.
         25    1    4    4    0    0 -0.13363721325E+02 -0.82605830537E+01 -0.38357319242E+02  0.13177867172E+03  0.12509000000E+03 0.  0.
<mgrwt>
<rscale>  2 0.45938933E+03</rscale>
<asrwt>0</asrwt>
<pdfrwt beam="1">  1       21 0.25109971E-01 0.45938933E+03</pdfrwt>
<pdfrwt beam="2">  1       21 0.45439944E-01 0.45938933E+03</pdfrwt>
<totfact> 0.64444620E+04</totfact>
</mgrwt>
</event>
<event>
 7    0  0.4732500E-002  0.4539547E+03  0.7546771E-02  0.1026549E+00
         21   -1    0    0  502  501  0.00000000000E+00  0.00000000000E+00  0.63866463745E+03  0.63866463745E+03  0.00000000000E+00 0.  1.
         21   -1    0    0  501  502 -0.00000000000E+00 -0.00000000000E+00 -0.80666322421E+02  0.80666322421E+02  0.00000000000E+00 0.  1.
      99926    2    1    2    0    0  0.00000000000E+00  0.00000000000E+00  0.55799831503E+03  0.71933095987E+03  0.45395474472E+03 0.  0.
      99925    2    3    3    0    0 -0.89140754013E+02 -0.57371187600E+02  0.40940917654E+03  0.49805337996E+03  0.26306609106E+03 0.  0.
         25    1    3    3    0    0  0.89140754013E+02  0.57371187600E+02  0.14858913849E+03  0.22127757991E+03  0.12509000000E+03 0.  0.
         25    1    4    4    0    0 -0.65095232747E+02 -0.65755538612E+02  0.21210848109E+03  0.26305645029E+03  0.12509000000E+03 0.  0.
         25    1    4    4    0    0 -0.24045521266E+02  0.83843510124E+01  0.19730069545E+03  0.23499692968E+03  0.12509000000E+03 0.  0.
<mgrwt>
<rscale>  2 0.45395474E+03</rscale>
<asrwt>0</asrwt>
<pdfrwt beam="1">  1       21 0.93921268E-01 0.45395474E+03</pdfrwt>
<pdfrwt beam="2">  1       21 0.11862695E-01 0.45395474E+03</pdfrwt>
<totfact> 0.52294611E+04</totfact>
</mgrwt>
</event>
<event>
 7    0  0.4732500E-002  0.4544938E+03  0.7546771E-02  0.1026390E+00
         21   -1    0    0  502  501  0.00000000000E+00  0.00000000000E+00  0.49107159816E+03  0.49107159816E+03  0.00000000000E+00 0. -1.
         21   -1    0    0  501  502 -0.00000000000E+00 -0.00000000000E+00 -0.10516012175E+03  0.10516012175E+03  0.00000000000E+00 0. -1.
      99926    2    1    2    0    0 -0.35527136788E-14  0.00000000000E+00  0.38591147641E+03  0.59623171991E+03  0.45449378016E+03 0.  0.
      99925    2    3    3    0    0 -0.21230809923E+02  0.40898901901E+02  0.10806581825E+03  0.28806101182E+03  0.26301607934E+03 0.  0.
         25    1    4    4    0    0  0.23071024406E+02  0.35677267448E+02  0.35831147264E+02  0.13688140412E+03  0.12509000000E+03 0.  0.
         25    1    3    3    0    0  0.21230809923E+02 -0.40898901901E+02  0.27784565816E+03  0.30817070809E+03  0.12509000000E+03 0.  0.
         25    1    4    4    0    0 -0.44301834329E+02  0.52216344526E+01  0.72234670988E+02  0.15117960770E+03  0.12509000000E+03 0.  0.
<mgrwt>
<rscale>  2 0.45449378E+03</rscale>
<asrwt>0</asrwt>
<pdfrwt beam="1">  1       21 0.72216411E-01 0.45449378E+03</pdfrwt>
<pdfrwt beam="2">  1       21 0.15464724E-01 0.45449378E+03</pdfrwt>
<totfact> 0.59147061E+04</totfact>
</mgrwt>
</event>
<event>
 7    0  0.4732500E-002  0.4500151E+03  0.7546771E-02  0.1027718E+00
         21   -1    0    0  502  501  0.00000000000E+00  0.00000000000E+00  0.74828558922E+03  0.74828558922E+03  0.00000000000E+00 0. -1.
         21   -1    0    0  501  502 -0.00000000000E+00 -0.00000000000E+00 -0.67659193344E+02  0.67659193344E+02  0.00000000000E+00 0. -1.
      99926    2    1    2    0    0  0.00000000000E+00  0.17763568394E-14  0.68062639587E+03  0.81594478256E+03  0.45001510800E+03 0.  0.
      99925    2    3    3    0    0  0.85427014016E+02 -0.15834341757E+02  0.31288483002E+03  0.41791228582E+03  0.26306892763E+03 0.  0.
         25    1    4    4    0    0  0.36687738615E+02 -0.75383360418E+01  0.21505071420E+03  0.25158921768E+03  0.12509000000E+03 0.  0.
         25    1    3    3    0    0 -0.85427014016E+02  0.15834341757E+02  0.36774156586E+03  0.39803249674E+03  0.12509000000E+03 0.  0.
         25    1    4    4    0    0  0.48739275401E+02 -0.82960057154E+01  0.97834115811E+02  0.16632306814E+03  0.12509000000E+03 0.  0.
<mgrwt>
<rscale>  2 0.45001511E+03</rscale>
<asrwt>0</asrwt>
<pdfrwt beam="1">  1       21 0.11004199E+00 0.45001511E+03</pdfrwt>
<pdfrwt beam="2">  1       21 0.99498818E-02 0.45001511E+03</pdfrwt>
<totfact> 0.48887654E+04</totfact>
</mgrwt>
</event>
<event>
 7    0  0.4732500E-002  0.4629314E+03  0.7546771E-02  0.1023934E+00
         21   -1    0    0  502  501  0.00000000000E+00  0.00000000000E+00  0.55042133795E+03  0.55042133795E+03  0.00000000000E+00 0.  1.
         21   -1    0    0  501  502 -0.00000000000E+00 -0.00000000000E+00 -0.97337024455E+02  0.97337024455E+02  0.00000000000E+00 0.  1.
      99926    2    1    2    0    0  0.00000000000E+00  0.00000000000E+00  0.45308431349E+03  0.64775836240E+03  0.46293142141E+03 0.  0.
      99925    2    3    3    0    0 -0.10722137774E+03 -0.28798030596E+02  0.34849932729E+03  0.45049894476E+03  0.26300526172E+03 0.  0.
         25    1    4    4    0    0 -0.18605860041E+02 -0.37364009278E+02  0.16602039754E+03  0.21202011159E+03  0.12509000000E+03 0.  0.
         25    1    3    3    0    0  0.10722137774E+03  0.28798030596E+02  0.10458498621E+03  0.19725941765E+03  0.12509000000E+03 0.  0.
         25    1    4    4    0    0 -0.88615517703E+02  0.85659786816E+01  0.18247892975E+03  0.23847883317E+03  0.12509000000E+03 0.  0.
<mgrwt>
<rscale>  2 0.46293142E+03</rscale>
<asrwt>0</asrwt>
<pdfrwt beam="1">  1       21 0.80944313E-01 0.46293142E+03</pdfrwt>
<pdfrwt beam="2">  1       21 0.14314269E-01 0.46293142E+03</pdfrwt>
<totfact> 0.52469403E+04</totfact>
</mgrwt>
</event>
<event>
 7    0  0.4732500E-002  0.4555648E+03  0.7546771E-02  0.1026075E+00
         21   -1    0    0  502  501  0.00000000000E+00  0.00000000000E+00  0.44336225222E+03  0.44336225222E+03  0.00000000000E+00 0. -1.
         21   -1    0    0  501  502 -0.00000000000E+00 -0.00000000000E+00 -0.11702581471E+03  0.11702581471E+03  0.00000000000E+00 0. -1.
      99926    2    1    2    0    0  0.00000000000E+00  0.00000000000E+00  0.32633643751E+03  0.56038806693E+03  0.45556483085E+03 0.  0.
      99925    2    3    3    0    0  0.10314132292E+03 -0.23821872504E+02  0.25635260712E+03  0.38220036051E+03  0.26297308283E+03 0.  0.
         25    1    3    3    0    0 -0.10314132292E+03  0.23821872504E+02  0.69983830394E+02  0.17818770642E+03  0.12509000000E+03 0.  0.
         25    1    4    4    0    0  0.58583977717E+02 -0.25275885203E+02  0.80570342250E+02  0.16189515425E+03  0.12509000000E+03 0.  0.
         25    1    4    4    0    0  0.44557345202E+02  0.14540126990E+01  0.17578226487E+03  0.22030520626E+03  0.12509000000E+03 0.  0.
<mgrwt>
<rscale>  2 0.45556483E+03</rscale>
<asrwt>0</asrwt>
<pdfrwt beam="1">  1       21 0.65200331E-01 0.45556483E+03</pdfrwt>
<pdfrwt beam="2">  1       21 0.17209679E-01 0.45556483E+03</pdfrwt>
<totfact> 0.60912639E+04</totfact>
</mgrwt>
</event>
<event>
 7    0  0.4732500E-002  0.4768454E+03  0.7546771E-02  0.1020006E+00
         21   -1    0    0  502  501  0.00000000000E+00  0.00000000000E+00  0.65627571807E+03  0.65627571807E+03  0.00000000000E+00 0.  1.
         21   -1    0    0  501  502 -0.00000000000E+00 -0.00000000000E+00 -0.86618149539E+02  0.86618149539E+02  0.00000000000E+00 0.  1.
      99926    2    1    2    0    0  0.00000000000E+00  0.00000000000E+00  0.56965756853E+03  0.74289386761E+03  0.47684541850E+03 0.  0.
      99925    2    3    3    0    0 -0.81927717325E+02  0.44408302502E+02  0.49876029826E+03  0.57155158086E+03  0.26310668229E+03 0.  0.
         25    1    3    3    0    0  0.81927717325E+02 -0.44408302502E+02  0.70897270272E+02  0.17134228675E+03  0.12509000000E+03 0.  0.
         25    1    4    4    0    0 -0.16721491671E+02  0.50320982623E+02  0.27937917057E+03  0.31066386758E+03  0.12509000000E+03 0.  0.
         25    1    4    4    0    0 -0.65206225654E+02 -0.59126801206E+01  0.21938112769E+03  0.26088771328E+03  0.12509000000E+03 0.  0.
<mgrwt>
<rscale>  2 0.47684542E+03</rscale>
<asrwt>0</asrwt>
<pdfrwt beam="1">  1       21 0.96511132E-01 0.47684542E+03</pdfrwt>
<pdfrwt beam="2">  1       21 0.12737964E-01 0.47684542E+03</pdfrwt>
<totfact> 0.42797875E+04</totfact>
</mgrwt>
</event>
<event>
 7    0  0.4732500E-002  0.4550060E+03  0.7546771E-02  0.1026240E+00
         21   -1    0    0  502  501  0.00000000000E+00  0.00000000000E+00  0.36150044502E+02  0.36150044502E+02  0.00000000000E+00 0.  1.
         21   -1    0    0  501  502 -0.00000000000E+00 -0.00000000000E+00 -0.14317444344E+04  0.14317444344E+04  0.00000000000E+00 0.  1.
      99926    2    1    2    0    0  0.00000000000E+00 -0.44408920985E-14 -0.13955943899E+04  0.14678944789E+04  0.45500604401E+03 0.  0.
      99925    2    3    3    0    0  0.11278964864E+03  0.60572158914E+01 -0.85771318138E+03  0.90422622782E+03  0.26304937722E+03 0.  0.
         25    1    4    4    0    0  0.84394057070E+02 -0.26514269920E+02 -0.42801184454E+03  0.45460643478E+03  0.12509000000E+03 0.  0.
         25    1    3    3    0    0 -0.11278964864E+03 -0.60572158914E+01 -0.53788120856E+03  0.56366825112E+03  0.12509000000E+03 0.  0.
         25    1    4    4    0    0  0.28395591573E+02  0.32571485811E+02 -0.42970133684E+03  0.44961979304E+03  0.12509000000E+03 0.  0.
<mgrwt>
<rscale>  2 0.45500604E+03</rscale>
<asrwt>0</asrwt>
<pdfrwt beam="1">  1       21 0.53161847E-02 0.45500604E+03</pdfrwt>
<pdfrwt beam="2">  1       21 0.21055058E+00 0.45500604E+03</pdfrwt>
<totfact> 0.24575892E+04</totfact>
</mgrwt>
</event>
<event>
 7    0  0.4732500E-002  0.4544388E+03  0.7546771E-02  0.1026407E+00
         21   -1    0    0  502  501  0.00000000000E+00  0.00000000000E+00  0.31614877208E+03  0.31614877208E+03  0.00000000000E+00 0.  1.
         21   -1    0    0  501  502 -0.00000000000E+00 -0.00000000000E+00 -0.16330490822E+03  0.16330490822E+03  0.00000000000E+00 0.  1.
      99926    2    1    2    0    0  0.00000000000E+00  0.17763568394E-14  0.15284386385E+03  0.47945368030E+03  0.45443875807E+03 0.  0.
      99925    2    3    3    0    0 -0.46093972507E+02  0.10313738651E+02  0.20411015279E+03  0.33625183678E+03  0.26300820474E+03 0.  0.
         25    1    4    4    0    0 -0.24702569373E+02  0.17887742008E+02  0.15108463639E+03  0.19850507223E+03  0.12509000000E+03 0.  0.
         25    1    4    4    0    0 -0.21391403134E+02 -0.75740033566E+01  0.53025516397E+02  0.13774676455E+03  0.12509000000E+03 0.  0.
         25    1    3    3    0    0  0.46093972507E+02 -0.10313738651E+02 -0.51266288936E+02  0.14320184352E+03  0.12509000000E+03 0.  0.
<mgrwt>
<rscale>  2 0.45443876E+03</rscale>
<asrwt>0</asrwt>
<pdfrwt beam="1">  1       21 0.46492467E-01 0.45443876E+03</pdfrwt>
<pdfrwt beam="2">  1       21 0.24015428E-01 0.45443876E+03</pdfrwt>
<totfact> 0.67038029E+04</totfact>
</mgrwt>
</event>
<event>
 7    0  0.4732500E-002  0.4895088E+03  0.7546771E-02  0.1016554E+00
         21   -1    0    0  502  501  0.00000000000E+00  0.00000000000E+00  0.65272165817E+02  0.65272165817E+02  0.00000000000E+00 0. -1.
         21   -1    0    0  501  502 -0.00000000000E+00 -0.00000000000E+00 -0.91776807863E+03  0.91776807863E+03  0.00000000000E+00 0. -1.
      99926    2    1    2    0    0  0.00000000000E+00 -0.44408920985E-15 -0.85249591282E+03  0.98304024445E+03  0.48950877504E+03 0.  0.
      99925    2    3    3    0    0  0.87256067489E+02  0.30101985322E+01 -0.74909450979E+03  0.79875231523E+03  0.26313493473E+03 0.  0.
         25    1    4    4    0    0  0.39142332868E+02 -0.35563997674E+02 -0.41712108120E+03  0.43867348294E+03  0.12509000000E+03 0.  0.
         25    1    3    3    0    0 -0.87256067489E+02 -0.30101985322E+01 -0.10340140302E+03  0.18428792922E+03  0.12509000000E+03 0.  0.
         25    1    4    4    0    0  0.48113734621E+02  0.38574196206E+02 -0.33197342859E+03  0.36007883229E+03  0.12509000000E+03 0.  0.
<mgrwt>
<rscale>  2 0.48950878E+03</rscale>
<asrwt>0</asrwt>
<pdfrwt beam="1">  1       21 0.95988481E-02 0.48950878E+03</pdfrwt>
<pdfrwt beam="2">  1       21 0.13496589E+00 0.48950878E+03</pdfrwt>
<totfact> 0.30676798E+04</totfact>
</mgrwt>
</event>
<event>
 7    0  0.4732500E-002  0.4599541E+03  0.7546771E-02  0.1024795E+00
         21   -1    0    0  502  501  0.00000000000E+00  0.00000000000E+00  0.35460607975E+03  0.35460607975E+03  0.00000000000E+00 0.  1.
         21   -1    0    0  501  502 -0.00000000000E+00 -0.00000000000E+00 -0.14914984025E+03  0.14914984025E+03  0.00000000000E+00 0.  1.
      99926    2    1    2    0    0  0.00000000000E+00 -0.35527136788E-14  0.20545623951E+03  0.50375592000E+03  0.45995408529E+03 0.  0.
      99925    2    3    3    0    0 -0.10371234476E+03 -0.15584282142E+02  0.69951000991E+02  0.29160432780E+03  0.26294642258E+03 0.  0.
         25    1    3    3    0    0  0.10371234476E+03  0.15584282142E+02  0.13550523852E+03  0.21215159219E+03  0.12509000000E+03 0.  0.
         25    1    4    4    0    0 -0.55097593752E+02 -0.44175555008E+02  0.17522002582E+02  0.14471265726E+03  0.12509000000E+03 0.  0.
         25    1    4    4    0    0 -0.48614751008E+02  0.28591272865E+02  0.52428998409E+02  0.14689167054E+03  0.12509000000E+03 0.  0.
<mgrwt>
<rscale>  2 0.45995409E+03</rscale>
<asrwt>0</asrwt>
<pdfrwt beam="1">  1       21 0.52147953E-01 0.45995409E+03</pdfrwt>
<pdfrwt beam="2">  1       21 0.21933800E-01 0.45995409E+03</pdfrwt>
<totfact> 0.62512862E+04</totfact>
</mgrwt>
</event>
<event>
 7    0  0.4732500E-002  0.4599285E+03  0.7546771E-02  0.1024802E+00
         21   -1    0    0  502  501  0.00000000000E+00  0.00000000000E+00  0.28753929386E+03  0.28753929386E+03  0.00000000000E+00 0.  1.
         21   -1    0    0  501  502 -0.00000000000E+00 -0.00000000000E+00 -0.18391764132E+03  0.18391764132E+03  0.00000000000E+00 0.  1.
      99926    2    1    2    0    0  0.17763568394E-14  0.14210854715E-13  0.10362165254E+03  0.47145693517E+03  0.45992846710E+03 0.  0.
      99925    2    3    3    0    0 -0.93170735483E+01 -0.11741027993E+03  0.65515943191E+02  0.29546962064E+03  0.26294101281E+03 0.  0.
         25    1    4    4    0    0 -0.85228922610E+01 -0.97941869066E+02  0.55393393184E+02  0.16846716451E+03  0.12509000000E+03 0.  0.
         25    1    4    4    0    0 -0.79418128732E+00 -0.19468410861E+02  0.10122550007E+02  0.12700245613E+03  0.12509000000E+03 0.  0.
         25    1    3    3    0    0  0.93170735483E+01  0.11741027993E+03  0.38105709348E+02  0.17598731453E+03  0.12509000000E+03 0.  0.
<mgrwt>
<rscale>  2 0.45992847E+03</rscale>
<asrwt>0</asrwt>
<pdfrwt beam="1">  1       21 0.42285190E-01 0.45992847E+03</pdfrwt>
<pdfrwt beam="2">  1       21 0.27046712E-01 0.45992847E+03</pdfrwt>
<totfact> 0.64758761E+04</totfact>
</mgrwt>
</event>
<event>
 7    0  0.4732500E-002  0.4551411E+03  0.7546771E-02  0.1026200E+00
         21   -1    0    0  502  501  0.00000000000E+00  0.00000000000E+00  0.21355502294E+03  0.21355502294E+03  0.00000000000E+00 0. -1.
         21   -1    0    0  501  502 -0.00000000000E+00 -0.00000000000E+00 -0.24250586679E+03  0.24250586679E+03  0.00000000000E+00 0. -1.
      99926    2    1    2    0    0  0.00000000000E+00  0.71054273576E-14 -0.28950843854E+02  0.45606088973E+03  0.45514105922E+03 0.  0.
      99925    2    3    3    0    0  0.55004107990E+02  0.60606716173E+02 -0.96697881977E+02  0.29193960770E+03  0.26302020498E+03 0.  0.
         25    1    4    4    0    0  0.38563998200E+02 -0.82827219051E+01 -0.36929358122E+02  0.13626104003E+03  0.12509000000E+03 0.  0.
         25    1    4    4    0    0  0.16440109790E+02  0.68889438078E+02 -0.59768523855E+02  0.15567856767E+03  0.12509000000E+03 0.  0.
         25    1    3    3    0    0 -0.55004107990E+02 -0.60606716173E+02  0.67747038122E+02  0.16412128203E+03  0.12509000000E+03 0.  0.
<mgrwt>
<rscale>  2 0.45514106E+03</rscale>
<asrwt>0</asrwt>
<pdfrwt beam="1">  1       21 0.31405151E-01 0.45514106E+03</pdfrwt>
<pdfrwt beam="2">  1       21 0.35662627E-01 0.45514106E+03</pdfrwt>
<totfact> 0.68391172E+04</totfact>
</mgrwt>
</event>
<event>
 7    0  0.4732500E-002  0.4672500E+03  0.7546771E-02  0.1022699E+00
         21   -1    0    0  502  501  0.00000000000E+00  0.00000000000E+00  0.10815998482E+03  0.10815998482E+03  0.00000000000E+00 0. -1.
         21   -1    0    0  501  502 -0.00000000000E+00 -0.00000000000E+00 -0.50462869658E+03  0.50462869658E+03  0.00000000000E+00 0. -1.
      99926    2    1    2    0    0  0.14210854715E-13  0.00000000000E+00 -0.39646871175E+03  0.61278868140E+03  0.46724996378E+03 0.  0.
      99925    2    3    3    0    0 -0.10133066754E+03  0.68295831942E+02 -0.21691415476E+03  0.36215035257E+03  0.26299981461E+03 0.  0.
         25    1    3    3    0    0  0.10133066754E+03 -0.68295831942E+02 -0.17955455699E+03  0.25063832883E+03  0.12509000000E+03 0.  0.
         25    1    4    4    0    0 -0.85290384673E+02  0.20787960265E+02 -0.91874812496E+02  0.17831174465E+03  0.12509000000E+03 0.  0.
         25    1    4    4    0    0 -0.16040282866E+02  0.47507871677E+02 -0.12503934227E+03  0.18383860792E+03  0.12509000000E+03 0.  0.
<mgrwt>
<rscale>  2 0.46724996E+03</rscale>
<asrwt>0</asrwt>
<pdfrwt beam="1">  1       21 0.15905880E-01 0.46724996E+03</pdfrwt>
<pdfrwt beam="2">  1       21 0.74210101E-01 0.46724996E+03</pdfrwt>
<totfact> 0.52618666E+04</totfact>
</mgrwt>
</event>
<event>
 7    0  0.4732500E-002  0.4523106E+03  0.7546771E-02  0.1027035E+00
         21   -1    0    0  502  501  0.00000000000E+00  0.00000000000E+00  0.24130981279E+03  0.24130981279E+03  0.00000000000E+00 0. -1.
         21   -1    0    0  501  502 -0.00000000000E+00 -0.00000000000E+00 -0.21195248570E+03  0.21195248570E+03  0.00000000000E+00 0. -1.
      99926    2    1    2    0    0  0.00000000000E+00  0.00000000000E+00  0.29357327089E+02  0.45326229850E+03  0.45231057757E+03 0.  0.
      99925    2    3    3    0    0 -0.76061499884E+02  0.65129150206E+02  0.65623353196E+02  0.28897629568E+03  0.26300896755E+03 0.  0.
         25    1    4    4    0    0 -0.23056328277E+02  0.26194972183E+01  0.41641502379E+01  0.12729220041E+03  0.12509000000E+03 0.  0.
         25    1    3    3    0    0  0.76061499884E+02 -0.65129150206E+02 -0.36266026108E+02  0.16428600281E+03  0.12509000000E+03 0.  0.
         25    1    4    4    0    0 -0.53005171608E+02  0.62509652988E+02  0.61459202959E+02  0.16168409527E+03  0.12509000000E+03 0.  0.
<mgrwt>
<rscale>  2 0.45231058E+03</rscale>
<asrwt>0</asrwt>
<pdfrwt beam="1">  1       21 0.35486737E-01 0.45231058E+03</pdfrwt>
<pdfrwt beam="2">  1       21 0.31169483E-01 0.45231058E+03</pdfrwt>
<totfact> 0.70166940E+04</totfact>
</mgrwt>
</event>
<event>
 7    0  0.4732500E-002  0.4565572E+03  0.7546771E-02  0.1025784E+00
         21   -1    0    0  502  501  0.00000000000E+00  0.00000000000E+00  0.18171262040E+03  0.18171262040E+03  0.00000000000E+00 0. -1.
         21   -1    0    0  501  502 -0.00000000000E+00 -0.00000000000E+00 -0.28677764907E+03  0.28677764907E+03  0.00000000000E+00 0. -1.
      99926    2    1    2    0    0  0.71054273576E-14  0.00000000000E+00 -0.10506502867E+03  0.46849026947E+03  0.45655719504E+03 0.  0.
      99925    2    3    3    0    0 -0.57451631370E+02  0.93225030694E+02 -0.10097058051E+03  0.30218973159E+03  0.26292960931E+03 0.  0.
         25    1    4    4    0    0 -0.61915548309E+02  0.74532345339E+02 -0.58494313013E+02  0.16869409705E+03  0.12509000000E+03 0.  0.
         25    1    4    4    0    0  0.44639169393E+01  0.18692685355E+02 -0.42476267494E+02  0.13349563454E+03  0.12509000000E+03 0.  0.
         25    1    3    3    0    0  0.57451631370E+02 -0.93225030694E+02 -0.40944481648E+01  0.16630053788E+03  0.12509000000E+03 0.  0.
<mgrwt>
<rscale>  2 0.45655720E+03</rscale>
<asrwt>0</asrwt>
<pdfrwt beam="1">  1       21 0.26722445E-01 0.45655720E+03</pdfrwt>
<pdfrwt beam="2">  1       21 0.42173183E-01 0.45655720E+03</pdfrwt>
<totfact> 0.66720449E+04</totfact>
</mgrwt>
</event>
<event>
 7    0  0.4732500E-002  0.4513331E+03  0.7546771E-02  0.1027325E+00
         21   -1    0    0  502  501  0.00000000000E+00  0.00000000000E+00  0.22513594993E+02  0.22513594993E+02  0.00000000000E+00 0.  1.
         21   -1    0    0  501  502 -0.00000000000E+00 -0.00000000000E+00 -0.22619837076E+04  0.22619837076E+04  0.00000000000E+00 0.  1.
      99926    2    1    2    0    0 -0.71054273576E-14  0.00000000000E+00 -0.22394701126E+04  0.22844973026E+04  0.45133307024E+03 0.  0.
      99925    2    3    3    0    0 -0.43751405354E+02 -0.94508861832E+02 -0.12393678403E+04  0.12712361449E+04  0.26298779856E+03 0.  0.
         25    1    3    3    0    0  0.43751405354E+02  0.94508861832E+02 -0.10001022723E+04  0.10132611577E+04  0.12509000000E+03 0.  0.
         25    1    4    4    0    0  0.11791116025E+02 -0.62466264034E+02 -0.54416242356E+03  0.56196202351E+03  0.12509000000E+03 0.  0.
         25    1    4    4    0    0 -0.55542521379E+02 -0.32042597798E+02 -0.69520541671E+03  0.70927412140E+03  0.12509000000E+03 0.  0.
<mgrwt>
<rscale>  2 0.45133307E+03</rscale>
<asrwt>0</asrwt>
<pdfrwt beam="1">  1       21 0.33108242E-02 0.45133307E+03</pdfrwt>
<pdfrwt beam="2">  1       21 0.33264452E+00 0.45133307E+03</pdfrwt>
<totfact> 0.98743963E+03</totfact>
</mgrwt>
</event>
<event>
 7    0  0.4732500E-002  0.4578387E+03  0.7546771E-02  0.1025410E+00
         21   -1    0    0  502  501  0.00000000000E+00  0.00000000000E+00  0.19117205315E+03  0.19117205315E+03  0.00000000000E+00 0. -1.
         21   -1    0    0  501  502 -0.00000000000E+00 -0.00000000000E+00 -0.27411988910E+03  0.27411988910E+03  0.00000000000E+00 0. -1.
      99926    2    1    2    0    0  0.00000000000E+00 -0.35527136788E-14 -0.82947835957E+02  0.46529194225E+03  0.45783867031E+03 0.  0.
      99925    2    3    3    0    0 -0.72937142259E+02 -0.30992248434E+02  0.33969831766E+02  0.27661869213E+03  0.26283760230E+03 0.  0.
         25    1    4    4    0    0  0.13867339817E+01 -0.23672973886E+02  0.13592564924E+01  0.12732512871E+03  0.12509000000E+03 0.  0.
         25    1    3    3    0    0  0.72937142259E+02  0.30992248434E+02 -0.11691766772E+03  0.18867325012E+03  0.12509000000E+03 0.  0.
         25    1    4    4    0    0 -0.74323876240E+02 -0.73192745483E+01  0.32610575273E+02  0.14929356342E+03  0.12509000000E+03 0.  0.
<mgrwt>
<rscale>  2 0.45783867E+03</rscale>
<asrwt>0</asrwt>
<pdfrwt beam="1">  1       21 0.28113537E-01 0.45783867E+03</pdfrwt>
<pdfrwt beam="2">  1       21 0.40311748E-01 0.45783867E+03</pdfrwt>
<totfact> 0.66280150E+04</totfact>
</mgrwt>
</event>
<event>
 7    0  0.4732500E-002  0.4590499E+03  0.7546771E-02  0.1025057E+00
         21   -1    0    0  502  501  0.00000000000E+00  0.00000000000E+00  0.32479516610E+03  0.32479516610E+03  0.00000000000E+00 0.  1.
         21   -1    0    0  501  502 -0.00000000000E+00 -0.00000000000E+00 -0.16219976054E+03  0.16219976054E+03  0.00000000000E+00 0.  1.
      99926    2    1    2    0    0 -0.14210854715E-13  0.00000000000E+00  0.16259540555E+03  0.48699492664E+03  0.45904988037E+03 0.  0.
      99925    2    3    3    0    0  0.70380635059E+02 -0.80088675779E+02  0.50531247151E+02  0.28806400024E+03  0.26279237340E+03 0.  0.
         25    1    4    4    0    0  0.63614980409E+02 -0.48451901118E+02 -0.22772694754E+01  0.14848281554E+03  0.12509000000E+03 0.  0.
         25    1    3    3    0    0 -0.70380635059E+02  0.80088675779E+02  0.11206415840E+03  0.19893092640E+03  0.12509000000E+03 0.  0.
         25    1    4    4    0    0  0.67656546494E+01 -0.31636774661E+02  0.52808516627E+02  0.13958118470E+03  0.12509000000E+03 0.  0.
<mgrwt>
<rscale>  2 0.45904988E+03</rscale>
<asrwt>0</asrwt>
<pdfrwt beam="1">  1       21 0.47763995E-01 0.45904988E+03</pdfrwt>
<pdfrwt beam="2">  1       21 0.23852906E-01 0.45904988E+03</pdfrwt>
<totfact> 0.64108387E+04</totfact>
</mgrwt>
</event>
<event>
 6    0  0.4732500E-002  0.4572651E+03  0.7546771E-02  0.1025577E+00
         21   -1    0    0  502  501  0.00000000000E+00  0.00000000000E+00  0.13310477182E+03  0.13310477182E+03  0.00000000000E+00 0. -1.
         21   -1    0    0  501  502 -0.00000000000E+00 -0.00000000000E+00 -0.39271957422E+03  0.39271957422E+03  0.00000000000E+00 0. -1.
      99926    2    1    2    0    0 -0.35527136788E-14  0.00000000000E+00 -0.25961480240E+03  0.52582434603E+03  0.45726512797E+03 0.  0.
         25    1    3    3    0    0  0.24247719901E+02  0.98059297862E+02 -0.16513050161E+03  0.23047596074E+03  0.12509000000E+03 0.  0.
         25    1    3    3    0    0  0.19339913177E+02 -0.42207653725E+02 -0.25291268735E+02  0.13580380940E+03  0.12509000000E+03 0.  0.
         25    1    3    3    0    0 -0.43587633077E+02 -0.55851644137E+02 -0.69193032055E+02  0.15954457589E+03  0.12509000000E+03 0.  0.
<mgrwt>
<rscale>  2 0.45726513E+03</rscale>
<asrwt>0</asrwt>
<pdfrwt beam="1">  1       21 0.19574231E-01 0.45726513E+03</pdfrwt>
<pdfrwt beam="2">  1       21 0.57752880E-01 0.45726513E+03</pdfrwt>
<totfact> 0.62362701E+04</totfact>
</mgrwt>
</event>
<event>
 7    0  0.4732500E-002  0.4491453E+03  0.7546771E-02  0.1027977E+00
         21   -1    0    0  502  501  0.00000000000E+00  0.00000000000E+00  0.18892799120E+03  0.18892799120E+03  0.00000000000E+00 0. -1.
         21   -1    0    0  501  502 -0.00000000000E+00 -0.00000000000E+00 -0.26694227625E+03  0.26694227625E+03  0.00000000000E+00 0. -1.
      99926    2    1    2    0    0  0.00000000000E+00  0.00000000000E+00 -0.78014285053E+02  0.45587026746E+03  0.44914526835E+03 0.  0.
      99925    2    3    3    0    0 -0.69411751051E+02 -0.77171972742E+02 -0.77693324551E+02  0.29332453335E+03  0.26311504066E+03 0.  0.
         25    1    4    4    0    0  0.15444986990E+01 -0.17826287203E+02 -0.46525474603E+02  0.13465619139E+03  0.12509000000E+03 0.  0.
         25    1    3    3    0    0  0.69411751051E+02  0.77171972742E+02 -0.32096050169E+00  0.16254573411E+03  0.12509000000E+03 0.  0.
         25    1    4    4    0    0 -0.70956249750E+02 -0.59345685539E+02 -0.31167849949E+02  0.15866834196E+03  0.12509000000E+03 0.  0.
<mgrwt>
<rscale>  2 0.44914527E+03</rscale>
<asrwt>0</asrwt>
<pdfrwt beam="1">  1       21 0.27783528E-01 0.44914527E+03</pdfrwt>
<pdfrwt beam="2">  1       21 0.39256217E-01 0.44914527E+03</pdfrwt>
<totfact> 0.71775389E+04</totfact>
</mgrwt>
</event>
<event>
 7    0  0.4732500E-002  0.4486650E+03  0.7546771E-02  0.1028121E+00
         21   -1    0    0  502  501  0.00000000000E+00  0.00000000000E+00  0.14266104144E+03  0.14266104144E+03  0.00000000000E+00 0.  1.
         21   -1    0    0  501  502 -0.00000000000E+00 -0.00000000000E+00 -0.35275971864E+03  0.35275971864E+03  0.00000000000E+00 0.  1.
      99926    2    1    2    0    0  0.14210854715E-13  0.00000000000E+00 -0.21009867720E+03  0.49542076008E+03  0.44866499234E+03 0.  0.
      99925    2    3    3    0    0  0.97949777828E+02  0.42281120482E+02 -0.14200070203E+03  0.31746937782E+03  0.26313637975E+03 0.  0.
         25    1    4    4    0    0  0.64646576872E+02  0.58449853560E+02 -0.89957848787E+02  0.17701832657E+03  0.12509000000E+03 0.  0.
         25    1    3    3    0    0 -0.97949777828E+02 -0.42281120482E+02 -0.68097975171E+02  0.17795138226E+03  0.12509000000E+03 0.  0.
         25    1    4    4    0    0  0.33303200956E+02 -0.16168733078E+02 -0.52042853243E+02  0.14045105125E+03  0.12509000000E+03 0.  0.
<mgrwt>
<rscale>  2 0.44866499E+03</rscale>
<asrwt>0</asrwt>
<pdfrwt beam="1">  1       21 0.20979565E-01 0.44866499E+03</pdfrwt>
<pdfrwt beam="2">  1       21 0.51876430E-01 0.44866499E+03</pdfrwt>
<totfact> 0.68998660E+04</totfact>
</mgrwt>
</event>
<event>
 7    0  0.4732500E-002  0.4501764E+03  0.7546771E-02  0.1027669E+00
         21   -1    0    0  502  501  0.00000000000E+00  0.00000000000E+00  0.66744344531E+03  0.66744344531E+03  0.00000000000E+00 0. -1.
         21   -1    0    0  501  502 -0.00000000000E+00 -0.00000000000E+00 -0.75908592228E+02  0.75908592228E+02  0.00000000000E+00 0. -1.
      99926    2    1    2    0    0  0.00000000000E+00  0.00000000000E+00  0.59153485308E+03  0.74335203754E+03  0.45017637577E+03 0.  0.
      99925    2    3    3    0    0 -0.58238045466E+02  0.41831136498E+02  0.23915435355E+03  0.36261454468E+03  0.26296955959E+03 0.  0.
         25    1    3    3    0    0  0.58238045466E+02 -0.41831136498E+02  0.35238049953E+03  0.38073749286E+03  0.12509000000E+03 0.  0.
         25    1    4    4    0    0 -0.10478019008E+02  0.56762749790E+02  0.11659097878E+03  0.18047925941E+03  0.12509000000E+03 0.  0.
         25    1    4    4    0    0 -0.47760026458E+02 -0.14931613292E+02  0.12256337477E+03  0.18213528527E+03  0.12509000000E+03 0.  0.
<mgrwt>
<rscale>  2 0.45017638E+03</rscale>
<asrwt>0</asrwt>
<pdfrwt beam="1">  1       21 0.98153445E-01 0.45017638E+03</pdfrwt>
<pdfrwt beam="2">  1       21 0.11163029E-01 0.45017638E+03</pdfrwt>
<totfact> 0.52577015E+04</totfact>
</mgrwt>
</event>
<event>
 7    0  0.4732500E-002  0.3970492E+03  0.7546771E-02  0.1044806E+00
         21   -1    0    0  502  501  0.00000000000E+00  0.00000000000E+00  0.20573288827E+03  0.20573288827E+03  0.00000000000E+00 0. -1.
         21   -1    0    0  501  502 -0.00000000000E+00 -0.00000000000E+00 -0.19156889160E+03  0.19156889160E+03  0.00000000000E+00 0. -1.
      99926    2    1    2    0    0  0.00000000000E+00  0.00000000000E+00  0.14163996666E+02  0.39730177988E+03  0.39704922301E+03 0.  0.
      99925    2    3    3    0    0  0.26846702644E+02  0.28801556840E+02  0.74728213342E+01  0.26599087002E+03  0.26295441574E+03 0.  0.
         25    1    3    3    0    0 -0.26846702644E+02 -0.28801556840E+02  0.66911753321E+01  0.13131090985E+03  0.12509000000E+03 0.  0.
         25    1    4    4    0    0  0.20779492698E+02 -0.28087510681E+01  0.39631814720E+02  0.13288290047E+03  0.12509000000E+03 0.  0.
         25    1    4    4    0    0  0.60672099453E+01  0.31610307908E+02 -0.32158993386E+02  0.13310796955E+03  0.12509000000E+03 0.  0.
<mgrwt>
<rscale>  2 0.39704922E+03</rscale>
<asrwt>0</asrwt>
<pdfrwt beam="1">  1       21 0.30254837E-01 0.39704922E+03</pdfrwt>
<pdfrwt beam="2">  1       21 0.28171896E-01 0.39704922E+03</pdfrwt>
<totfact> 0.11935272E+05</totfact>
</mgrwt>
</event>
<event>
 6    0  0.4732500E-002  0.4405211E+03  0.7546771E-02  0.1030587E+00
         21   -1    0    0  502  501  0.00000000000E+00  0.00000000000E+00  0.30888761682E+02  0.30888761682E+02  0.00000000000E+00 0.  1.
         21   -1    0    0  501  502 -0.00000000000E+00 -0.00000000000E+00 -0.15706266759E+04  0.15706266759E+04  0.00000000000E+00 0.  1.
      99926    2    1    2    0    0  0.00000000000E+00 -0.14210854715E-13 -0.15397379143E+04  0.16015154376E+04  0.44052111452E+03 0.  0.
         25    1    3    3    0    0  0.21089396926E+02 -0.68469000487E+02 -0.65965028779E+03  0.67521757750E+03  0.12509000000E+03 0.  0.
         25    1    3    3    0    0 -0.53894110058E+02  0.77626273887E+02 -0.54154086581E+03  0.56377693367E+03  0.12509000000E+03 0.  0.
         25    1    3    3    0    0  0.32804713132E+02 -0.91572734001E+01 -0.33854676066E+03  0.36252092645E+03  0.12509000000E+03 0.  0.
<mgrwt>
<rscale>  2 0.44052111E+03</rscale>
<asrwt>0</asrwt>
<pdfrwt beam="1">  1       21 0.45424661E-02 0.44052111E+03</pdfrwt>
<pdfrwt beam="2">  1       21 0.23097445E+00 0.44052111E+03</pdfrwt>
<totfact> 0.23980535E+04</totfact>
</mgrwt>
</event>
<event>
 7    0  0.4732500E-002  0.4626211E+03  0.7546771E-02  0.1024024E+00
         21   -1    0    0  502  501  0.00000000000E+00  0.00000000000E+00  0.33718049797E+03  0.33718049797E+03  0.00000000000E+00 0. -1.
         21   -1    0    0  501  502 -0.00000000000E+00 -0.00000000000E+00 -0.15868226914E+03  0.15868226914E+03  0.00000000000E+00 0. -1.
      99926    2    1    2    0    0 -0.71054273576E-14 -0.71054273576E-14  0.17849822882E+03  0.49586276711E+03  0.46262108265E+03 0.  0.
      99925    2    3    3    0    0 -0.49910163226E+02 -0.49969071252E+02  0.21589890989E+03  0.34742338043E+03  0.26287398788E+03 0.  0.
         25    1    4    4    0    0 -0.20471393772E+02 -0.86320902473E+01  0.15190504411E+03  0.19803091039E+03  0.12509000000E+03 0.  0.
         25    1    3    3    0    0  0.49910163226E+02  0.49969071252E+02 -0.37400681065E+02  0.14843938668E+03  0.12509000000E+03 0.  0.
         25    1    4    4    0    0 -0.29438769454E+02 -0.41336981005E+02  0.63993865777E+02  0.14939247003E+03  0.12509000000E+03 0.  0.
<mgrwt>
<rscale>  2 0.46262108E+03</rscale>
<asrwt>0</asrwt>
<pdfrwt beam="1">  1       21 0.49585367E-01 0.46262108E+03</pdfrwt>
<pdfrwt beam="2">  1       21 0.23335628E-01 0.46262108E+03</pdfrwt>
<totfact> 0.61741475E+04</totfact>
</mgrwt>
</event>
<event>
 7    0  0.4732500E-002  0.4531807E+03  0.7546771E-02  0.1026778E+00
         21   -1    0    0  502  501  0.00000000000E+00  0.00000000000E+00  0.89427251337E+03  0.89427251337E+03  0.00000000000E+00 0.  1.
         21   -1    0    0  501  502 -0.00000000000E+00 -0.00000000000E+00 -0.57413359837E+02  0.57413359837E+02  0.00000000000E+00 0.  1.
      99926    2    1    2    0    0  0.00000000000E+00  0.00000000000E+00  0.83685915353E+03  0.95168587321E+03  0.45318071275E+03 0.  0.
      99925    2    3    3    0    0 -0.93961852803E+02  0.40163315556E+02  0.62105526642E+03  0.68212929753E+03  0.26296161868E+03 0.  0.
         25    1    3    3    0    0  0.93961852803E+02 -0.40163315556E+02  0.21580388711E+03  0.26955657568E+03  0.12509000000E+03 0.  0.
         25    1    4    4    0    0 -0.58455070707E+02 -0.15227160149E+02  0.34706967186E+03  0.37383649758E+03  0.12509000000E+03 0.  0.
         25    1    4    4    0    0 -0.35506782096E+02  0.55390475705E+02  0.27398559456E+03  0.30829279995E+03  0.12509000000E+03 0.  0.
<mgrwt>
<rscale>  2 0.45318071E+03</rscale>
<asrwt>0</asrwt>
<pdfrwt beam="1">  1       21 0.13151066E+00 0.45318071E+03</pdfrwt>
<pdfrwt beam="2">  1       21 0.84431417E-02 0.45318071E+03</pdfrwt>
<totfact> 0.41662163E+04</totfact>
</mgrwt>
</event>
<event>
 7    0  0.4732500E-002  0.4554144E+03  0.7546771E-02  0.1026120E+00
         21   -1    0    0  502  501  0.00000000000E+00  0.00000000000E+00  0.20868965159E+03  0.20868965159E+03  0.00000000000E+00 0. -1.
         21   -1    0    0  501  502 -0.00000000000E+00 -0.00000000000E+00 -0.24845783006E+03  0.24845783006E+03  0.00000000000E+00 0. -1.
      99926    2    1    2    0    0  0.00000000000E+00  0.00000000000E+00 -0.39768178473E+02  0.45714748165E+03  0.45541443978E+03 0.  0.
      99925    2    3    3    0    0  0.45348325964E+02  0.32305823542E+02 -0.12417614095E+03  0.29629864227E+03  0.26319770996E+03 0.  0.
         25    1    4    4    0    0 -0.17101179877E+02  0.24806108996E+02 -0.66934326621E+02  0.14503622160E+03  0.12509000000E+03 0.  0.
         25    1    4    4    0    0  0.62449505841E+02  0.74997145463E+01 -0.57241814325E+02  0.15126242066E+03  0.12509000000E+03 0.  0.
         25    1    3    3    0    0 -0.45348325964E+02 -0.32305823542E+02  0.84407962474E+02  0.16084883938E+03  0.12509000000E+03 0.  0.
<mgrwt>
<rscale>  2 0.45541444E+03</rscale>
<asrwt>0</asrwt>
<pdfrwt beam="1">  1       21 0.30689655E-01 0.45541444E+03</pdfrwt>
<pdfrwt beam="2">  1       21 0.36537916E-01 0.45541444E+03</pdfrwt>
<totfact> 0.68163106E+04</totfact>
</mgrwt>
</event>
<event>
 7    0  0.4732500E-002  0.4676811E+03  0.7546771E-02  0.1022577E+00
         21   -1    0    0  502  501  0.00000000000E+00  0.00000000000E+00  0.11338713874E+04  0.11338713874E+04  0.00000000000E+00 0. -1.
         21   -1    0    0  501  502 -0.00000000000E+00 -0.00000000000E+00 -0.48225409576E+02  0.48225409576E+02  0.00000000000E+00 0. -1.
      99926    2    1    2    0    0  0.00000000000E+00  0.71054273576E-14  0.10856459778E+04  0.11820967970E+04  0.46768113951E+03 0.  0.
      99925    2    3    3    0    0 -0.25229233185E+02  0.63950092509E+02  0.41239812580E+03  0.49388439742E+03  0.26291339889E+03 0.  0.
         25    1    4    4    0    0 -0.31348818329E+02  0.47654562585E+01  0.24227380585E+03  0.27449874878E+03  0.12509000000E+03 0.  0.
         25    1    4    4    0    0  0.61195851440E+01  0.59184636251E+02  0.17012431995E+03  0.21938564864E+03  0.12509000000E+03 0.  0.
         25    1    3    3    0    0  0.25229233185E+02 -0.63950092509E+02  0.67324785201E+03  0.68821239954E+03  0.12509000000E+03 0.  0.
<mgrwt>
<rscale>  2 0.46768114E+03</rscale>
<asrwt>0</asrwt>
<pdfrwt beam="1">  1       21 0.16674578E+00 0.46768114E+03</pdfrwt>
<pdfrwt beam="2">  1       21 0.70919727E-02 0.46768114E+03</pdfrwt>
<totfact> 0.29685335E+04</totfact>
</mgrwt>
</event>
<event>
 7    0  0.4732500E-002  0.4348481E+03  0.7546771E-02  0.1032339E+00
         21   -1    0    0  502  501  0.00000000000E+00  0.00000000000E+00  0.74218467723E+03  0.74218467723E+03  0.00000000000E+00 0. -1.
         21   -1    0    0  501  502 -0.00000000000E+00 -0.00000000000E+00 -0.63694678923E+02  0.63694678923E+02  0.00000000000E+00 0. -1.
      99926    2    1    2    0    0  0.00000000000E+00 -0.35527136788E-14  0.67848999831E+03  0.80587935615E+03  0.43484808712E+03 0.  0.
      99925    2    3    3    0    0  0.87202891164E+02 -0.17987532145E+02  0.38461995365E+03  0.47431487255E+03  0.26289578551E+03 0.  0.
         25    1    4    4    0    0  0.52533896274E+02 -0.16239555648E+02  0.13045721888E+03  0.18891830902E+03  0.12509000000E+03 0.  0.
         25    1    3    3    0    0 -0.87202891164E+02  0.17987532145E+02  0.29387004465E+03  0.33156448360E+03  0.12509000000E+03 0.  0.
         25    1    4    4    0    0  0.34668994890E+02 -0.17479764972E+01  0.25416273478E+03  0.28539656354E+03  0.12509000000E+03 0.  0.
<mgrwt>
<rscale>  2 0.43484809E+03</rscale>
<asrwt>0</asrwt>
<pdfrwt beam="1">  1       21 0.10914480E+00 0.43484809E+03</pdfrwt>
<pdfrwt beam="2">  1       21 0.93668650E-02 0.43484809E+03</pdfrwt>
<totfact> 0.55795978E+04</totfact>
</mgrwt>
</event>
<event>
 7    0  0.4732500E-002  0.4627685E+03  0.7546771E-02  0.1023981E+00
         21   -1    0    0  502  501  0.00000000000E+00  0.00000000000E+00  0.39612587062E+03  0.39612587062E+03  0.00000000000E+00 0.  1.
         21   -1    0    0  501  502 -0.00000000000E+00 -0.00000000000E+00 -0.13515572357E+03  0.13515572357E+03  0.00000000000E+00 0.  1.
      99926    2    1    2    0    0  0.00000000000E+00  0.00000000000E+00  0.26097014705E+03  0.53128159420E+03  0.46276853251E+03 0.  0.
      99925    2    3    3    0    0  0.23846485899E+02 -0.50927659773E+02  0.28512225470E+03  0.39202243355E+03  0.26310569523E+03 0.  0.
         25    1    4    4    0    0  0.29791969961E+02 -0.19570011076E+02  0.19569028193E+03  0.23497391632E+03  0.12509000000E+03 0.  0.
         25    1    3    3    0    0 -0.23846485899E+02  0.50927659773E+02 -0.24152107648E+02  0.13925916064E+03  0.12509000000E+03 0.  0.
         25    1    4    4    0    0 -0.59454840620E+01 -0.31357648697E+02  0.89431972765E+02  0.15704851723E+03  0.12509000000E+03 0.  0.
<mgrwt>
<rscale>  2 0.46276853E+03</rscale>
<asrwt>0</asrwt>
<pdfrwt beam="1">  1       21 0.58253804E-01 0.46276853E+03</pdfrwt>
<pdfrwt beam="2">  1       21 0.19875842E-01 0.46276853E+03</pdfrwt>
<totfact> 0.59378248E+04</totfact>
</mgrwt>
</event>
<event>
 6    0  0.4732500E-002  0.4695827E+03  0.7546771E-02  0.1022038E+00
         21   -1    0    0  502  501  0.00000000000E+00  0.00000000000E+00  0.27496625833E+02  0.27496625833E+02  0.00000000000E+00 0. -1.
         21   -1    0    0  501  502 -0.00000000000E+00 -0.00000000000E+00 -0.20048637703E+04  0.20048637703E+04  0.00000000000E+00 0. -1.
      99926    2    1    2    0    0  0.14210854715E-13  0.00000000000E+00 -0.19773671444E+04  0.20323603961E+04  0.46958274643E+03 0.  0.
         25    1    3    3    0    0 -0.76164601357E+02  0.50738794571E+02 -0.57557677506E+03  0.59608019919E+03  0.12509000000E+03 0.  0.
         25    1    3    3    0    0 -0.35765447067E+01  0.40211656468E+02 -0.76178949470E+03  0.77304625432E+03  0.12509000000E+03 0.  0.
         25    1    3    3    0    0  0.79741146064E+02 -0.90950451039E+02 -0.64000087469E+03  0.66323394261E+03  0.12509000000E+03 0.  0.
<mgrwt>
<rscale>  2 0.46958275E+03</rscale>
<asrwt>0</asrwt>
<pdfrwt beam="1">  1       21 0.40436210E-02 0.46958275E+03</pdfrwt>
<pdfrwt beam="2">  1       21 0.29483294E+00 0.46958275E+03</pdfrwt>
<totfact> 0.11795724E+04</totfact>
</mgrwt>
</event>
<event>
 7    0  0.4732500E-002  0.4520991E+03  0.7546771E-02  0.1027098E+00
         21   -1    0    0  502  501  0.00000000000E+00  0.00000000000E+00  0.12333743600E+03  0.12333743600E+03  0.00000000000E+00 0.  1.
         21   -1    0    0  501  502 -0.00000000000E+00 -0.00000000000E+00 -0.41429754809E+03  0.41429754809E+03  0.00000000000E+00 0.  1.
      99926    2    1    2    0    0  0.00000000000E+00  0.00000000000E+00 -0.29096011209E+03  0.53763498409E+03  0.45209909233E+03 0.  0.
      99925    2    3    3    0    0  0.95924863904E+01  0.10424341474E+03 -0.14066665942E+03  0.31583702348E+03  0.26269223631E+03 0.  0.
         25    1    4    4    0    0  0.12087913948E+02  0.45052749306E+02 -0.25806365820E+02  0.13597552905E+03  0.12509000000E+03 0.  0.
         25    1    3    3    0    0 -0.95924863904E+01 -0.10424341474E+03 -0.15029345268E+03  0.22179796061E+03  0.12509000000E+03 0.  0.
         25    1    4    4    0    0 -0.24954275574E+01  0.59190665437E+02 -0.11486029360E+03  0.17986149443E+03  0.12509000000E+03 0.  0.
<mgrwt>
<rscale>  2 0.45209909E+03</rscale>
<asrwt>0</asrwt>
<pdfrwt beam="1">  1       21 0.18137858E-01 0.45209909E+03</pdfrwt>
<pdfrwt beam="2">  1       21 0.60926110E-01 0.45209909E+03</pdfrwt>
<totfact> 0.64151271E+04</totfact>
</mgrwt>
</event>
<event>
 7    0  0.4732500E-002  0.4564957E+03  0.7546771E-02  0.1025802E+00
         21   -1    0    0  502  501  0.00000000000E+00  0.00000000000E+00  0.11295275602E+03  0.11295275602E+03  0.00000000000E+00 0. -1.
         21   -1    0    0  501  502 -0.00000000000E+00 -0.00000000000E+00 -0.46122892276E+03  0.46122892276E+03  0.00000000000E+00 0. -1.
      99926    2    1    2    0    0  0.71054273576E-14  0.00000000000E+00 -0.34827616673E+03  0.57418167878E+03  0.45649568665E+03 0.  0.
      99925    2    3    3    0    0  0.54519352803E+02 -0.71630716548E+01 -0.92174244762E+02  0.28390702959E+03  0.26283728926E+03 0.  0.
         25    1    4    4    0    0  0.56755680479E+02  0.82635000164E+01 -0.74890100091E+02  0.15667012444E+03  0.12509000000E+03 0.  0.
         25    1    3    3    0    0 -0.54519352803E+02  0.71630716548E+01 -0.25610192197E+03  0.29027464919E+03  0.12509000000E+03 0.  0.
         25    1    4    4    0    0 -0.22363276761E+01 -0.15426571671E+02 -0.17284144671E+02  0.12723690515E+03  0.12509000000E+03 0.  0.
<mgrwt>
<rscale>  2 0.45649569E+03</rscale>
<asrwt>0</asrwt>
<pdfrwt beam="1">  1       21 0.16610699E-01 0.45649569E+03</pdfrwt>
<pdfrwt beam="2">  1       21 0.67827784E-01 0.45649569E+03</pdfrwt>
<totfact> 0.59588431E+04</totfact>
</mgrwt>
</event>
<event>
 7    0  0.4732500E-002  0.4534360E+03  0.7546771E-02  0.1026702E+00
         21   -1    0    0  502  501  0.00000000000E+00  0.00000000000E+00  0.94312852167E+02  0.94312852167E+02  0.00000000000E+00 0. -1.
         21   -1    0    0  501  502 -0.00000000000E+00 -0.00000000000E+00 -0.54500570622E+03  0.54500570622E+03  0.00000000000E+00 0. -1.
      99926    2    1    2    0    0  0.00000000000E+00  0.00000000000E+00 -0.45069285405E+03  0.63931855838E+03  0.45343596064E+03 0.  0.
      99925    2    3    3    0    0 -0.25661005436E+01  0.91265442697E+02 -0.19331972609E+03  0.33894478956E+03  0.26301157383E+03 0.  0.
         25    1    4    4    0    0  0.13251239431E+02  0.81586800691E+02 -0.12505315099E+03  0.19523780389E+03  0.12509000000E+03 0.  0.
         25    1    3    3    0    0  0.25661005436E+01 -0.91265442697E+02 -0.25737312796E+03  0.30037376883E+03  0.12509000000E+03 0.  0.
         25    1    4    4    0    0 -0.15817339975E+02  0.96786420060E+01 -0.68266575097E+02  0.14370698567E+03  0.12509000000E+03 0.  0.
<mgrwt>
<rscale>  2 0.45343596E+03</rscale>
<asrwt>0</asrwt>
<pdfrwt beam="1">  1       21 0.13869537E-01 0.45343596E+03</pdfrwt>
<pdfrwt beam="2">  1       21 0.80147897E-01 0.45343596E+03</pdfrwt>
<totfact> 0.57021632E+04</totfact>
</mgrwt>
</event>
<event>
 7    0  0.4732500E-002  0.4574895E+03  0.7546771E-02  0.1025512E+00
         21   -1    0    0  502  501  0.00000000000E+00  0.00000000000E+00  0.43895065617E+03  0.43895065617E+03  0.00000000000E+00 0. -1.
         21   -1    0    0  501  502 -0.00000000000E+00 -0.00000000000E+00 -0.11920284055E+03  0.11920284055E+03  0.00000000000E+00 0. -1.
      99926    2    1    2    0    0  0.00000000000E+00 -0.35527136788E-14  0.31974781562E+03  0.55815349672E+03  0.45748951934E+03 0.  0.
      99925    2    3    3    0    0  0.63744757065E+02  0.10296586563E+02  0.31758947128E+03  0.41736436255E+03  0.26298388755E+03 0.  0.
         25    1    4    4    0    0  0.38133863419E+02  0.32186246940E+02  0.20741444893E+03  0.24730225991E+03  0.12509000000E+03 0.  0.
         25    1    3    3    0    0 -0.63744757065E+02 -0.10296586563E+02  0.21583443348E+01  0.14078913416E+03  0.12509000000E+03 0.  0.
         25    1    4    4    0    0  0.25610893646E+02 -0.21889660377E+02  0.11017502235E+03  0.17006210264E+03  0.12509000000E+03 0.  0.
<mgrwt>
<rscale>  2 0.45748952E+03</rscale>
<asrwt>0</asrwt>
<pdfrwt beam="1">  1       21 0.64551567E-01 0.45748952E+03</pdfrwt>
<pdfrwt beam="2">  1       21 0.17529830E-01 0.45748952E+03</pdfrwt>
<totfact> 0.60137852E+04</totfact>
</mgrwt>
</event>
<event>
 7    0  0.4732500E-002  0.4567677E+03  0.7546771E-02  0.1025723E+00
         21   -1    0    0  502  501  0.00000000000E+00  0.00000000000E+00  0.14620821086E+03  0.14620821086E+03  0.00000000000E+00 0.  1.
         21   -1    0    0  501  502 -0.00000000000E+00 -0.00000000000E+00 -0.35674588330E+03  0.35674588330E+03  0.00000000000E+00 0.  1.
      99926    2    1    2    0    0 -0.18596235662E-14 -0.71054273576E-14 -0.21053767244E+03  0.50295409416E+03  0.45676767543E+03 0.  0.
      99925    2    3    3    0    0  0.14080286714E+00 -0.36883730068E+02 -0.12596936846E+02  0.26591301697E+03  0.26304110022E+03 0.  0.
         25    1    4    4    0    0 -0.21056794126E+02 -0.20972994357E+01 -0.36914301812E+02  0.13212857761E+03  0.12509000000E+03 0.  0.
         25    1    3    3    0    0 -0.14080286714E+00  0.36883730068E+02 -0.19794073560E+03  0.23704107720E+03  0.12509000000E+03 0.  0.
         25    1    4    4    0    0  0.21197596993E+02 -0.34786430632E+02  0.24317364966E+02  0.13378443935E+03  0.12509000000E+03 0.  0.
<mgrwt>
<rscale>  2 0.45676768E+03</rscale>
<asrwt>0</asrwt>
<pdfrwt beam="1">  1       21 0.21501208E-01 0.45676768E+03</pdfrwt>
<pdfrwt beam="2">  1       21 0.52462629E-01 0.45676768E+03</pdfrwt>
<totfact> 0.64158649E+04</totfact>
</mgrwt>
</event>
<event>
 7    0  0.4732500E-002  0.4247996E+03  0.7546771E-02  0.1035515E+00
         21   -1    0    0  502  501  0.00000000000E+00  0.00000000000E+00  0.29349951136E+03  0.29349951136E+03  0.00000000000E+00 0. -1.
         21   -1    0    0  501  502 -0.00000000000E+00 -0.00000000000E+00 -0.15370953352E+03  0.15370953352E+03  0.00000000000E+00 0. -1.
      99926    2    1    2    0    0 -0.33306690739E-14  0.00000000000E+00  0.13978997784E+03  0.44720904488E+03  0.42479959030E+03 0.  0.
      99925    2    3    3    0    0  0.59167760353E+00  0.73603991283E+02  0.53152447860E+02  0.27817807932E+03  0.26294479171E+03 0.  0.
         25    1    4    4    0    0 -0.36598413388E+02  0.53835991394E+02  0.24857988298E+02  0.14318933450E+03  0.12509000000E+03 0.  0.
         25    1    4    4    0    0  0.37190090992E+02  0.19767999890E+02  0.28294459562E+02  0.13498874483E+03  0.12509000000E+03 0.  0.
         25    1    3    3    0    0 -0.59167760353E+00 -0.73603991283E+02  0.86637529985E+02  0.16903096556E+03  0.12509000000E+03 0.  0.
<mgrwt>
<rscale>  2 0.42479959E+03</rscale>
<asrwt>0</asrwt>
<pdfrwt beam="1">  1       21 0.43161693E-01 0.42479959E+03</pdfrwt>
<pdfrwt beam="2">  1       21 0.22604343E-01 0.42479959E+03</pdfrwt>
<totfact> 0.88560364E+04</totfact>
</mgrwt>
</event>
<event>
 7    0  0.4732500E-002  0.4524834E+03  0.7546771E-02  0.1026984E+00
         21   -1    0    0  502  501  0.00000000000E+00  0.00000000000E+00  0.38219657167E+02  0.38219657167E+02  0.00000000000E+00 0.  1.
         21   -1    0    0  501  502 -0.00000000000E+00 -0.00000000000E+00 -0.13392406207E+04  0.13392406207E+04  0.00000000000E+00 0.  1.
      99926    2    1    2    0    0  0.00000000000E+00 -0.17763568394E-14 -0.13010209635E+04  0.13774602778E+04  0.45248344671E+03 0.  0.
      99925    2    3    3    0    0  0.13122542029E+02 -0.69361917119E+00 -0.48622471274E+03  0.55301311726E+03  0.26312801898E+03 0.  0.
         25    1    4    4    0    0  0.29932115630E+02  0.16340401152E+02 -0.30595047143E+03  0.33228924046E+03  0.12509000000E+03 0.  0.
         25    1    3    3    0    0 -0.13122542029E+02  0.69361917119E+00 -0.81479625078E+03  0.82444716058E+03  0.12509000000E+03 0.  0.
         25    1    4    4    0    0 -0.16809573601E+02 -0.17034020323E+02 -0.18027424131E+03  0.22072387680E+03  0.12509000000E+03 0.  0.
<mgrwt>
<rscale>  2 0.45248345E+03</rscale>
<asrwt>0</asrwt>
<pdfrwt beam="1">  1       21 0.56205376E-02 0.45248345E+03</pdfrwt>
<pdfrwt beam="2">  1       21 0.19694716E+00 0.45248345E+03</pdfrwt>
<totfact> 0.27472301E+04</totfact>
</mgrwt>
</event>
<event>
 7    0  0.4732500E-002  0.4481362E+03  0.7546771E-02  0.1028279E+00
         21   -1    0    0  502  501  0.00000000000E+00  0.00000000000E+00  0.11724580390E+04  0.11724580390E+04  0.00000000000E+00 0. -1.
         21   -1    0    0  501  502 -0.00000000000E+00 -0.00000000000E+00 -0.42821583244E+02  0.42821583244E+02  0.00000000000E+00 0. -1.
      99926    2    1    2    0    0  0.00000000000E+00 -0.14210854715E-13  0.11296364557E+04  0.12152796222E+04  0.44813618250E+03 0.  0.
      99925    2    3    3    0    0  0.33974173562E+02  0.10107373371E+03  0.71182120830E+03  0.76629495299E+03  0.26296079229E+03 0.  0.
         25    1    4    4    0    0 -0.34965771815E+01  0.12119365586E+02  0.32115616606E+03  0.34488823722E+03  0.12509000000E+03 0.  0.
         25    1    3    3    0    0 -0.33974173562E+02 -0.10107373371E+03  0.41781524743E+03  0.44898466923E+03  0.12509000000E+03 0.  0.
         25    1    4    4    0    0  0.37470750743E+02  0.88954368122E+02  0.39066504225E+03  0.42140671578E+03  0.12509000000E+03 0.  0.
<mgrwt>
<rscale>  2 0.44813618E+03</rscale>
<asrwt>0</asrwt>
<pdfrwt beam="1">  1       21 0.17242028E+00 0.44813618E+03</pdfrwt>
<pdfrwt beam="2">  1       21 0.62972924E-02 0.44813618E+03</pdfrwt>
<totfact> 0.33426971E+04</totfact>
</mgrwt>
</event>
<event>
 7    0  0.4732500E-002  0.4537032E+03  0.7546771E-02  0.1026623E+00
         21   -1    0    0  502  501  0.00000000000E+00  0.00000000000E+00  0.92957298794E+03  0.92957298794E+03  0.00000000000E+00 0.  1.
         21   -1    0    0  501  502 -0.00000000000E+00 -0.00000000000E+00 -0.55360532725E+02  0.55360532725E+02  0.00000000000E+00 0.  1.
      99926    2    1    2    0    0  0.00000000000E+00  0.00000000000E+00  0.87421245522E+03  0.98493352067E+03  0.45370323261E+03 0.  0.
      99925    2    3    3    0    0  0.81815642493E+02  0.65668831930E+02  0.46605827241E+03  0.54533877561E+03  0.26301686648E+03 0.  0.
         25    1    3    3    0    0 -0.81815642493E+02 -0.65668831930E+02  0.40815418280E+03  0.43959474506E+03  0.12509000000E+03 0.  0.
         25    1    4    4    0    0  0.80774255672E+02  0.37676109780E+02  0.22701195617E+03  0.27409105416E+03  0.12509000000E+03 0.  0.
         25    1    4    4    0    0  0.10413868206E+01  0.27992722149E+02  0.23904631625E+03  0.27124772145E+03  0.12509000000E+03 0.  0.
<mgrwt>
<rscale>  2 0.45370323E+03</rscale>
<asrwt>0</asrwt>
<pdfrwt beam="1">  1       21 0.13670190E+00 0.45370323E+03</pdfrwt>
<pdfrwt beam="2">  1       21 0.81412554E-02 0.45370323E+03</pdfrwt>
<totfact> 0.40162947E+04</totfact>
</mgrwt>
</event>
<event>
 6    0  0.4732500E-002  0.4630522E+03  0.7546771E-02  0.1023900E+00
         21   -1    0    0  502  501  0.00000000000E+00  0.00000000000E+00  0.98262386722E+02  0.98262386722E+02  0.00000000000E+00 0.  1.
         21   -1    0    0  501  502 -0.00000000000E+00 -0.00000000000E+00 -0.54552242696E+03  0.54552242696E+03  0.00000000000E+00 0.  1.
      99926    2    1    2    0    0  0.00000000000E+00  0.00000000000E+00 -0.44726004024E+03  0.64378481369E+03  0.46305220304E+03 0.  0.
         25    1    3    3    0    0 -0.75010620867E+01  0.67394507419E+02 -0.57043108074E+02  0.15329615077E+03  0.12509000000E+03 0.  0.
         25    1    3    3    0    0 -0.27888447603E+00  0.22848969284E+02 -0.10012710378E+03  0.16184899809E+03  0.12509000000E+03 0.  0.
         25    1    3    3    0    0  0.77799465627E+01 -0.90243476703E+02 -0.29008982839E+03  0.32863966482E+03  0.12509000000E+03 0.  0.
<mgrwt>
<rscale>  2 0.46305220E+03</rscale>
<asrwt>0</asrwt>
<pdfrwt beam="1">  1       21 0.14450351E-01 0.46305220E+03</pdfrwt>
<pdfrwt beam="2">  1       21 0.80223887E-01 0.46305220E+03</pdfrwt>
<totfact> 0.52635871E+04</totfact>
</mgrwt>
</event>
<event>
 7    0  0.4732500E-002  0.4136598E+03  0.7546771E-02  0.1039150E+00
         21   -1    0    0  502  501  0.00000000000E+00  0.00000000000E+00  0.33830381083E+03  0.33830381083E+03  0.00000000000E+00 0. -1.
         21   -1    0    0  501  502 -0.00000000000E+00 -0.00000000000E+00 -0.12645024994E+03  0.12645024994E+03  0.00000000000E+00 0. -1.
      99926    2    1    2    0    0 -0.35527136788E-14  0.71054273576E-14  0.21185356089E+03  0.46475406076E+03  0.41365977050E+03 0.  0.
      99925    2    3    3    0    0 -0.20299131287E+02  0.39316165613E+02  0.82002736497E+02  0.27910234301E+03  0.26308905996E+03 0.  0.
         25    1    4    4    0    0  0.25859306128E+02  0.74016296936E+00  0.45265021069E+02  0.13552004201E+03  0.12509000000E+03 0.  0.
         25    1    4    4    0    0 -0.46158437416E+02  0.38576002644E+02  0.36737715429E+02  0.14358230100E+03  0.12509000000E+03 0.  0.
         25    1    3    3    0    0  0.20299131287E+02 -0.39316165613E+02  0.12985082439E+03  0.18565171775E+03  0.12509000000E+03 0.  0.
<mgrwt>
<rscale>  2 0.41365977E+03</rscale>
<asrwt>0</asrwt>
<pdfrwt beam="1">  1       21 0.49750560E-01 0.41365977E+03</pdfrwt>
<pdfrwt beam="2">  1       21 0.18595625E-01 0.41365977E+03</pdfrwt>
<totfact> 0.95532187E+04</totfact>
</mgrwt>
</event>
<event>
 7    0  0.4732500E-002  0.4554915E+03  0.7546771E-02  0.1026097E+00
         21   -1    0    0  502  501  0.00000000000E+00  0.00000000000E+00  0.56482120175E+02  0.56482120175E+02  0.00000000000E+00 0.  1.
         21   -1    0    0  501  502 -0.00000000000E+00 -0.00000000000E+00 -0.91831039612E+03  0.91831039612E+03  0.00000000000E+00 0.  1.
      99926    2    1    2    0    0  0.00000000000E+00 -0.14210854715E-13 -0.86182827594E+03  0.97479251629E+03  0.45549146271E+03 0.  0.
      99925    2    3    3    0    0  0.27878960311E+02  0.11004994821E+03 -0.54792412273E+03  0.61832154548E+03  0.26308261403E+03 0.  0.
         25    1    4    4    0    0 -0.24746520722E+01  0.83046533812E+02 -0.34796660308E+03  0.37898695972E+03  0.12509000000E+03 0.  0.
         25    1    3    3    0    0 -0.27878960311E+02 -0.11004994821E+03 -0.31390415321E+03  0.35647097081E+03  0.12509000000E+03 0.  0.
         25    1    4    4    0    0  0.30353612383E+02  0.27003414397E+02 -0.19995751965E+03  0.23933458575E+03  0.12509000000E+03 0.  0.
<mgrwt>
<rscale>  2 0.45549146E+03</rscale>
<asrwt>0</asrwt>
<pdfrwt beam="1">  1       21 0.83061940E-02 0.45549146E+03</pdfrwt>
<pdfrwt beam="2">  1       21 0.13504565E+00 0.45549146E+03</pdfrwt>
<totfact> 0.39998927E+04</totfact>
</mgrwt>
</event>
<event>
 7    0  0.4732500E-002  0.4601398E+03  0.7546771E-02  0.1024741E+00
         21   -1    0    0  502  501  0.00000000000E+00  0.00000000000E+00  0.72303357275E+03  0.72303357275E+03  0.00000000000E+00 0.  1.
         21   -1    0    0  501  502 -0.00000000000E+00 -0.00000000000E+00 -0.73208446381E+02  0.73208446381E+02  0.00000000000E+00 0.  1.
      99926    2    1    2    0    0  0.00000000000E+00  0.35527136788E-14  0.64982512637E+03  0.79624201913E+03  0.46013982459E+03 0.  0.
      99925    2    3    3    0    0 -0.10976478162E+03 -0.31911688042E+02  0.35594388046E+03  0.45700705939E+03  0.26285498507E+03 0.  0.
         25    1    4    4    0    0 -0.37485957382E+02 -0.50578307103E+02  0.19281841500E+03  0.23830612962E+03  0.12509000000E+03 0.  0.
         25    1    4    4    0    0 -0.72278824234E+02  0.18666619062E+02  0.16312546546E+03  0.21870092977E+03  0.12509000000E+03 0.  0.
         25    1    3    3    0    0  0.10976478162E+03  0.31911688042E+02  0.29388124590E+03  0.33923495974E+03  0.12509000000E+03 0.  0.
<mgrwt>
<rscale>  2 0.46013982E+03</rscale>
<asrwt>0</asrwt>
<pdfrwt beam="1">  1       21 0.10632846E+00 0.46013982E+03</pdfrwt>
<pdfrwt beam="2">  1       21 0.10765948E-01 0.46013982E+03</pdfrwt>
<totfact> 0.46060854E+04</totfact>
</mgrwt>
</event>
<event>
 7    0  0.4732500E-002  0.4551257E+03  0.7546771E-02  0.1026204E+00
         21   -1    0    0  502  501  0.00000000000E+00  0.00000000000E+00  0.58862298606E+03  0.58862298606E+03  0.00000000000E+00 0. -1.
         21   -1    0    0  501  502 -0.00000000000E+00 -0.00000000000E+00 -0.87976260970E+02  0.87976260970E+02  0.00000000000E+00 0. -1.
      99926    2    1    2    0    0  0.00000000000E+00  0.00000000000E+00  0.50064672509E+03  0.67659924703E+03  0.45512569444E+03 0.  0.
      99925    2    3    3    0    0  0.72613392166E+02  0.85998975401E+02  0.33411966790E+03  0.43985614287E+03  0.26299989629E+03 0.  0.
         25    1    4    4    0    0  0.45625014890E+02  0.68313268228E+02  0.22773464665E+03  0.27250490268E+03  0.12509000000E+03 0.  0.
         25    1    3    3    0    0 -0.72613392166E+02 -0.85998975401E+02  0.16652705719E+03  0.23674310416E+03  0.12509000000E+03 0.  0.
         25    1    4    4    0    0  0.26988377275E+02  0.17685707172E+02  0.10638502125E+03  0.16735124019E+03  0.12509000000E+03 0.  0.
<mgrwt>
<rscale>  2 0.45512569E+03</rscale>
<asrwt>0</asrwt>
<pdfrwt beam="1">  1       21 0.86562202E-01 0.45512569E+03</pdfrwt>
<pdfrwt beam="2">  1       21 0.12937686E-01 0.45512569E+03</pdfrwt>
<totfact> 0.54138848E+04</totfact>
</mgrwt>
</event>
<event>
 7    0  0.4732500E-002  0.4468991E+03  0.7546771E-02  0.1028651E+00
         21   -1    0    0  502  501  0.00000000000E+00  0.00000000000E+00  0.11561390225E+03  0.11561390225E+03  0.00000000000E+00 0.  1.
         21   -1    0    0  501  502 -0.00000000000E+00 -0.00000000000E+00 -0.43186593987E+03  0.43186593987E+03  0.00000000000E+00 0.  1.
      99926    2    1    2    0    0  0.00000000000E+00  0.00000000000E+00 -0.31625203762E+03  0.54747984213E+03  0.44689912311E+03 0.  0.
      99925    2    3    3    0    0 -0.44351292186E+02  0.49708227037E+02 -0.30066730058E+03  0.40490236465E+03  0.26288239635E+03 0.  0.
         25    1    3    3    0    0  0.44351292186E+02 -0.49708227037E+02 -0.15584737040E+02  0.14257747747E+03  0.12509000000E+03 0.  0.
         25    1    4    4    0    0 -0.33891710192E+02 -0.89760148399E+00 -0.19041298766E+03  0.23033468622E+03  0.12509000000E+03 0.  0.
         25    1    4    4    0    0 -0.10459581994E+02  0.50605828521E+02 -0.11025431292E+03  0.17456767843E+03  0.12509000000E+03 0.  0.
<mgrwt>
<rscale>  2 0.44689912E+03</rscale>
<asrwt>0</asrwt>
<pdfrwt beam="1">  1       21 0.17002044E-01 0.44689912E+03</pdfrwt>
<pdfrwt beam="2">  1       21 0.63509698E-01 0.44689912E+03</pdfrwt>
<totfact> 0.66173977E+04</totfact>
</mgrwt>
</event>
<event>
 7    0  0.4732500E-002  0.4551765E+03  0.7546771E-02  0.1026190E+00
         21   -1    0    0  502  501  0.00000000000E+00  0.00000000000E+00  0.31370346859E+03  0.31370346859E+03  0.00000000000E+00 0.  1.
         21   -1    0    0  501  502 -0.00000000000E+00 -0.00000000000E+00 -0.16511268202E+03  0.16511268202E+03  0.00000000000E+00 0.  1.
      99926    2    1    2    0    0  0.00000000000E+00  0.00000000000E+00  0.14859078657E+03  0.47881615060E+03  0.45517654182E+03 0.  0.
      99925    2    3    3    0    0 -0.91941936005E+02 -0.35595572799E+02  0.15217157710E+03  0.31950295416E+03  0.26306954298E+03 0.  0.
         25    1    4    4    0    0 -0.13218185831E+02 -0.42901871605E+02  0.68836155125E+02  0.14967035570E+03  0.12509000000E+03 0.  0.
         25    1    4    4    0    0 -0.78723750174E+02  0.73062988056E+01  0.83335421978E+02  0.16983259846E+03  0.12509000000E+03 0.  0.
         25    1    3    3    0    0  0.91941936005E+02  0.35595572799E+02 -0.35807905337E+01  0.15931319644E+03  0.12509000000E+03 0.  0.
<mgrwt>
<rscale>  2 0.45517654E+03</rscale>
<asrwt>0</asrwt>
<pdfrwt beam="1">  1       21 0.46132863E-01 0.45517654E+03</pdfrwt>
<pdfrwt beam="2">  1       21 0.24281277E-01 0.45517654E+03</pdfrwt>
<totfact> 0.66692871E+04</totfact>
</mgrwt>
</event>
<event>
 7    0  0.4732500E-002  0.4536481E+03  0.7546771E-02  0.1026640E+00
         21   -1    0    0  502  501  0.00000000000E+00  0.00000000000E+00  0.52703272033E+03  0.52703272033E+03  0.00000000000E+00 0.  1.
         21   -1    0    0  501  502 -0.00000000000E+00 -0.00000000000E+00 -0.97620398351E+02  0.97620398351E+02  0.00000000000E+00 0.  1.
      99926    2    1    2    0    0 -0.71054273576E-14  0.14210854715E-13  0.42941232198E+03  0.62465311868E+03  0.45364807551E+03 0.  0.
      99925    2    3    3    0    0  0.52977276010E+02 -0.96374253955E+02  0.29905514429E+03  0.41314640372E+03  0.26298551858E+03 0.  0.
         25    1    4    4    0    0  0.21989301845E+00 -0.13656895860E+02  0.14067943901E+03  0.18874525641E+03  0.12509000000E+03 0.  0.
         25    1    4    4    0    0  0.52757382992E+02 -0.82717358095E+02  0.15837570528E+03  0.22440114731E+03  0.12509000000E+03 0.  0.
         25    1    3    3    0    0 -0.52977276010E+02  0.96374253955E+02  0.13035717768E+03  0.21150671496E+03  0.12509000000E+03 0.  0.
<mgrwt>
<rscale>  2 0.45364808E+03</rscale>
<asrwt>0</asrwt>
<pdfrwt beam="1">  1       21 0.77504811E-01 0.45364808E+03</pdfrwt>
<pdfrwt beam="2">  1       21 0.14355941E-01 0.45364808E+03</pdfrwt>
<totfact> 0.57800383E+04</totfact>
</mgrwt>
</event>
<event>
 7    0  0.4732500E-002  0.4525126E+03  0.7546771E-02  0.1026975E+00
         21   -1    0    0  502  501  0.00000000000E+00  0.00000000000E+00  0.53914835073E+02  0.53914835073E+02  0.00000000000E+00 0. -1.
         21   -1    0    0  501  502 -0.00000000000E+00 -0.00000000000E+00 -0.94949572515E+03  0.94949572515E+03  0.00000000000E+00 0. -1.
      99926    2    1    2    0    0  0.00000000000E+00  0.35527136788E-14 -0.89558089007E+03  0.10034105602E+04  0.45251256523E+03 0.  0.
      99925    2    3    3    0    0  0.54408376702E+02 -0.24727998384E+02 -0.35802673682E+03  0.44826758662E+03  0.26303790520E+03 0.  0.
         25    1    4    4    0    0  0.39791855115E+02 -0.81687386601E+01 -0.11797700227E+03  0.17668107196E+03  0.12509000000E+03 0.  0.
         25    1    3    3    0    0 -0.54408376702E+02  0.24727998384E+02 -0.53755415325E+03  0.55514297360E+03  0.12509000000E+03 0.  0.
         25    1    4    4    0    0  0.14616521586E+02 -0.16559259724E+02 -0.24004973455E+03  0.27158651466E+03  0.12509000000E+03 0.  0.
<mgrwt>
<rscale>  2 0.45251257E+03</rscale>
<asrwt>0</asrwt>
<pdfrwt beam="1">  1       21 0.79286528E-02 0.45251257E+03</pdfrwt>
<pdfrwt beam="2">  1       21 0.13963171E+00 0.45251257E+03</pdfrwt>
<totfact> 0.39801969E+04</totfact>
</mgrwt>
</event>
<event>
 7    0  0.4732500E-002  0.4564162E+03  0.7546771E-02  0.1025826E+00
         21   -1    0    0  502  501  0.00000000000E+00  0.00000000000E+00  0.77283094673E+03  0.77283094673E+03  0.00000000000E+00 0. -1.
         21   -1    0    0  501  502 -0.00000000000E+00 -0.00000000000E+00 -0.67387239425E+02  0.67387239425E+02  0.00000000000E+00 0. -1.
      99926    2    1    2    0    0 -0.14210854715E-13 -0.35527136788E-14  0.70544370731E+03  0.84021818616E+03  0.45641623127E+03 0.  0.
      99925    2    3    3    0    0 -0.96424960777E+02 -0.21133148315E+02  0.54965495401E+03  0.61736840093E+03  0.26320864535E+03 0.  0.
         25    1    4    4    0    0 -0.85348979123E+02 -0.14745922585E+02  0.25397012871E+03  0.29605780660E+03  0.12509000000E+03 0.  0.
         25    1    4    4    0    0 -0.11075981654E+02 -0.63872257306E+01  0.29568482530E+03  0.32131059434E+03  0.12509000000E+03 0.  0.
         25    1    3    3    0    0  0.96424960777E+02  0.21133148315E+02  0.15578875330E+03  0.22284978522E+03  0.12509000000E+03 0.  0.
<mgrwt>
<rscale>  2 0.45641623E+03</rscale>
<asrwt>0</asrwt>
<pdfrwt beam="1">  1       21 0.11365160E+00 0.45641623E+03</pdfrwt>
<pdfrwt beam="2">  1       21 0.99098886E-02 0.45641623E+03</pdfrwt>
<totfact> 0.45373925E+04</totfact>
</mgrwt>
</event>
<event>
 7    0  0.4732500E-002  0.4586262E+03  0.7546771E-02  0.1025180E+00
         21   -1    0    0  502  501  0.00000000000E+00  0.00000000000E+00  0.15979949284E+03  0.15979949284E+03  0.00000000000E+00 0.  1.
         21   -1    0    0  501  502 -0.00000000000E+00 -0.00000000000E+00 -0.32906546796E+03  0.32906546796E+03  0.00000000000E+00 0.  1.
      99926    2    1    2    0    0  0.00000000000E+00  0.00000000000E+00 -0.16926597512E+03  0.48886496081E+03  0.45862618718E+03 0.  0.
      99925    2    3    3    0    0 -0.28941752884E+02 -0.83009343754E+02 -0.18770292504E+03  0.33486624187E+03  0.26301109419E+03 0.  0.
         25    1    4    4    0    0 -0.35829381228E+02 -0.59316699288E+02 -0.13579221164E+03  0.19720357049E+03  0.12509000000E+03 0.  0.
         25    1    4    4    0    0  0.68876283434E+01 -0.23692644466E+02 -0.51910713398E+02  0.13766267138E+03  0.12509000000E+03 0.  0.
         25    1    3    3    0    0  0.28941752884E+02  0.83009343754E+02  0.18436949917E+02  0.15399871893E+03  0.12509000000E+03 0.  0.
<mgrwt>
<rscale>  2 0.45862619E+03</rscale>
<asrwt>0</asrwt>
<pdfrwt beam="1">  1       21 0.23499926E-01 0.45862619E+03</pdfrwt>
<pdfrwt beam="2">  1       21 0.48391980E-01 0.45862619E+03</pdfrwt>
<totfact> 0.64192366E+04</totfact>
</mgrwt>
</event>
<event>
 7    0  0.4732500E-002  0.4547067E+03  0.7546771E-02  0.1026328E+00
         21   -1    0    0  502  501  0.00000000000E+00  0.00000000000E+00  0.10509632218E+03  0.10509632218E+03  0.00000000000E+00 0.  1.
         21   -1    0    0  501  502 -0.00000000000E+00 -0.00000000000E+00 -0.49183020897E+03  0.49183020897E+03  0.00000000000E+00 0.  1.
      99926    2    1    2    0    0  0.71054273576E-14  0.00000000000E+00 -0.38673388678E+03  0.59692653115E+03  0.45470670152E+03 0.  0.
      99925    2    3    3    0    0  0.33836467526E+02  0.74378390793E+02 -0.34563101363E+03  0.44196200027E+03  0.26304478809E+03 0.  0.
         25    1    4    4    0    0  0.48475263056E+02  0.62713644099E+02 -0.16880601761E+03  0.22455696820E+03  0.12509000000E+03 0.  0.
         25    1    4    4    0    0 -0.14638795530E+02  0.11664746695E+02 -0.17682499602E+03  0.21740503207E+03  0.12509000000E+03 0.  0.
         25    1    3    3    0    0 -0.33836467526E+02 -0.74378390793E+02 -0.41102873149E+02  0.15496453089E+03  0.12509000000E+03 0.  0.
<mgrwt>
<rscale>  2 0.45470670E+03</rscale>
<asrwt>0</asrwt>
<pdfrwt beam="1">  1       21 0.15455341E-01 0.45470670E+03</pdfrwt>
<pdfrwt beam="2">  1       21 0.72327973E-01 0.45470670E+03</pdfrwt>
<totfact> 0.59004478E+04</totfact>
</mgrwt>
</event>
<event>
 7    0  0.4732500E-002  0.4492125E+03  0.7546771E-02  0.1027957E+00
         21   -1    0    0  502  501  0.00000000000E+00  0.00000000000E+00  0.30112201063E+02  0.30112201063E+02  0.00000000000E+00 0. -1.
         21   -1    0    0  501  502 -0.00000000000E+00 -0.00000000000E+00 -0.16753333544E+04  0.16753333544E+04  0.00000000000E+00 0. -1.
      99926    2    1    2    0    0  0.00000000000E+00  0.00000000000E+00 -0.16452211533E+04  0.17054455554E+04  0.44921253239E+03 0.  0.
      99925    2    3    3    0    0 -0.43133554586E+02  0.97622000138E+02 -0.10941663891E+04  0.11303808463E+04  0.26300230453E+03 0.  0.
         25    1    4    4    0    0 -0.25999982023E+02  0.36934721451E+02 -0.68797102137E+03  0.70070807549E+03  0.12509000000E+03 0.  0.
         25    1    3    3    0    0  0.43133554586E+02 -0.97622000138E+02 -0.55105476426E+03  0.57506470919E+03  0.12509000000E+03 0.  0.
         25    1    4    4    0    0 -0.17133572563E+02  0.60687278687E+02 -0.40619536769E+03  0.42967277076E+03  0.12509000000E+03 0.  0.
<mgrwt>
<rscale>  2 0.44921253E+03</rscale>
<asrwt>0</asrwt>
<pdfrwt beam="1">  1       21 0.44282647E-02 0.44921253E+03</pdfrwt>
<pdfrwt beam="2">  1       21 0.24637256E+00 0.44921253E+03</pdfrwt>
<totfact> 0.20033876E+04</totfact>
</mgrwt>
</event>
<event>
 7    0  0.4732500E-002  0.4587528E+03  0.7546771E-02  0.1025144E+00
         21   -1    0    0  502  501  0.00000000000E+00  0.00000000000E+00  0.45022809709E+02  0.45022809709E+02  0.00000000000E+00 0. -1.
         21   -1    0    0  501  502 -0.00000000000E+00 -0.00000000000E+00 -0.11685973157E+04  0.11685973157E+04  0.00000000000E+00 0. -1.
      99926    2    1    2    0    0  0.00000000000E+00  0.00000000000E+00 -0.11235745060E+04  0.12136201254E+04  0.45875280739E+03 0.  0.
      99925    2    3    3    0    0  0.52203933429E+02  0.85957605763E+02 -0.86129751763E+03  0.90612917046E+03  0.26291196061E+03 0.  0.
         25    1    4    4    0    0  0.49123850644E+01  0.20404052750E+02 -0.30695747591E+03  0.33213078299E+03  0.12509000000E+03 0.  0.
         25    1    3    3    0    0 -0.52203933429E+02 -0.85957605763E+02 -0.26227698839E+03  0.30749095497E+03  0.12509000000E+03 0.  0.
         25    1    4    4    0    0  0.47291548364E+02  0.65553553013E+02 -0.55434004172E+03  0.57399838746E+03  0.12509000000E+03 0.  0.
<mgrwt>
<rscale>  2 0.45875281E+03</rscale>
<asrwt>0</asrwt>
<pdfrwt beam="1">  1       21 0.66210026E-02 0.45875281E+03</pdfrwt>
<pdfrwt beam="2">  1       21 0.17185252E+00 0.45875281E+03</pdfrwt>
<totfact> 0.30816548E+04</totfact>
</mgrwt>
</event>
<event>
 7    0  0.4732500E-002  0.4584147E+03  0.7546771E-02  0.1025242E+00
         21   -1    0    0  502  501  0.00000000000E+00  0.00000000000E+00  0.67788379102E+03  0.67788379102E+03  0.00000000000E+00 0. -1.
         21   -1    0    0  501  502 -0.00000000000E+00 -0.00000000000E+00 -0.77500016359E+02  0.77500016359E+02  0.00000000000E+00 0. -1.
      99926    2    1    2    0    0  0.71054273576E-14  0.00000000000E+00  0.60038377466E+03  0.75538380738E+03  0.45841468080E+03 0.  0.
      99925    2    3    3    0    0 -0.46537811183E+02 -0.78522138794E+02  0.49554288042E+03  0.56837948830E+03  0.26298479467E+03 0.  0.
         25    1    3    3    0    0  0.46537811183E+02  0.78522138794E+02  0.10484089424E+03  0.18700431908E+03  0.12509000000E+03 0.  0.
         25    1    4    4    0    0 -0.15618139117E+02 -0.80371387893E+02  0.26770885696E+03  0.30662522149E+03  0.12509000000E+03 0.  0.
         25    1    4    4    0    0 -0.30919672066E+02  0.18492490989E+01  0.22783402347E+03  0.26175426681E+03  0.12509000000E+03 0.  0.
<mgrwt>
<rscale>  2 0.45841468E+03</rscale>
<asrwt>0</asrwt>
<pdfrwt beam="1">  1       21 0.99688790E-01 0.45841468E+03</pdfrwt>
<pdfrwt beam="2">  1       21 0.11397062E-01 0.45841468E+03</pdfrwt>
<totfact> 0.48677605E+04</totfact>
</mgrwt>
</event>
<event>
 7    0  0.4732500E-002  0.4556370E+03  0.7546771E-02  0.1026054E+00
         21   -1    0    0  502  501  0.00000000000E+00  0.00000000000E+00  0.16001196374E+03  0.16001196374E+03  0.00000000000E+00 0. -1.
         21   -1    0    0  501  502 -0.00000000000E+00 -0.00000000000E+00 -0.32435868794E+03  0.32435868794E+03  0.00000000000E+00 0. -1.
      99926    2    1    2    0    0  0.00000000000E+00  0.00000000000E+00 -0.16434672419E+03  0.48437065168E+03  0.45563700734E+03 0.  0.
      99925    2    3    3    0    0  0.32484737351E+02  0.41254078776E+02 -0.21066842367E+03  0.34101666632E+03  0.26297152849E+03 0.  0.
         25    1    4    4    0    0  0.14092570003E+02  0.97667309589E+01 -0.54202714897E+02  0.13740244527E+03  0.12509000000E+03 0.  0.
         25    1    3    3    0    0 -0.32484737351E+02 -0.41254078776E+02  0.46321699480E+02  0.14335398536E+03  0.12509000000E+03 0.  0.
         25    1    4    4    0    0  0.18392167348E+02  0.31487347817E+02 -0.15646570877E+03  0.20361422105E+03  0.12509000000E+03 0.  0.
<mgrwt>
<rscale>  2 0.45563701E+03</rscale>
<asrwt>0</asrwt>
<pdfrwt beam="1">  1       21 0.23531171E-01 0.45563701E+03</pdfrwt>
<pdfrwt beam="2">  1       21 0.47699807E-01 0.45563701E+03</pdfrwt>
<totfact> 0.66048681E+04</totfact>
</mgrwt>
</event>
<event>
 7    0  0.4732500E-002  0.4526415E+03  0.7546771E-02  0.1026937E+00
         21   -1    0    0  502  501  0.00000000000E+00  0.00000000000E+00  0.38704084218E+02  0.38704084218E+02  0.00000000000E+00 0. -1.
         21   -1    0    0  501  502 -0.00000000000E+00 -0.00000000000E+00 -0.13234023121E+04  0.13234023121E+04  0.00000000000E+00 0. -1.
      99926    2    1    2    0    0  0.00000000000E+00  0.71054273576E-14 -0.12846982279E+04  0.13621063963E+04  0.45264146757E+03 0.  0.
      99925    2    3    3    0    0  0.89872276213E+02  0.62942930315E+02 -0.76065432053E+03  0.81228063897E+03  0.26299430146E+03 0.  0.
         25    1    3    3    0    0 -0.89872276213E+02 -0.62942930315E+02 -0.52404390736E+03  0.54982575735E+03  0.12509000000E+03 0.  0.
         25    1    4    4    0    0  0.10238151628E+02  0.50718314894E+02 -0.33197921556E+03  0.35851760748E+03  0.12509000000E+03 0.  0.
         25    1    4    4    0    0  0.79634124585E+02  0.12224615421E+02 -0.42867510497E+03  0.45376303148E+03  0.12509000000E+03 0.  0.
<mgrwt>
<rscale>  2 0.45264147E+03</rscale>
<asrwt>0</asrwt>
<pdfrwt beam="1">  1       21 0.56917775E-02 0.45264147E+03</pdfrwt>
<pdfrwt beam="2">  1       21 0.19461797E+00 0.45264147E+03</pdfrwt>
<totfact> 0.27866916E+04</totfact>
</mgrwt>
</event>
<event>
 7    0  0.4732500E-002  0.4530193E+03  0.7546771E-02  0.1026825E+00
         21   -1    0    0  502  501  0.00000000000E+00  0.00000000000E+00  0.59423057190E+02  0.59423057190E+02  0.00000000000E+00 0.  1.
         21   -1    0    0  501  502 -0.00000000000E+00 -0.00000000000E+00 -0.86341254550E+03  0.86341254550E+03  0.00000000000E+00 0.  1.
      99926    2    1    2    0    0  0.55511151231E-14  0.00000000000E+00 -0.80398948831E+03  0.92283560269E+03  0.45301926259E+03 0.  0.
      99925    2    3    3    0    0 -0.31412343733E+00  0.12575810614E+02 -0.28241105822E+03  0.38631923153E+03  0.26330266455E+03 0.  0.
         25    1    4    4    0    0  0.32632765774E+02 -0.11182648904E+02 -0.16586238855E+03  0.21058914757E+03  0.12509000000E+03 0.  0.
         25    1    4    4    0    0 -0.32946889211E+02  0.23758459519E+02 -0.11654866967E+03  0.17573008396E+03  0.12509000000E+03 0.  0.
         25    1    3    3    0    0  0.31412343733E+00 -0.12575810614E+02 -0.52157843009E+03  0.53651637116E+03  0.12509000000E+03 0.  0.
<mgrwt>
<rscale>  2 0.45301926E+03</rscale>
<asrwt>0</asrwt>
<pdfrwt beam="1">  1       21 0.87386850E-02 0.45301926E+03</pdfrwt>
<pdfrwt beam="2">  1       21 0.12697243E+00 0.45301926E+03</pdfrwt>
<totfact> 0.42922028E+04</totfact>
</mgrwt>
</event>
<event>
 7    0  0.4732500E-002  0.4609490E+03  0.7546771E-02  0.1024506E+00
         21   -1    0    0  502  501  0.00000000000E+00  0.00000000000E+00  0.26633199095E+03  0.26633199095E+03  0.00000000000E+00 0.  1.
         21   -1    0    0  501  502 -0.00000000000E+00 -0.00000000000E+00 -0.19944466281E+03  0.19944466281E+03  0.00000000000E+00 0.  1.
      99926    2    1    2    0    0  0.00000000000E+00  0.17763568394E-14  0.66887328146E+02  0.46577665376E+03  0.46094899557E+03 0.  0.
      99925    2    3    3    0    0  0.11465701175E+03  0.64901379519E+01  0.11849432029E+02  0.28726886586E+03  0.26304874076E+03 0.  0.
         25    1    4    4    0    0  0.69708688872E+02 -0.34582842662E+02  0.15248013696E+02  0.14810565260E+03  0.12509000000E+03 0.  0.
         25    1    4    4    0    0  0.44948322875E+02  0.41072980614E+02 -0.33985816664E+01  0.13916321325E+03  0.12509000000E+03 0.  0.
         25    1    3    3    0    0 -0.11465701175E+03 -0.64901379519E+01  0.55037896117E+02  0.17850778790E+03  0.12509000000E+03 0.  0.
<mgrwt>
<rscale>  2 0.46094900E+03</rscale>
<asrwt>0</asrwt>
<pdfrwt beam="1">  1       21 0.39166469E-01 0.46094900E+03</pdfrwt>
<pdfrwt beam="2">  1       21 0.29330098E-01 0.46094900E+03</pdfrwt>
<totfact> 0.64640128E+04</totfact>
</mgrwt>
</event>
<event>
 7    0  0.4732500E-002  0.4558543E+03  0.7546771E-02  0.1025990E+00
         21   -1    0    0  502  501  0.00000000000E+00  0.00000000000E+00  0.50178189027E+03  0.50178189027E+03  0.00000000000E+00 0. -1.
         21   -1    0    0  501  502 -0.00000000000E+00 -0.00000000000E+00 -0.10353258468E+03  0.10353258468E+03  0.00000000000E+00 0. -1.
      99926    2    1    2    0    0  0.00000000000E+00  0.00000000000E+00  0.39824930558E+03  0.60531447495E+03  0.45585425762E+03 0.  0.
      99925    2    3    3    0    0 -0.38748299132E+02  0.55569440342E+02  0.37214426917E+03  0.46068261673E+03  0.26295954613E+03 0.  0.
         25    1    4    4    0    0  0.12076810919E+02  0.52259784989E+02  0.19896079513E+03  0.24105982782E+03  0.12509000000E+03 0.  0.
         25    1    3    3    0    0  0.38748299132E+02 -0.55569440342E+02  0.26105036415E+02  0.14463185822E+03  0.12509000000E+03 0.  0.
         25    1    4    4    0    0 -0.50825110050E+02  0.33096553531E+01  0.17318347404E+03  0.21962278892E+03  0.12509000000E+03 0.  0.
<mgrwt>
<rscale>  2 0.45585426E+03</rscale>
<asrwt>0</asrwt>
<pdfrwt beam="1">  1       21 0.73791453E-01 0.45585426E+03</pdfrwt>
<pdfrwt beam="2">  1       21 0.15225380E-01 0.45585426E+03</pdfrwt>
<totfact> 0.57960189E+04</totfact>
</mgrwt>
</event>
<event>
 7    0  0.4732500E-002  0.4498020E+03  0.7546771E-02  0.1027781E+00
         21   -1    0    0  502  501  0.00000000000E+00  0.00000000000E+00  0.25929081592E+02  0.25929081592E+02  0.00000000000E+00 0.  1.
         21   -1    0    0  501  502 -0.00000000000E+00 -0.00000000000E+00 -0.19507234022E+04  0.19507234022E+04  0.00000000000E+00 0.  1.
      99926    2    1    2    0    0  0.71054273576E-14  0.00000000000E+00 -0.19247943206E+04  0.19766524838E+04  0.44980202871E+03 0.  0.
      99925    2    3    3    0    0  0.62925990906E+02  0.46799344358E+02 -0.15443328517E+04  0.15685491925E+04  0.26312117625E+03 0.  0.
         25    1    4    4    0    0  0.35482772742E+02  0.13251151302E+02 -0.99197077593E+03  0.10005439264E+04  0.12509000000E+03 0.  0.
         25    1    3    3    0    0 -0.62925990906E+02 -0.46799344358E+02 -0.38046146887E+03  0.40810329129E+03  0.12509000000E+03 0.  0.
         25    1    4    4    0    0  0.27443218164E+02  0.33548193056E+02 -0.55236207577E+03  0.56800526611E+03  0.12509000000E+03 0.  0.
<mgrwt>
<rscale>  2 0.44980203E+03</rscale>
<asrwt>0</asrwt>
<pdfrwt beam="1">  1       21 0.38131004E-02 0.44980203E+03</pdfrwt>
<pdfrwt beam="2">  1       21 0.28687108E+00 0.44980203E+03</pdfrwt>
<totfact> 0.14678073E+04</totfact>
</mgrwt>
</event>
<event>
 7    0  0.4732500E-002  0.4316580E+03  0.7546771E-02  0.1033337E+00
         21   -1    0    0  502  501  0.00000000000E+00  0.00000000000E+00  0.20379696359E+03  0.20379696359E+03  0.00000000000E+00 0.  1.
         21   -1    0    0  501  502 -0.00000000000E+00 -0.00000000000E+00 -0.22857140206E+03  0.22857140206E+03  0.00000000000E+00 0.  1.
      99926    2    1    2    0    0  0.00000000000E+00  0.17763568394E-14 -0.24774438477E+02  0.43236836565E+03  0.43165800214E+03 0.  0.
      99925    2    3    3    0    0 -0.80819902544E+02 -0.76839411138E+01 -0.53903488260E+02  0.28042459566E+03  0.26294765297E+03 0.  0.
         25    1    4    4    0    0 -0.40265260448E+02 -0.16078408772E+02  0.12299884182E+02  0.13296090282E+03  0.12509000000E+03 0.  0.
         25    1    4    4    0    0 -0.40554642095E+02  0.83944676578E+01 -0.66203372443E+02  0.14746369284E+03  0.12509000000E+03 0.  0.
         25    1    3    3    0    0  0.80819902544E+02  0.76839411138E+01  0.29129049783E+02  0.15194376999E+03  0.12509000000E+03 0.  0.
<mgrwt>
<rscale>  2 0.43165800E+03</rscale>
<asrwt>0</asrwt>
<pdfrwt beam="1">  1       21 0.29970142E-01 0.43165800E+03</pdfrwt>
<pdfrwt beam="2">  1       21 0.33613441E-01 0.43165800E+03</pdfrwt>
<totfact> 0.84997577E+04</totfact>
</mgrwt>
</event>
<event>
 7    0  0.4732500E-002  0.4538383E+03  0.7546771E-02  0.1026584E+00
         21   -1    0    0  502  501  0.00000000000E+00  0.00000000000E+00  0.29682561300E+04  0.29682561300E+04  0.00000000000E+00 0. -1.
         21   -1    0    0  501  502 -0.00000000000E+00 -0.00000000000E+00 -0.17347660372E+02  0.17347660372E+02  0.00000000000E+00 0. -1.
      99926    2    1    2    0    0  0.00000000000E+00 -0.71054273576E-14  0.29509084696E+04  0.29856037904E+04  0.45383829385E+03 0.  0.
      99925    2    3    3    0    0  0.19627772715E+02 -0.54865659528E+02  0.12283512124E+04  0.12575278364E+04  0.26293358161E+03 0.  0.
         25    1    4    4    0    0 -0.99923144181E+01 -0.52164977836E+02  0.51198791614E+03  0.52971706187E+03  0.12509000000E+03 0.  0.
         25    1    4    4    0    0  0.29620087133E+02 -0.27006816926E+01  0.71636329626E+03  0.72781077456E+03  0.12509000000E+03 0.  0.
         25    1    3    3    0    0 -0.19627772715E+02  0.54865659528E+02  0.17225572572E+04  0.17280759540E+04  0.12509000000E+03 0.  0.
<mgrwt>
<rscale>  2 0.45383829E+03</rscale>
<asrwt>0</asrwt>
<pdfrwt beam="1">  1       21 0.43650790E+00 0.45383829E+03</pdfrwt>
<pdfrwt beam="2">  1       21 0.25511286E-02 0.45383829E+03</pdfrwt>
<totfact> 0.33585167E+03</totfact>
</mgrwt>
</event>
<event>
 7    0  0.4732500E-002  0.4495070E+03  0.7546771E-02  0.1027869E+00
         21   -1    0    0  502  501  0.00000000000E+00  0.00000000000E+00  0.90778537631E+02  0.90778537631E+02  0.00000000000E+00 0.  1.
         21   -1    0    0  501  502 -0.00000000000E+00 -0.00000000000E+00 -0.55645465351E+03  0.55645465351E+03  0.00000000000E+00 0.  1.
      99926    2    1    2    0    0  0.00000000000E+00  0.00000000000E+00 -0.46567611588E+03  0.64723319114E+03  0.44950701754E+03 0.  0.
      99925    2    3    3    0    0 -0.49365821008E+02  0.94127186439E+02 -0.32183533488E+03  0.42897969200E+03  0.26296136951E+03 0.  0.
         25    1    4    4    0    0 -0.50702096537E+02  0.24222934999E+02 -0.18954944252E+03  0.23395288507E+03  0.12509000000E+03 0.  0.
         25    1    3    3    0    0  0.49365821008E+02 -0.94127186439E+02 -0.14384078099E+03  0.21825349914E+03  0.12509000000E+03 0.  0.
         25    1    4    4    0    0  0.13362755283E+01  0.69904251440E+02 -0.13228589236E+03  0.19502680693E+03  0.12509000000E+03 0.  0.
<mgrwt>
<rscale>  2 0.44950702E+03</rscale>
<asrwt>0</asrwt>
<pdfrwt beam="1">  1       21 0.13349785E-01 0.44950702E+03</pdfrwt>
<pdfrwt beam="2">  1       21 0.81831566E-01 0.44950702E+03</pdfrwt>
<totfact> 0.58348952E+04</totfact>
</mgrwt>
</event>
<event>
 6    0  0.4732500E-002  0.4504069E+03  0.7546771E-02  0.1027601E+00
         21   -1    0    0  502  501  0.00000000000E+00  0.00000000000E+00  0.70954994903E+02  0.70954994903E+02  0.00000000000E+00 0.  1.
         21   -1    0    0  501  502 -0.00000000000E+00 -0.00000000000E+00 -0.71477114557E+03  0.71477114557E+03  0.00000000000E+00 0.  1.
      99926    2    1    2    0    0  0.71054273576E-14  0.00000000000E+00 -0.64381615067E+03  0.78572614048E+03  0.45040685160E+03 0.  0.
         25    1    3    3    0    0  0.80765416588E+00 -0.19538994936E+02 -0.21075170332E+03  0.24585811596E+03  0.12509000000E+03 0.  0.
         25    1    3    3    0    0  0.55958657803E+02 -0.52786868931E+02 -0.11709626771E+03  0.18782137505E+03  0.12509000000E+03 0.  0.
         25    1    3    3    0    0 -0.56766311969E+02  0.72325863867E+02 -0.31596817964E+03  0.35204664947E+03  0.12509000000E+03 0.  0.
<mgrwt>
<rscale>  2 0.45040685E+03</rscale>
<asrwt>0</asrwt>
<pdfrwt beam="1">  1       21 0.10434558E-01 0.45040685E+03</pdfrwt>
<pdfrwt beam="2">  1       21 0.10511340E+00 0.45040685E+03</pdfrwt>
<totfact> 0.50250214E+04</totfact>
</mgrwt>
</event>
<event>
 7    0  0.4732500E-002  0.4657002E+03  0.7546771E-02  0.1023141E+00
         21   -1    0    0  502  501  0.00000000000E+00  0.00000000000E+00  0.20162110468E+03  0.20162110468E+03  0.00000000000E+00 0. -1.
         21   -1    0    0  501  502 -0.00000000000E+00 -0.00000000000E+00 -0.26891609590E+03  0.26891609590E+03  0.00000000000E+00 0. -1.
      99926    2    1    2    0    0  0.00000000000E+00  0.71054273576E-14 -0.67294991222E+02  0.47053720058E+03  0.46570016243E+03 0.  0.
      99925    2    3    3    0    0  0.10873887409E+03 -0.57402311814E+02 -0.40039088870E+02  0.29302787561E+03  0.26295064005E+03 0.  0.
         25    1    3    3    0    0 -0.10873887409E+03  0.57402311814E+02 -0.27255902352E+02  0.17750932498E+03  0.12509000000E+03 0.  0.
         25    1    4    4    0    0  0.20982951580E+02 -0.24824925179E+02 -0.44604124892E+02  0.13672453044E+03  0.12509000000E+03 0.  0.
         25    1    4    4    0    0  0.87755922512E+02 -0.32577386635E+02  0.45650360215E+01  0.15630334516E+03  0.12509000000E+03 0.  0.
<mgrwt>
<rscale>  2 0.46570016E+03</rscale>
<asrwt>0</asrwt>
<pdfrwt beam="1">  1       21 0.29650163E-01 0.46570016E+03</pdfrwt>
<pdfrwt beam="2">  1       21 0.39546484E-01 0.46570016E+03</pdfrwt>
<totfact> 0.61960626E+04</totfact>
</mgrwt>
</event>
<event>
 7    0  0.4732500E-002  0.4586655E+03  0.7546771E-02  0.1025169E+00
         21   -1    0    0  502  501  0.00000000000E+00  0.00000000000E+00  0.62170333154E+03  0.62170333154E+03  0.00000000000E+00 0. -1.
         21   -1    0    0  501  502 -0.00000000000E+00 -0.00000000000E+00 -0.84595846651E+02  0.84595846651E+02  0.00000000000E+00 0. -1.
      99926    2    1    2    0    0 -0.71054273576E-14  0.00000000000E+00  0.53710748489E+03  0.70629917819E+03  0.45866554132E+03 0.  0.
      99925    2    3    3    0    0  0.57573298620E+02 -0.93554480157E+02  0.39672422972E+03  0.48853303779E+03  0.26307278290E+03 0.  0.
         25    1    4    4    0    0  0.30588750457E+02 -0.50854354311E+02  0.27007086661E+03  0.30349236909E+03  0.12509000000E+03 0.  0.
         25    1    4    4    0    0  0.26984548163E+02 -0.42700125845E+02  0.12665336311E+03  0.18504066870E+03  0.12509000000E+03 0.  0.
         25    1    3    3    0    0 -0.57573298620E+02  0.93554480157E+02  0.14038325518E+03  0.21776614040E+03  0.12509000000E+03 0.  0.
<mgrwt>
<rscale>  2 0.45866554E+03</rscale>
<asrwt>0</asrwt>
<pdfrwt beam="1">  1       21 0.91426958E-01 0.45866554E+03</pdfrwt>
<pdfrwt beam="2">  1       21 0.12440566E-01 0.45866554E+03</pdfrwt>
<totfact> 0.51073194E+04</totfact>
</mgrwt>
</event>
<event>
 7    0  0.4732500E-002  0.4583811E+03  0.7546771E-02  0.1025252E+00
         21   -1    0    0  502  501  0.00000000000E+00  0.00000000000E+00  0.38242415887E+03  0.38242415887E+03  0.00000000000E+00 0. -1.
         21   -1    0    0  501  502 -0.00000000000E+00 -0.00000000000E+00 -0.13735615616E+03  0.13735615616E+03  0.00000000000E+00 0. -1.
      99926    2    1    2    0    0  0.00000000000E+00  0.00000000000E+00  0.24506800270E+03  0.51978031503E+03  0.45838111866E+03 0.  0.
      99925    2    3    3    0    0 -0.46305542828E+02 -0.21238425363E+02  0.27121132201E+03  0.38220758789E+03  0.26444618553E+03 0.  0.
         25    1    3    3    0    0  0.46305542828E+02  0.21238425363E+02 -0.26143319311E+02  0.13757272714E+03  0.12509000000E+03 0.  0.
         25    1    4    4    0    0 -0.63149239262E+02 -0.15547605811E+02  0.16599205578E+03  0.21778527303E+03  0.12509000000E+03 0.  0.
         25    1    4    4    0    0  0.16843696434E+02 -0.56908195524E+01  0.10521926623E+03  0.16442231486E+03  0.12509000000E+03 0.  0.
<mgrwt>
<rscale>  2 0.45838112E+03</rscale>
<asrwt>0</asrwt>
<pdfrwt beam="1">  1       21 0.56238846E-01 0.45838112E+03</pdfrwt>
<pdfrwt beam="2">  1       21 0.20199435E-01 0.45838112E+03</pdfrwt>
<totfact> 0.62216333E+04</totfact>
</mgrwt>
</event>
<event>
 7    0  0.4732500E-002  0.4578415E+03  0.7546771E-02  0.1025409E+00
         21   -1    0    0  502  501  0.00000000000E+00  0.00000000000E+00  0.22579606449E+03  0.22579606449E+03  0.00000000000E+00 0.  1.
         21   -1    0    0  501  502 -0.00000000000E+00 -0.00000000000E+00 -0.23208870408E+03  0.23208870408E+03  0.00000000000E+00 0.  1.
      99926    2    1    2    0    0  0.00000000000E+00  0.00000000000E+00 -0.62926395903E+01  0.45788476857E+03  0.45784152714E+03 0.  0.
      99925    2    3    3    0    0  0.57330889237E+02  0.10019168846E+03  0.51683282653E+01  0.28728562677E+03  0.26302303023E+03 0.  0.
         25    1    4    4    0    0  0.36172607340E+02  0.25025200904E+02 -0.29416527727E+02  0.13582178914E+03  0.12509000000E+03 0.  0.
         25    1    3    3    0    0 -0.57330889237E+02 -0.10019168846E+03 -0.11460967856E+02  0.17059914180E+03  0.12509000000E+03 0.  0.
         25    1    4    4    0    0  0.21158281897E+02  0.75166487559E+02  0.34584855993E+02  0.15146383763E+03  0.12509000000E+03 0.  0.
<mgrwt>
<rscale>  2 0.45784153E+03</rscale>
<asrwt>0</asrwt>
<pdfrwt beam="1">  1       21 0.33205304E-01 0.45784153E+03</pdfrwt>
<pdfrwt beam="2">  1       21 0.34130692E-01 0.45784153E+03</pdfrwt>
<totfact> 0.66807390E+04</totfact>
</mgrwt>
</event>
<event>
 7    0  0.4732500E-002  0.4878314E+03  0.7546771E-02  0.1017005E+00
         21   -1    0    0  502  501  0.00000000000E+00  0.00000000000E+00  0.52229266229E+02  0.52229266229E+02  0.00000000000E+00 0.  1.
         21   -1    0    0  501  502 -0.00000000000E+00 -0.00000000000E+00 -0.11391098402E+04  0.11391098402E+04  0.00000000000E+00 0.  1.
      99926    2    1    2    0    0  0.00000000000E+00 -0.35527136788E-14 -0.10868805740E+04  0.11913391064E+04  0.48783140984E+03 0.  0.
      99925    2    3    3    0    0 -0.89242326575E+02 -0.17271731247E+02 -0.40061016365E+03  0.48786409641E+03  0.26317364569E+03 0.  0.
         25    1    4    4    0    0 -0.44244443184E+02 -0.44717865033E+02 -0.23705676260E+03  0.27531922381E+03  0.12509000000E+03 0.  0.
         25    1    4    4    0    0 -0.44997883391E+02  0.27446133786E+02 -0.16355340106E+03  0.21254487260E+03  0.12509000000E+03 0.  0.
         25    1    3    3    0    0  0.89242326575E+02  0.17271731247E+02 -0.68627041030E+03  0.70347501001E+03  0.12509000000E+03 0.  0.
<mgrwt>
<rscale>  2 0.48783141E+03</rscale>
<asrwt>0</asrwt>
<pdfrwt beam="1">  1       21 0.76807752E-02 0.48783141E+03</pdfrwt>
<pdfrwt beam="2">  1       21 0.16751614E+00 0.48783141E+03</pdfrwt>
<totfact> 0.25310754E+04</totfact>
</mgrwt>
</event>
<event>
 7    0  0.4732500E-002  0.4580607E+03  0.7546771E-02  0.1025345E+00
         21   -1    0    0  502  501  0.00000000000E+00  0.00000000000E+00  0.68729157897E+03  0.68729157897E+03  0.00000000000E+00 0.  1.
         21   -1    0    0  501  502 -0.00000000000E+00 -0.00000000000E+00 -0.76321184205E+02  0.76321184205E+02  0.00000000000E+00 0.  1.
      99926    2    1    2    0    0  0.35527136788E-14  0.00000000000E+00  0.61097039477E+03  0.76361276318E+03  0.45806072611E+03 0.  0.
      99925    2    3    3    0    0 -0.24549789202E+02 -0.11171752828E+03  0.35027917499E+03  0.45266112957E+03  0.26291272224E+03 0.  0.
         25    1    4    4    0    0 -0.21391743451E+02 -0.73687119526E+02  0.24132830928E+03  0.28244337349E+03  0.12509000000E+03 0.  0.
         25    1    4    4    0    0 -0.31580457505E+01 -0.38030408758E+02  0.10895086572E+03  0.17021775608E+03  0.12509000000E+03 0.  0.
         25    1    3    3    0    0  0.24549789202E+02  0.11171752828E+03  0.26069121977E+03  0.31095163361E+03  0.12509000000E+03 0.  0.
<mgrwt>
<rscale>  2 0.45806073E+03</rscale>
<asrwt>0</asrwt>
<pdfrwt beam="1">  1       21 0.10107229E+00 0.45806073E+03</pdfrwt>
<pdfrwt beam="2">  1       21 0.11223704E-01 0.45806073E+03</pdfrwt>
<totfact> 0.48401346E+04</totfact>
</mgrwt>
</event>
<event>
 7    0  0.4732500E-002  0.4525319E+03  0.7546771E-02  0.1026970E+00
         21   -1    0    0  502  501  0.00000000000E+00  0.00000000000E+00  0.26659761231E+02  0.26659761231E+02  0.00000000000E+00 0. -1.
         21   -1    0    0  501  502 -0.00000000000E+00 -0.00000000000E+00 -0.19203577288E+04  0.19203577288E+04  0.00000000000E+00 0. -1.
      99926    2    1    2    0    0  0.14210854715E-13 -0.44408920985E-14 -0.18936979675E+04  0.19470174900E+04  0.45253189292E+03 0.  0.
      99925    2    3    3    0    0  0.10330183020E+03 -0.69097292888E+01 -0.10260523028E+04  0.10643082966E+04  0.26315358565E+03 0.  0.
         25    1    3    3    0    0 -0.10330183020E+03  0.69097292888E+01 -0.86764566474E+03  0.88270919340E+03  0.12509000000E+03 0.  0.
         25    1    4    4    0    0  0.46772637352E+02  0.35593075001E+02 -0.54499018762E+03  0.56224226033E+03  0.12509000000E+03 0.  0.
         25    1    4    4    0    0  0.56529192848E+02 -0.42502804290E+02 -0.48106211519E+03  0.50206603628E+03  0.12509000000E+03 0.  0.
<mgrwt>
<rscale>  2 0.45253189E+03</rscale>
<asrwt>0</asrwt>
<pdfrwt beam="1">  1       21 0.39205543E-02 0.45253189E+03</pdfrwt>
<pdfrwt beam="2">  1       21 0.28240547E+00 0.45253189E+03</pdfrwt>
<totfact> 0.14877312E+04</totfact>
</mgrwt>
</event>
<event>
 7    0  0.4732500E-002  0.4496831E+03  0.7546771E-02  0.1027817E+00
         21   -1    0    0  502  501  0.00000000000E+00  0.00000000000E+00  0.17367042267E+03  0.17367042267E+03  0.00000000000E+00 0. -1.
         21   -1    0    0  501  502 -0.00000000000E+00 -0.00000000000E+00 -0.29109004779E+03  0.29109004779E+03  0.00000000000E+00 0. -1.
      99926    2    1    2    0    0  0.00000000000E+00  0.00000000000E+00 -0.11741962511E+03  0.46476047046E+03  0.44968314015E+03 0.  0.
      99925    2    3    3    0    0  0.39734530310E+02 -0.39137548332E+02  0.22054318126E+02  0.26928395133E+03  0.26252023333E+03 0.  0.
         25    1    4    4    0    0  0.44657610077E-02 -0.54001979582E+02  0.13627581878E+02  0.13692856863E+03  0.12509000000E+03 0.  0.
         25    1    3    3    0    0 -0.39734530310E+02  0.39137548332E+02 -0.13947394324E+03  0.19547651913E+03  0.12509000000E+03 0.  0.
         25    1    4    4    0    0  0.39730064549E+02  0.14864431250E+02  0.84267362486E+01  0.13235538270E+03  0.12509000000E+03 0.  0.
<mgrwt>
<rscale>  2 0.44968314E+03</rscale>
<asrwt>0</asrwt>
<pdfrwt beam="1">  1       21 0.25539768E-01 0.44968314E+03</pdfrwt>
<pdfrwt beam="2">  1       21 0.42807359E-01 0.44968314E+03</pdfrwt>
<totfact> 0.70765321E+04</totfact>
</mgrwt>
</event>
<event>
 7    0  0.4732500E-002  0.4363589E+03  0.7546771E-02  0.1031870E+00
         21   -1    0    0  502  501  0.00000000000E+00  0.00000000000E+00  0.45943130771E+02  0.45943130771E+02  0.00000000000E+00 0.  1.
         21   -1    0    0  501  502 -0.00000000000E+00 -0.00000000000E+00 -0.10361130386E+04  0.10361130386E+04  0.00000000000E+00 0.  1.
      99926    2    1    2    0    0  0.00000000000E+00  0.00000000000E+00 -0.99016990784E+03  0.10820561694E+04  0.43635892028E+03 0.  0.
      99925    2    3    3    0    0  0.17503458825E+02  0.91548189432E+02 -0.59338063225E+03  0.65570340537E+03  0.26298087197E+03 0.  0.
         25    1    3    3    0    0 -0.17503458825E+02 -0.91548189432E+02 -0.39678927559E+03  0.42635276401E+03  0.12509000000E+03 0.  0.
         25    1    4    4    0    0  0.40433377916E+02  0.52724697924E+02 -0.36373509755E+03  0.39034021201E+03  0.12509000000E+03 0.  0.
         25    1    4    4    0    0 -0.22929919091E+02  0.38823491508E+02 -0.22964553470E+03  0.26536319336E+03  0.12509000000E+03 0.  0.
<mgrwt>
<rscale>  2 0.43635892E+03</rscale>
<asrwt>0</asrwt>
<pdfrwt beam="1">  1       21 0.67563429E-02 0.43635892E+03</pdfrwt>
<pdfrwt beam="2">  1       21 0.15236956E+00 0.43635892E+03</pdfrwt>
<totfact> 0.41892031E+04</totfact>
</mgrwt>
</event>
<event>
 7    0  0.4732500E-002  0.4567898E+03  0.7546771E-02  0.1025716E+00
         21   -1    0    0  502  501  0.00000000000E+00  0.00000000000E+00  0.39640204797E+03  0.39640204797E+03  0.00000000000E+00 0.  1.
         21   -1    0    0  501  502 -0.00000000000E+00 -0.00000000000E+00 -0.13159422845E+03  0.13159422845E+03  0.00000000000E+00 0.  1.
      99926    2    1    2    0    0 -0.71054273576E-14  0.00000000000E+00  0.26480781952E+03  0.52799627641E+03  0.45678976196E+03 0.  0.
      99925    2    3    3    0    0 -0.46656006951E+02  0.94584876758E+02  0.21897703721E+03  0.35808144303E+03  0.26296063417E+03 0.  0.
         25    1    4    4    0    0 -0.34211943220E+02  0.32170450646E+02  0.15259445531E+03  0.20282497589E+03  0.12509000000E+03 0.  0.
         25    1    3    3    0    0  0.46656006951E+02 -0.94584876758E+02  0.45830782309E+02  0.16991483338E+03  0.12509000000E+03 0.  0.
         25    1    4    4    0    0 -0.12444063730E+02  0.62414426112E+02  0.66382581898E+02  0.15525646714E+03  0.12509000000E+03 0.  0.
<mgrwt>
<rscale>  2 0.45678976E+03</rscale>
<asrwt>0</asrwt>
<pdfrwt beam="1">  1       21 0.58294419E-01 0.45678976E+03</pdfrwt>
<pdfrwt beam="2">  1       21 0.19352092E-01 0.45678976E+03</pdfrwt>
<totfact> 0.62451664E+04</totfact>
</mgrwt>
</event>
<event>
 7    0  0.4732500E-002  0.4430676E+03  0.7546771E-02  0.1029810E+00
         21   -1    0    0  502  501  0.00000000000E+00  0.00000000000E+00  0.53274060564E+03  0.53274060564E+03  0.00000000000E+00 0. -1.
         21   -1    0    0  501  502 -0.00000000000E+00 -0.00000000000E+00 -0.92122187094E+02  0.92122187094E+02  0.00000000000E+00 0. -1.
      99926    2    1    2    0    0  0.00000000000E+00 -0.88817841970E-15  0.44061841854E+03  0.62486279273E+03  0.44306762348E+03 0.  0.
      99925    2    3    3    0    0 -0.45342709541E+02 -0.46129395987E+01  0.15221307289E+03  0.30721142405E+03  0.26293116778E+03 0.  0.
         25    1    4    4    0    0 -0.49680903427E+02  0.17535632685E+01  0.11341510956E+03  0.17601636948E+03  0.12509000000E+03 0.  0.
         25    1    4    4    0    0  0.43381938861E+01 -0.63665028671E+01  0.38797963324E+02  0.13119505457E+03  0.12509000000E+03 0.  0.
         25    1    3    3    0    0  0.45342709541E+02  0.46129395987E+01  0.28840534566E+03  0.31765136868E+03  0.12509000000E+03 0.  0.
<mgrwt>
<rscale>  2 0.44306762E+03</rscale>
<asrwt>0</asrwt>
<pdfrwt beam="1">  1       21 0.78344205E-01 0.44306762E+03</pdfrwt>
<pdfrwt beam="2">  1       21 0.13547381E-01 0.44306762E+03</pdfrwt>
<totfact> 0.62891871E+04</totfact>
</mgrwt>
</event>
<event>
 7    0  0.5063794E-002  0.4185306E+03  0.7546771E-02  0.1037546E+00
         21   -1    0    0  502  501  0.00000000000E+00  0.00000000000E+00  0.32158172901E+03  0.32158172901E+03  0.00000000000E+00 0.  1.
         21   -1    0    0  501  502 -0.00000000000E+00 -0.00000000000E+00 -0.13617679270E+03  0.13617679270E+03  0.00000000000E+00 0.  1.
      99926    2    1    2    0    0 -0.88817841970E-15  0.00000000000E+00  0.18540493632E+03  0.45775852171E+03  0.41853061273E+03 0.  0.
      99925    2    3    3    0    0 -0.40498293749E+01 -0.58680285662E+02  0.16991900062E+03  0.31866467085E+03  0.26308730231E+03 0.  0.
         25    1    4    4    0    0 -0.19361607453E+02 -0.40298485771E+02  0.12829526896E+03  0.18467816313E+03  0.12509000000E+03 0.  0.
         25    1    4    4    0    0  0.15311778078E+02 -0.18381799891E+02  0.41623731659E+02  0.13398650772E+03  0.12509000000E+03 0.  0.
         25    1    3    3    0    0  0.40498293749E+01  0.58680285662E+02  0.15485935700E+02  0.13909385086E+03  0.12509000000E+03 0.  0.
<mgrwt>
<rscale>  2 0.41853061E+03</rscale>
<asrwt>0</asrwt>
<pdfrwt beam="1">  1       21 0.47291431E-01 0.41853061E+03</pdfrwt>
<pdfrwt beam="2">  1       21 0.20025999E-01 0.41853061E+03</pdfrwt>
<totfact> 0.92322366E+04</totfact>
</mgrwt>
</event>
<event>
 7    0  0.4732500E-002  0.4503678E+03  0.7546771E-02  0.1027612E+00
         21   -1    0    0  502  501  0.00000000000E+00  0.00000000000E+00  0.62904808608E+03  0.62904808608E+03  0.00000000000E+00 0. -1.
         21   -1    0    0  501  502 -0.00000000000E+00 -0.00000000000E+00 -0.80610368850E+02  0.80610368850E+02  0.00000000000E+00 0. -1.
      99926    2    1    2    0    0  0.17763568394E-14  0.71054273576E-14  0.54843771723E+03  0.70965845493E+03  0.45036784185E+03 0.  0.
      99925    2    3    3    0    0  0.10238012093E+02 -0.45139808202E+02  0.50167087670E+03  0.56831821066E+03  0.26300095221E+03 0.  0.
         25    1    4    4    0    0  0.22410713313E+02 -0.20004144740E+02  0.17338089204E+03  0.21589545549E+03  0.12509000000E+03 0.  0.
         25    1    4    4    0    0 -0.12172701219E+02 -0.25135663462E+02  0.32828998466E+03  0.35242275517E+03  0.12509000000E+03 0.  0.
         25    1    3    3    0    0 -0.10238012093E+02  0.45139808202E+02  0.46766840527E+02  0.14134024427E+03  0.12509000000E+03 0.  0.
<mgrwt>
<rscale>  2 0.45036784E+03</rscale>
<asrwt>0</asrwt>
<pdfrwt beam="1">  1       21 0.92507069E-01 0.45036784E+03</pdfrwt>
<pdfrwt beam="2">  1       21 0.11854466E-01 0.45036784E+03</pdfrwt>
<totfact> 0.54334999E+04</totfact>
</mgrwt>
</event>
<event>
 7    0  0.4732500E-002  0.4413969E+03  0.7546771E-02  0.1030319E+00
         21   -1    0    0  502  501  0.00000000000E+00  0.00000000000E+00  0.47427619550E+02  0.47427619550E+02  0.00000000000E+00 0.  1.
         21   -1    0    0  501  502 -0.00000000000E+00 -0.00000000000E+00 -0.10269924747E+04  0.10269924747E+04  0.00000000000E+00 0.  1.
      99926    2    1    2    0    0  0.71054273576E-14  0.14210854715E-13 -0.97956485511E+03  0.10744200942E+04  0.44139691149E+03 0.  0.
      99925    2    3    3    0    0  0.59712237911E+02  0.66907605923E+02 -0.51705601797E+03  0.58697357240E+03  0.26296172706E+03 0.  0.
         25    1    3    3    0    0 -0.59712237911E+02 -0.66907605923E+02 -0.46250883714E+03  0.48744652181E+03  0.12509000000E+03 0.  0.
         25    1    4    4    0    0  0.56448439621E+02  0.32991199174E+02 -0.20337014821E+03  0.24755155188E+03  0.12509000000E+03 0.  0.
         25    1    4    4    0    0  0.32637982899E+01  0.33916406749E+02 -0.31368586976E+03  0.33942202052E+03  0.12509000000E+03 0.  0.
<mgrwt>
<rscale>  2 0.44139691E+03</rscale>
<asrwt>0</asrwt>
<pdfrwt beam="1">  1       21 0.69746498E-02 0.44139691E+03</pdfrwt>
<pdfrwt beam="2">  1       21 0.15102831E+00 0.44139691E+03</pdfrwt>
<totfact> 0.40527928E+04</totfact>
</mgrwt>
</event>
<event>
 7    0  0.4732500E-002  0.4512533E+03  0.7546771E-02  0.1027349E+00
         21   -1    0    0  502  501  0.00000000000E+00  0.00000000000E+00  0.18229935566E+03  0.18229935566E+03  0.00000000000E+00 0.  1.
         21   -1    0    0  501  502 -0.00000000000E+00 -0.00000000000E+00 -0.27925157597E+03  0.27925157597E+03  0.00000000000E+00 0.  1.
      99926    2    1    2    0    0  0.35527136788E-14  0.00000000000E+00 -0.96952220313E+02  0.46155093163E+03  0.45125328748E+03 0.  0.
      99925    2    3    3    0    0 -0.18429099596E+02  0.59123900069E+02  0.30558262781E+02  0.27249618117E+03  0.26360025428E+03 0.  0.
         25    1    4    4    0    0  0.19661278385E+02  0.15871066440E+02  0.41855199966E+02  0.13430496075E+03  0.12509000000E+03 0.  0.
         25    1    4    4    0    0 -0.38090377981E+02  0.43252833629E+02 -0.11296937185E+02  0.13819122042E+03  0.12509000000E+03 0.  0.
         25    1    3    3    0    0  0.18429099596E+02 -0.59123900069E+02 -0.12751048309E+03  0.18905475046E+03  0.12509000000E+03 0.  0.
<mgrwt>
<rscale>  2 0.45125329E+03</rscale>
<asrwt>0</asrwt>
<pdfrwt beam="1">  1       21 0.26808729E-01 0.45125329E+03</pdfrwt>
<pdfrwt beam="2">  1       21 0.41066408E-01 0.45125329E+03</pdfrwt>
<totfact> 0.70131046E+04</totfact>
</mgrwt>
</event>
<event>
 7    0  0.4732500E-002  0.4545985E+03  0.7546771E-02  0.1026360E+00
         21   -1    0    0  502  501  0.00000000000E+00  0.00000000000E+00  0.27239944591E+03  0.27239944591E+03  0.00000000000E+00 0.  1.
         21   -1    0    0  501  502 -0.00000000000E+00 -0.00000000000E+00 -0.18966616086E+03  0.18966616086E+03  0.00000000000E+00 0.  1.
      99926    2    1    2    0    0 -0.14210854715E-13  0.00000000000E+00  0.82733285048E+02  0.46206560677E+03  0.45459853553E+03 0.  0.
      99925    2    3    3    0    0 -0.65258807004E+02  0.78367019354E+02  0.10103622753E+03  0.29963836947E+03  0.26301089630E+03 0.  0.
         25    1    4    4    0    0  0.98087697710E+00  0.13627120605E+02  0.54964089779E+02  0.13731431026E+03  0.12509000000E+03 0.  0.
         25    1    3    3    0    0  0.65258807004E+02 -0.78367019354E+02 -0.18302942478E+02  0.16242723730E+03  0.12509000000E+03 0.  0.
         25    1    4    4    0    0 -0.66239683981E+02  0.64739898750E+02  0.46072137746E+02  0.16232405922E+03  0.12509000000E+03 0.  0.
<mgrwt>
<rscale>  2 0.45459854E+03</rscale>
<asrwt>0</asrwt>
<pdfrwt beam="1">  1       21 0.40058742E-01 0.45459854E+03</pdfrwt>
<pdfrwt beam="2">  1       21 0.27892082E-01 0.45459854E+03</pdfrwt>
<totfact> 0.68246050E+04</totfact>
</mgrwt>
</event>
<event>
 7    0  0.4732500E-002  0.4618281E+03  0.7546771E-02  0.1024252E+00
         21   -1    0    0  502  501  0.00000000000E+00  0.00000000000E+00  0.47266244379E+02  0.47266244379E+02  0.00000000000E+00 0. -1.
         21   -1    0    0  501  502 -0.00000000000E+00 -0.00000000000E+00 -0.11281050965E+04  0.11281050965E+04  0.00000000000E+00 0. -1.
      99926    2    1    2    0    0  0.00000000000E+00  0.00000000000E+00 -0.10808388521E+04  0.11753713409E+04  0.46182806833E+03 0.  0.
      99925    2    3    3    0    0  0.83517374878E+02  0.67842413364E+02 -0.80806384245E+03  0.85657444792E+03  0.26301115261E+03 0.  0.
         25    1    4    4    0    0  0.37865230795E+02  0.70350737075E+02 -0.36823865803E+03  0.39702672363E+03  0.12509000000E+03 0.  0.
         25    1    4    4    0    0  0.45652144083E+02 -0.25083237106E+01 -0.43982518442E+03  0.45954772429E+03  0.12509000000E+03 0.  0.
         25    1    3    3    0    0 -0.83517374878E+02 -0.67842413364E+02 -0.27277500964E+03  0.31879689293E+03  0.12509000000E+03 0.  0.
<mgrwt>
<rscale>  2 0.46182807E+03</rscale>
<asrwt>0</asrwt>
<pdfrwt beam="1">  1       21 0.69509185E-02 0.46182807E+03</pdfrwt>
<pdfrwt beam="2">  1       21 0.16589780E+00 0.46182807E+03</pdfrwt>
<totfact> 0.31250457E+04</totfact>
</mgrwt>
</event>
<event>
 6    0  0.4732500E-002  0.4483792E+03  0.7546771E-02  0.1028206E+00
         21   -1    0    0  502  501  0.00000000000E+00  0.00000000000E+00  0.13426378469E+04  0.13426378469E+04  0.00000000000E+00 0.  1.
         21   -1    0    0  501  502 -0.00000000000E+00 -0.00000000000E+00 -0.37434498280E+02  0.37434498280E+02  0.00000000000E+00 0.  1.
      99926    2    1    2    0    0  0.00000000000E+00 -0.35527136788E-14  0.13052033486E+04  0.13800723452E+04  0.44837918850E+03 0.  0.
         25    1    3    3    0    0  0.69987084496E+02 -0.18139775626E+02  0.24195432303E+03  0.28180959173E+03  0.12509000000E+03 0.  0.
         25    1    3    3    0    0 -0.21009701205E+02 -0.33085061252E+02  0.48388883025E+03  0.50133016762E+03  0.12509000000E+03 0.  0.
         25    1    3    3    0    0 -0.48977383291E+02  0.51224836878E+02  0.57936019531E+03  0.59693258581E+03  0.12509000000E+03 0.  0.
<mgrwt>
<rscale>  2 0.44837919E+03</rscale>
<asrwt>0</asrwt>
<pdfrwt beam="1">  1       21 0.19744671E+00 0.44837919E+03</pdfrwt>
<pdfrwt beam="2">  1       21 0.55050742E-02 0.44837919E+03</pdfrwt>
<totfact> 0.28296191E+04</totfact>
</mgrwt>
</event>
<event>
 7    0  0.4732500E-002  0.4516362E+03  0.7546771E-02  0.1027235E+00
         21   -1    0    0  502  501  0.00000000000E+00  0.00000000000E+00  0.53403856794E+03  0.53403856794E+03  0.00000000000E+00 0. -1.
         21   -1    0    0  501  502 -0.00000000000E+00 -0.00000000000E+00 -0.95487117503E+02  0.95487117503E+02  0.00000000000E+00 0. -1.
      99926    2    1    2    0    0  0.00000000000E+00  0.35527136788E-14  0.43855145043E+03  0.62952568544E+03  0.45163615218E+03 0.  0.
      99925    2    3    3    0    0 -0.10396536344E+03  0.29568742268E+02  0.30460646896E+03  0.41675380413E+03  0.26308843572E+03 0.  0.
         25    1    3    3    0    0  0.10396536344E+03 -0.29568742268E+02  0.13394498148E+03  0.21277188131E+03  0.12509000000E+03 0.  0.
         25    1    4    4    0    0 -0.58032409453E+02 -0.12774082667E+02  0.19459083851E+03  0.23883894211E+03  0.12509000000E+03 0.  0.
         25    1    4    4    0    0 -0.45932953985E+02  0.42342824936E+02  0.11001563044E+03  0.17791486202E+03  0.12509000000E+03 0.  0.
<mgrwt>
<rscale>  2 0.45163615E+03</rscale>
<asrwt>0</asrwt>
<pdfrwt beam="1">  1       21 0.78535082E-01 0.45163615E+03</pdfrwt>
<pdfrwt beam="2">  1       21 0.14042223E-01 0.45163615E+03</pdfrwt>
<totfact> 0.58432963E+04</totfact>
</mgrwt>
</event>
<event>
 7    0  0.4732500E-002  0.4766899E+03  0.7546771E-02  0.1020049E+00
         21   -1    0    0  502  501  0.00000000000E+00  0.00000000000E+00  0.30241374152E+03  0.30241374152E+03  0.00000000000E+00 0.  1.
         21   -1    0    0  501  502 -0.00000000000E+00 -0.00000000000E+00 -0.18784968466E+03  0.18784968466E+03  0.00000000000E+00 0.  1.
      99926    2    1    2    0    0  0.00000000000E+00  0.00000000000E+00  0.11456405686E+03  0.49026342618E+03  0.47668994527E+03 0.  0.
      99925    2    3    3    0    0  0.31961756034E+02  0.12274637231E+03  0.11073520437E+03  0.31207702385E+03  0.26275760229E+03 0.  0.
         25    1    4    4    0    0 -0.19162671700E+02  0.60167293541E+02  0.32446890709E+02  0.14383191584E+03  0.12509000000E+03 0.  0.
         25    1    3    3    0    0 -0.31961756034E+02 -0.12274637231E+03  0.38288524886E+01  0.17818640233E+03  0.12509000000E+03 0.  0.
         25    1    4    4    0    0  0.51124427734E+02  0.62579078769E+02  0.78288313661E+02  0.16824510800E+03  0.12509000000E+03 0.  0.
<mgrwt>
<rscale>  2 0.47668995E+03</rscale>
<asrwt>0</asrwt>
<pdfrwt beam="1">  1       21 0.44472609E-01 0.47668995E+03</pdfrwt>
<pdfrwt beam="2">  1       21 0.27624954E-01 0.47668995E+03</pdfrwt>
<totfact> 0.55729357E+04</totfact>
</mgrwt>
</event>
<event>
 7    0  0.4732500E-002  0.4513130E+03  0.7546771E-02  0.1027331E+00
         21   -1    0    0  502  501  0.00000000000E+00  0.00000000000E+00  0.20622049358E+03  0.20622049358E+03  0.00000000000E+00 0. -1.
         21   -1    0    0  501  502 -0.00000000000E+00 -0.00000000000E+00 -0.24692430845E+03  0.24692430845E+03  0.00000000000E+00 0. -1.
      99926    2    1    2    0    0  0.00000000000E+00 -0.39968028887E-14 -0.40703814875E+02  0.45314480204E+03  0.45131298571E+03 0.  0.
      99925    2    3    3    0    0 -0.64889210996E+02  0.11841109624E+01  0.63207029588E+02  0.27805344440E+03  0.26288129932E+03 0.  0.
         25    1    3    3    0    0  0.64889210996E+02 -0.11841109624E+01 -0.10391084446E+03  0.17509135764E+03  0.12509000000E+03 0.  0.
         25    1    4    4    0    0 -0.28167414027E+02  0.35951160495E+02  0.11880552983E+02  0.13369571718E+03  0.12509000000E+03 0.  0.
         25    1    4    4    0    0 -0.36721796969E+02 -0.34767049533E+02  0.51326476605E+02  0.14435772721E+03  0.12509000000E+03 0.  0.
<mgrwt>
<rscale>  2 0.45131299E+03</rscale>
<asrwt>0</asrwt>
<pdfrwt beam="1">  1       21 0.30326543E-01 0.45131299E+03</pdfrwt>
<pdfrwt beam="2">  1       21 0.36312398E-01 0.45131299E+03</pdfrwt>
<totfact> 0.70740128E+04</totfact>
</mgrwt>
</event>
<event>
 7    0  0.4732500E-002  0.4227747E+03  0.7546771E-02  0.1036167E+00
         21   -1    0    0  502  501  0.00000000000E+00  0.00000000000E+00  0.67131608458E+02  0.67131608458E+02  0.00000000000E+00 0.  1.
         21   -1    0    0  501  502 -0.00000000000E+00 -0.00000000000E+00 -0.66562708464E+03  0.66562708464E+03  0.00000000000E+00 0.  1.
      99926    2    1    2    0    0  0.00000000000E+00  0.00000000000E+00 -0.59849547618E+03  0.73275869310E+03  0.42277472406E+03 0.  0.
      99925    2    3    3    0    0  0.45552980753E+02 -0.56518465145E+02 -0.44334680351E+03  0.52065487491E+03  0.26316477657E+03 0.  0.
         25    1    4    4    0    0 -0.16414912282E+02 -0.39520280343E+02 -0.20602678545E+03  0.24479756193E+03  0.12509000000E+03 0.  0.
         25    1    3    3    0    0 -0.45552980753E+02  0.56518465145E+02 -0.15514867267E+03  0.21210381819E+03  0.12509000000E+03 0.  0.
         25    1    4    4    0    0  0.61967893035E+02 -0.16998184802E+02 -0.23732001806E+03  0.27585731298E+03  0.12509000000E+03 0.  0.
<mgrwt>
<rscale>  2 0.42277472E+03</rscale>
<asrwt>0</asrwt>
<pdfrwt beam="1">  1       21 0.98722953E-02 0.42277472E+03</pdfrwt>
<pdfrwt beam="2">  1       21 0.97886336E-01 0.42277472E+03</pdfrwt>
<totfact> 0.66468191E+04</totfact>
</mgrwt>
</event>
<event>
 7    0  0.4732500E-002  0.4367291E+03  0.7546771E-02  0.1031755E+00
         21   -1    0    0  502  501  0.00000000000E+00  0.00000000000E+00  0.22358144921E+03  0.22358144921E+03  0.00000000000E+00 0. -1.
         21   -1    0    0  501  502 -0.00000000000E+00 -0.00000000000E+00 -0.21326940021E+03  0.21326940021E+03  0.00000000000E+00 0. -1.
      99926    2    1    2    0    0  0.00000000000E+00  0.00000000000E+00  0.10312048996E+02  0.43685084941E+03  0.43672912232E+03 0.  0.
      99925    2    3    3    0    0 -0.64087995883E+02  0.44492527374E+02 -0.47689724984E+02  0.27842556705E+03  0.26298218629E+03 0.  0.
         25    1    4    4    0    0 -0.16236113011E+02  0.16105521775E+01  0.97358620441E+01  0.12652470254E+03  0.12509000000E+03 0.  0.
         25    1    4    4    0    0 -0.47851882872E+02  0.42881975197E+02 -0.57425587028E+02  0.15190086450E+03  0.12509000000E+03 0.  0.
         25    1    3    3    0    0  0.64087995883E+02 -0.44492527374E+02  0.58001773980E+02  0.15842528237E+03  0.12509000000E+03 0.  0.
<mgrwt>
<rscale>  2 0.43672912E+03</rscale>
<asrwt>0</asrwt>
<pdfrwt beam="1">  1       21 0.32879625E-01 0.43672912E+03</pdfrwt>
<pdfrwt beam="2">  1       21 0.31363147E-01 0.43672912E+03</pdfrwt>
<totfact> 0.81088415E+04</totfact>
</mgrwt>
</event>
<event>
 7    0  0.4732500E-002  0.4508971E+03  0.7546771E-02  0.1027455E+00
         21   -1    0    0  502  501  0.00000000000E+00  0.00000000000E+00  0.82155549668E+03  0.82155549668E+03  0.00000000000E+00 0.  1.
         21   -1    0    0  501  502 -0.00000000000E+00 -0.00000000000E+00 -0.61866844225E+02  0.61866844225E+02  0.00000000000E+00 0.  1.
      99926    2    1    2    0    0  0.00000000000E+00 -0.14210854715E-13  0.75968865246E+03  0.88342234091E+03  0.45089708775E+03 0.  0.
      99925    2    3    3    0    0  0.23030387966E+02  0.91986145398E+02  0.37353555240E+03  0.46658475323E+03  0.26302219170E+03 0.  0.
         25    1    4    4    0    0  0.23555110167E+02  0.69512986602E+02  0.14498430360E+03  0.20507280393E+03  0.12509000000E+03 0.  0.
         25    1    3    3    0    0 -0.23030387966E+02 -0.91986145398E+02  0.38615310006E+03  0.41683758768E+03  0.12509000000E+03 0.  0.
         25    1    4    4    0    0 -0.52472220075E+00  0.22473158795E+02  0.22855124880E+03  0.26151194930E+03  0.12509000000E+03 0.  0.
<mgrwt>
<rscale>  2 0.45089709E+03</rscale>
<asrwt>0</asrwt>
<pdfrwt beam="1">  1       21 0.12081698E+00 0.45089709E+03</pdfrwt>
<pdfrwt beam="2">  1       21 0.90980658E-02 0.45089709E+03</pdfrwt>
<totfact> 0.45399510E+04</totfact>
</mgrwt>
</event>
<event>
 7    0  0.4732500E-002  0.4795091E+03  0.7546771E-02  0.1019270E+00
         21   -1    0    0  502  501  0.00000000000E+00  0.00000000000E+00  0.31770576869E+03  0.31770576869E+03  0.00000000000E+00 0.  1.
         21   -1    0    0  501  502 -0.00000000000E+00 -0.00000000000E+00 -0.18092917053E+03  0.18092917053E+03  0.00000000000E+00 0.  1.
      99926    2    1    2    0    0  0.00000000000E+00  0.00000000000E+00  0.13677659816E+03  0.49863493921E+03  0.47950908730E+03 0.  0.
      99925    2    3    3    0    0 -0.89682961348E+02  0.89280820047E+02  0.13279861663E+03  0.32065339292E+03  0.26300005215E+03 0.  0.
         25    1    4    4    0    0 -0.54128692729E+02  0.61447538818E+02  0.29820879705E+02  0.15245493882E+03  0.12509000000E+03 0.  0.
         25    1    3    3    0    0  0.89682961348E+02 -0.89280820047E+02  0.39779815369E+01  0.17798154629E+03  0.12509000000E+03 0.  0.
         25    1    4    4    0    0 -0.35554268619E+02  0.27833281229E+02  0.10297773692E+03  0.16819845410E+03  0.12509000000E+03 0.  0.
<mgrwt>
<rscale>  2 0.47950909E+03</rscale>
<asrwt>0</asrwt>
<pdfrwt beam="1">  1       21 0.46721437E-01 0.47950909E+03</pdfrwt>
<pdfrwt beam="2">  1       21 0.26607231E-01 0.47950909E+03</pdfrwt>
<totfact> 0.54058881E+04</totfact>
</mgrwt>
</event>
<event>
 7    0  0.4732500E-002  0.4546109E+03  0.7546771E-02  0.1026356E+00
         21   -1    0    0  502  501  0.00000000000E+00  0.00000000000E+00  0.79002568905E+02  0.79002568905E+02  0.00000000000E+00 0. -1.
         21   -1    0    0  501  502 -0.00000000000E+00 -0.00000000000E+00 -0.65400113335E+03  0.65400113335E+03  0.00000000000E+00 0. -1.
      99926    2    1    2    0    0  0.55511151231E-15  0.14210854715E-13 -0.57499856445E+03  0.73300370226E+03  0.45461090881E+03 0.  0.
      99925    2    3    3    0    0 -0.63628848428E+00  0.11265712579E+03 -0.35232073351E+03  0.45385328161E+03  0.26298454159E+03 0.  0.
         25    1    3    3    0    0  0.63628848428E+00 -0.11265712579E+03 -0.22267783094E+03  0.27915042065E+03  0.12509000000E+03 0.  0.
         25    1    4    4    0    0  0.25276863523E+02  0.38826790584E+02 -0.21045174719E+03  0.24916638114E+03  0.12509000000E+03 0.  0.
         25    1    4    4    0    0 -0.25913152008E+02  0.73830335209E+02 -0.14186898632E+03  0.20468690047E+03  0.12509000000E+03 0.  0.
<mgrwt>
<rscale>  2 0.45461091E+03</rscale>
<asrwt>0</asrwt>
<pdfrwt beam="1">  1       21 0.11618025E-01 0.45461091E+03</pdfrwt>
<pdfrwt beam="2">  1       21 0.96176634E-01 0.45461091E+03</pdfrwt>
<totfact> 0.51304238E+04</totfact>
</mgrwt>
</event>
<event>
 7    0  0.4732500E-002  0.4526620E+03  0.7546771E-02  0.1026931E+00
         21   -1    0    0  502  501  0.00000000000E+00  0.00000000000E+00  0.59058659151E+03  0.59058659151E+03  0.00000000000E+00 0. -1.
         21   -1    0    0  501  502 -0.00000000000E+00 -0.00000000000E+00 -0.86737023436E+02  0.86737023436E+02  0.00000000000E+00 0. -1.
      99926    2    1    2    0    0  0.00000000000E+00 -0.14210854715E-13  0.50384956807E+03  0.67732361495E+03  0.45266200649E+03 0.  0.
      99925    2    3    3    0    0  0.64418096551E+02  0.87457757268E+02  0.28461491080E+03  0.40253297915E+03  0.26311328622E+03 0.  0.
         25    1    4    4    0    0  0.54644534842E+01  0.17360538143E+02  0.98176973977E+02  0.16005459961E+03  0.12509000000E+03 0.  0.
         25    1    3    3    0    0 -0.64418096551E+02 -0.87457757268E+02  0.21923465728E+03  0.27479063580E+03  0.12509000000E+03 0.  0.
         25    1    4    4    0    0  0.58953643067E+02  0.70097219125E+02  0.18643793682E+03  0.24247837954E+03  0.12509000000E+03 0.  0.
<mgrwt>
<rscale>  2 0.45266201E+03</rscale>
<asrwt>0</asrwt>
<pdfrwt beam="1">  1       21 0.86850967E-01 0.45266201E+03</pdfrwt>
<pdfrwt beam="2">  1       21 0.12755445E-01 0.45266201E+03</pdfrwt>
<totfact> 0.55160644E+04</totfact>
</mgrwt>
</event>
<event>
 7    0  0.4732500E-002  0.4437378E+03  0.7546771E-02  0.1029606E+00
         21   -1    0    0  502  501  0.00000000000E+00  0.00000000000E+00  0.45455474826E+02  0.45455474826E+02  0.00000000000E+00 0.  1.
         21   -1    0    0  501  502 -0.00000000000E+00 -0.00000000000E+00 -0.10829458658E+04  0.10829458658E+04  0.00000000000E+00 0.  1.
      99926    2    1    2    0    0  0.00000000000E+00  0.00000000000E+00 -0.10374903910E+04  0.11284013406E+04  0.44373784396E+03 0.  0.
      99925    2    3    3    0    0 -0.45665948575E+01 -0.57993300576E+02 -0.87356006280E+03  0.91414743216E+03  0.26301001442E+03 0.  0.
         25    1    4    4    0    0 -0.33458025672E+02 -0.15670878399E+02 -0.35314563649E+03  0.37646296575E+03  0.12509000000E+03 0.  0.
         25    1    3    3    0    0  0.45665948575E+01  0.57993300576E+02 -0.16393032816E+03  0.21425390846E+03  0.12509000000E+03 0.  0.
         25    1    4    4    0    0  0.28891430814E+02 -0.42322422177E+02 -0.52041442631E+03  0.53768446640E+03  0.12509000000E+03 0.  0.
<mgrwt>
<rscale>  2 0.44373784E+03</rscale>
<asrwt>0</asrwt>
<pdfrwt beam="1">  1       21 0.66846284E-02 0.44373784E+03</pdfrwt>
<pdfrwt beam="2">  1       21 0.15925675E+00 0.44373784E+03</pdfrwt>
<totfact> 0.37715718E+04</totfact>
</mgrwt>
</event>
<event>
 7    0  0.4732500E-002  0.4554298E+03  0.7546771E-02  0.1026115E+00
         21   -1    0    0  502  501  0.00000000000E+00  0.00000000000E+00  0.82845703519E+02  0.82845703519E+02  0.00000000000E+00 0. -1.
         21   -1    0    0  501  502 -0.00000000000E+00 -0.00000000000E+00 -0.62591147243E+03  0.62591147243E+03  0.00000000000E+00 0. -1.
      99926    2    1    2    0    0  0.00000000000E+00  0.00000000000E+00 -0.54306576891E+03  0.70875717595E+03  0.45542980260E+03 0.  0.
      99925    2    3    3    0    0 -0.91714366725E+02  0.39539082585E+02 -0.25809712723E+03  0.38190935362E+03  0.26318389614E+03 0.  0.
         25    1    4    4    0    0 -0.36851448241E+01  0.21186722662E+02 -0.12812938363E+03  0.18035272263E+03  0.12509000000E+03 0.  0.
         25    1    4    4    0    0 -0.88029221901E+02  0.18352359923E+02 -0.12996774359E+03  0.20155663099E+03  0.12509000000E+03 0.  0.
         25    1    3    3    0    0  0.91714366725E+02 -0.39539082585E+02 -0.28496864169E+03  0.32684782233E+03  0.12509000000E+03 0.  0.
<mgrwt>
<rscale>  2 0.45542980E+03</rscale>
<asrwt>0</asrwt>
<pdfrwt beam="1">  1       21 0.12183191E-01 0.45542980E+03</pdfrwt>
<pdfrwt beam="2">  1       21 0.92045807E-01 0.45542980E+03</pdfrwt>
<totfact> 0.52253156E+04</totfact>
</mgrwt>
</event>
<event>
 7    0  0.4732500E-002  0.4223974E+03  0.7546771E-02  0.1036289E+00
         21   -1    0    0  502  501  0.00000000000E+00  0.00000000000E+00  0.73838358261E+02  0.73838358261E+02  0.00000000000E+00 0. -1.
         21   -1    0    0  501  502 -0.00000000000E+00 -0.00000000000E+00 -0.60408846958E+03  0.60408846958E+03  0.00000000000E+00 0. -1.
      99926    2    1    2    0    0  0.71054273576E-14  0.00000000000E+00 -0.53025011132E+03  0.67792682785E+03  0.42239744714E+03 0.  0.
      99925    2    3    3    0    0 -0.59416992210E+02 -0.28189411715E+02 -0.41435244621E+03  0.49515703063E+03  0.26299717376E+03 0.  0.
         25    1    4    4    0    0  0.46526045051E+01 -0.26088837579E+02 -0.23219415125E+03  0.26507339766E+03  0.12509000000E+03 0.  0.
         25    1    4    4    0    0 -0.64069596715E+02 -0.21005741361E+01 -0.18215829496E+03  0.23008363296E+03  0.12509000000E+03 0.  0.
         25    1    3    3    0    0  0.59416992210E+02  0.28189411715E+02 -0.11589766511E+03  0.18276979722E+03  0.12509000000E+03 0.  0.
<mgrwt>
<rscale>  2 0.42239745E+03</rscale>
<asrwt>0</asrwt>
<pdfrwt beam="1">  1       21 0.10858582E-01 0.42239745E+03</pdfrwt>
<pdfrwt beam="2">  1       21 0.88836542E-01 0.42239745E+03</pdfrwt>
<totfact> 0.70562501E+04</totfact>
</mgrwt>
</event>
<event>
 7    0  0.4732500E-002  0.4723452E+03  0.7546771E-02  0.1021260E+00
         21   -1    0    0  502  501  0.00000000000E+00  0.00000000000E+00  0.69069818045E+02  0.69069818045E+02  0.00000000000E+00 0. -1.
         21   -1    0    0  501  502 -0.00000000000E+00 -0.00000000000E+00 -0.80755249037E+03  0.80755249037E+03  0.00000000000E+00 0. -1.
      99926    2    1    2    0    0 -0.14210854715E-13  0.14210854715E-13 -0.73848267232E+03  0.87662230841E+03  0.47234522786E+03 0.  0.
      99925    2    3    3    0    0 -0.68940935164E+02  0.91920746394E+02 -0.35018316384E+03  0.45279888699E+03  0.26305191059E+03 0.  0.
         25    1    4    4    0    0 -0.58603197412E+02  0.39645199182E+02 -0.12873866421E+03  0.19294358846E+03  0.12509000000E+03 0.  0.
         25    1    4    4    0    0 -0.10337737752E+02  0.52275547211E+02 -0.22144449963E+03  0.25985529853E+03  0.12509000000E+03 0.  0.
         25    1    3    3    0    0  0.68940935164E+02 -0.91920746394E+02 -0.38829950848E+03  0.42382342142E+03  0.12509000000E+03 0.  0.
<mgrwt>
<rscale>  2 0.47234523E+03</rscale>
<asrwt>0</asrwt>
<pdfrwt beam="1">  1       21 0.10157326E-01 0.47234523E+03</pdfrwt>
<pdfrwt beam="2">  1       21 0.11875772E+00 0.47234523E+03</pdfrwt>
<totfact> 0.38724697E+04</totfact>
</mgrwt>
</event>
<event>
 7    0  0.4732500E-002  0.4502074E+03  0.7546771E-02  0.1027660E+00
         21   -1    0    0  502  501  0.00000000000E+00  0.00000000000E+00  0.18558051532E+03  0.18558051532E+03  0.00000000000E+00 0. -1.
         21   -1    0    0  501  502 -0.00000000000E+00 -0.00000000000E+00 -0.27304415913E+03  0.27304415913E+03  0.00000000000E+00 0. -1.
      99926    2    1    2    0    0  0.00000000000E+00 -0.14210854715E-13 -0.87463643803E+02  0.45862467445E+03  0.45020740001E+03 0.  0.
      99925    2    3    3    0    0 -0.11577428664E+02 -0.10681063826E+03 -0.51099145047E+02  0.28976842147E+03  0.26421973082E+03 0.  0.
         25    1    4    4    0    0 -0.95647682671E+01 -0.92786922686E+02 -0.63739216335E+01  0.15616988439E+03  0.12509000000E+03 0.  0.
         25    1    4    4    0    0 -0.20126603965E+01 -0.14023715577E+02 -0.44725223414E+02  0.13359853708E+03  0.12509000000E+03 0.  0.
         25    1    3    3    0    0  0.11577428664E+02  0.10681063826E+03 -0.36364498756E+02  0.16885625298E+03  0.12509000000E+03 0.  0.
<mgrwt>
<rscale>  2 0.45020740E+03</rscale>
<asrwt>0</asrwt>
<pdfrwt beam="1">  1       21 0.27291252E-01 0.45020740E+03</pdfrwt>
<pdfrwt beam="2">  1       21 0.40153553E-01 0.45020740E+03</pdfrwt>
<totfact> 0.70950868E+04</totfact>
</mgrwt>
</event>
<event>
 7    0  0.4732500E-002  0.4524099E+03  0.7546771E-02  0.1027006E+00
         21   -1    0    0  502  501  0.00000000000E+00  0.00000000000E+00  0.63905769950E+03  0.63905769950E+03  0.00000000000E+00 0. -1.
         21   -1    0    0  501  502 -0.00000000000E+00 -0.00000000000E+00 -0.80068935270E+02  0.80068935270E+02  0.00000000000E+00 0. -1.
      99926    2    1    2    0    0 -0.14210854715E-13  0.00000000000E+00  0.55898876423E+03  0.71912663477E+03  0.45240985654E+03 0.  0.
      99925    2    3    3    0    0  0.98552849337E+02 -0.17168968095E+02  0.42798334661E+03  0.51220306162E+03  0.26301101456E+03 0.  0.
         25    1    3    3    0    0 -0.98552849337E+02  0.17168968095E+02  0.13100541762E+03  0.20692357315E+03  0.12509000000E+03 0.  0.
         25    1    4    4    0    0  0.90902455960E+02 -0.46687687998E+00  0.22307814462E+03  0.27143109841E+03  0.12509000000E+03 0.  0.
         25    1    4    4    0    0  0.76503933772E+01 -0.16702091215E+02  0.20490520198E+03  0.24077196321E+03  0.12509000000E+03 0.  0.
<mgrwt>
<rscale>  2 0.45240986E+03</rscale>
<asrwt>0</asrwt>
<pdfrwt beam="1">  1       21 0.93979071E-01 0.45240986E+03</pdfrwt>
<pdfrwt beam="2">  1       21 0.11774844E-01 0.45240986E+03</pdfrwt>
<totfact> 0.52947313E+04</totfact>
</mgrwt>
</event>
<event>
 7    0  0.4732500E-002  0.4552817E+03  0.7546771E-02  0.1026159E+00
         21   -1    0    0  502  501  0.00000000000E+00  0.00000000000E+00  0.30886966594E+03  0.30886966594E+03  0.00000000000E+00 0. -1.
         21   -1    0    0  501  502 -0.00000000000E+00 -0.00000000000E+00 -0.16777417307E+03  0.16777417307E+03  0.00000000000E+00 0. -1.
      99926    2    1    2    0    0  0.00000000000E+00  0.00000000000E+00  0.14109549286E+03  0.47664383901E+03  0.45528168331E+03 0.  0.
      99925    2    3    3    0    0 -0.38716660211E+02 -0.66449502332E+02  0.10746985174E+01  0.27374522618E+03  0.26271805751E+03 0.  0.
         25    1    4    4    0    0 -0.21417149469E+02 -0.33739755509E+02 -0.39503248287E+02  0.13713161604E+03  0.12509000000E+03 0.  0.
         25    1    4    4    0    0 -0.17299510742E+02 -0.32709746823E+02  0.40577946805E+02  0.13661361014E+03  0.12509000000E+03 0.  0.
         25    1    3    3    0    0  0.38716660211E+02  0.66449502332E+02  0.14002079435E+03  0.20289861283E+03  0.12509000000E+03 0.  0.
<mgrwt>
<rscale>  2 0.45528168E+03</rscale>
<asrwt>0</asrwt>
<pdfrwt beam="1">  1       21 0.45422010E-01 0.45528168E+03</pdfrwt>
<pdfrwt beam="2">  1       21 0.24672672E-01 0.45528168E+03</pdfrwt>
<totfact> 0.66795773E+04</totfact>
</mgrwt>
</event>
<event>
 7    0  0.4732500E-002  0.4546656E+03  0.7546771E-02  0.1026340E+00
         21   -1    0    0  502  501  0.00000000000E+00  0.00000000000E+00  0.15006909546E+03  0.15006909546E+03  0.00000000000E+00 0.  1.
         21   -1    0    0  501  502 -0.00000000000E+00 -0.00000000000E+00 -0.34437605093E+03  0.34437605093E+03  0.00000000000E+00 0.  1.
      99926    2    1    2    0    0  0.14210854715E-13  0.00000000000E+00 -0.19430695547E+03  0.49444514640E+03  0.45466560223E+03 0.  0.
      99925    2    3    3    0    0 -0.10689514555E+03 -0.28744219177E+02 -0.14585318250E+03  0.32052539912E+03  0.26307903443E+03 0.  0.
         25    1    3    3    0    0  0.10689514555E+03  0.28744219177E+02 -0.48453772974E+02  0.17391974728E+03  0.12509000000E+03 0.  0.
         25    1    4    4    0    0 -0.97171169007E+02 -0.19812739198E+02 -0.81094405873E+02  0.17904913148E+03  0.12509000000E+03 0.  0.
         25    1    4    4    0    0 -0.97239765438E+01 -0.89314799790E+01 -0.64758776624E+02  0.14147626764E+03  0.12509000000E+03 0.  0.
<mgrwt>
<rscale>  2 0.45466560E+03</rscale>
<asrwt>0</asrwt>
<pdfrwt beam="1">  1       21 0.22068985E-01 0.45466560E+03</pdfrwt>
<pdfrwt beam="2">  1       21 0.50643537E-01 0.45466560E+03</pdfrwt>
<totfact> 0.65837290E+04</totfact>
</mgrwt>
</event>
<event>
 7    0  0.4732500E-002  0.4642767E+03  0.7546771E-02  0.1023548E+00
         21   -1    0    0  502  501  0.00000000000E+00  0.00000000000E+00  0.15912738617E+03  0.15912738617E+03  0.00000000000E+00 0.  1.
         21   -1    0    0  501  502 -0.00000000000E+00 -0.00000000000E+00 -0.33864825000E+03  0.33864825000E+03  0.00000000000E+00 0.  1.
      99926    2    1    2    0    0 -0.71054273576E-14 -0.14210854715E-13 -0.17952086382E+03  0.49777563617E+03  0.46427668843E+03 0.  0.
      99925    2    3    3    0    0  0.54686369469E+02 -0.10747206493E+03 -0.94254380386E+02  0.30423306968E+03  0.26293160464E+03 0.  0.
         25    1    4    4    0    0  0.48257868166E+02 -0.84984982064E+02 -0.29541595881E+02  0.16146666220E+03  0.12509000000E+03 0.  0.
         25    1    3    3    0    0 -0.54686369469E+02  0.10747206493E+03 -0.85266483436E+02  0.19354256649E+03  0.12509000000E+03 0.  0.
         25    1    4    4    0    0  0.64285013023E+01 -0.22487082867E+02 -0.64712784505E+02  0.14276640747E+03  0.12509000000E+03 0.  0.
<mgrwt>
<rscale>  2 0.46427669E+03</rscale>
<asrwt>0</asrwt>
<pdfrwt beam="1">  1       21 0.23401086E-01 0.46427669E+03</pdfrwt>
<pdfrwt beam="2">  1       21 0.49801213E-01 0.46427669E+03</pdfrwt>
<totfact> 0.60823035E+04</totfact>
</mgrwt>
</event>
<event>
 7    0  0.4732500E-002  0.4544522E+03  0.7546771E-02  0.1026403E+00
         21   -1    0    0  502  501  0.00000000000E+00  0.00000000000E+00  0.13126991757E+04  0.13126991757E+04  0.00000000000E+00 0.  1.
         21   -1    0    0  501  502 -0.00000000000E+00 -0.00000000000E+00 -0.39332464355E+02  0.39332464355E+02  0.00000000000E+00 0.  1.
      99926    2    1    2    0    0  0.00000000000E+00  0.00000000000E+00  0.12733667113E+04  0.13520316400E+04  0.45445216926E+03 0.  0.
      99925    2    3    3    0    0  0.26050819839E+02 -0.10840590281E+03  0.75103802056E+03  0.80348332468E+03  0.26286281544E+03 0.  0.
         25    1    4    4    0    0  0.19931299664E+02 -0.35190146540E+02  0.45811369898E+03  0.47660389467E+03  0.12509000000E+03 0.  0.
         25    1    4    4    0    0  0.61195201747E+01 -0.73215756271E+02  0.29292432157E+03  0.32687943001E+03  0.12509000000E+03 0.  0.
         25    1    3    3    0    0 -0.26050819839E+02  0.10840590281E+03  0.52232869074E+03  0.54854831533E+03  0.12509000000E+03 0.  0.
<mgrwt>
<rscale>  2 0.45445217E+03</rscale>
<asrwt>0</asrwt>
<pdfrwt beam="1">  1       21 0.19304397E+00 0.45445217E+03</pdfrwt>
<pdfrwt beam="2">  1       21 0.57841868E-02 0.45445217E+03</pdfrwt>
<totfact> 0.27756790E+04</totfact>
</mgrwt>
</event>
<event>
 7    0  0.4732500E-002  0.4550031E+03  0.7546771E-02  0.1026240E+00
         21   -1    0    0  502  501  0.00000000000E+00  0.00000000000E+00  0.20980060902E+03  0.20980060902E+03  0.00000000000E+00 0. -1.
         21   -1    0    0  501  502 -0.00000000000E+00 -0.00000000000E+00 -0.24669592894E+03  0.24669592894E+03  0.00000000000E+00 0. -1.
      99926    2    1    2    0    0  0.71054273576E-14  0.00000000000E+00 -0.36895319922E+02  0.45649653796E+03  0.45500310388E+03 0.  0.
      99925    2    3    3    0    0  0.49773716665E+02 -0.84584468113E+02 -0.79599843750E+02  0.29186622613E+03  0.26309276637E+03 0.  0.
         25    1    4    4    0    0  0.23724347074E+02 -0.36325257255E+02  0.26547621635E+01  0.13242705472E+03  0.12509000000E+03 0.  0.
         25    1    4    4    0    0  0.26049369590E+02 -0.48259210857E+02 -0.82254605913E+02  0.15943917142E+03  0.12509000000E+03 0.  0.
         25    1    3    3    0    0 -0.49773716665E+02  0.84584468113E+02  0.42704523828E+02  0.16463031183E+03  0.12509000000E+03 0.  0.
<mgrwt>
<rscale>  2 0.45500310E+03</rscale>
<asrwt>0</asrwt>
<pdfrwt beam="1">  1       21 0.30853031E-01 0.45500310E+03</pdfrwt>
<pdfrwt beam="2">  1       21 0.36278813E-01 0.45500310E+03</pdfrwt>
<totfact> 0.68434633E+04</totfact>
</mgrwt>
</event>
<event>
 7    0  0.4732500E-002  0.4649423E+03  0.7546771E-02  0.1023357E+00
         21   -1    0    0  502  501  0.00000000000E+00  0.00000000000E+00  0.44082564132E+03  0.44082564132E+03  0.00000000000E+00 0. -1.
         21   -1    0    0  501  502 -0.00000000000E+00 -0.00000000000E+00 -0.12259459480E+03  0.12259459480E+03  0.00000000000E+00 0. -1.
      99926    2    1    2    0    0  0.00000000000E+00  0.00000000000E+00  0.31823104652E+03  0.56342023612E+03  0.46494232276E+03 0.  0.
      99925    2    3    3    0    0  0.52987598402E+02 -0.79323966905E+01  0.65168153946E+02  0.27608951343E+03  0.26288385769E+03 0.  0.
         25    1    4    4    0    0  0.31478791382E+02  0.27154294593E+02  0.58554978174E+02  0.14423752491E+03  0.12509000000E+03 0.  0.
         25    1    3    3    0    0 -0.52987598402E+02  0.79323966905E+01  0.25306289257E+03  0.28733072269E+03  0.12509000000E+03 0.  0.
         25    1    4    4    0    0  0.21508807020E+02 -0.35086691284E+02  0.66131757719E+01  0.13185198853E+03  0.12509000000E+03 0.  0.
<mgrwt>
<rscale>  2 0.46494232E+03</rscale>
<asrwt>0</asrwt>
<pdfrwt beam="1">  1       21 0.64827300E-01 0.46494232E+03</pdfrwt>
<pdfrwt beam="2">  1       21 0.18028617E-01 0.46494232E+03</pdfrwt>
<totfact> 0.56419002E+04</totfact>
</mgrwt>
</event>
<event>
 7    0  0.4732500E-002  0.4505867E+03  0.7546771E-02  0.1027547E+00
         21   -1    0    0  502  501  0.00000000000E+00  0.00000000000E+00  0.42125993475E+02  0.42125993475E+02  0.00000000000E+00 0. -1.
         21   -1    0    0  501  502 -0.00000000000E+00 -0.00000000000E+00 -0.12048879579E+04  0.12048879579E+04  0.00000000000E+00 0. -1.
      99926    2    1    2    0    0  0.00000000000E+00  0.00000000000E+00 -0.11627619645E+04  0.12470139514E+04  0.45058673862E+03 0.  0.
      99925    2    3    3    0    0 -0.20673335193E+02 -0.97926689727E+02 -0.60978690011E+03  0.67130052162E+03  0.26227333725E+03 0.  0.
         25    1    4    4    0    0  0.19472591423E+01 -0.40515370363E+02 -0.20892764827E+03  0.24686748949E+03  0.12509000000E+03 0.  0.
         25    1    4    4    0    0 -0.22620594336E+02 -0.57411319364E+02 -0.40085925184E+03  0.42443303213E+03  0.12509000000E+03 0.  0.
         25    1    3    3    0    0  0.20673335193E+02  0.97926689727E+02 -0.55297506434E+03  0.57571342979E+03  0.12509000000E+03 0.  0.
<mgrwt>
<rscale>  2 0.45058674E+03</rscale>
<asrwt>0</asrwt>
<pdfrwt beam="1">  1       21 0.61949990E-02 0.45058674E+03</pdfrwt>
<pdfrwt beam="2">  1       21 0.17718941E+00 0.45058674E+03</pdfrwt>
<totfact> 0.31770707E+04</totfact>
</mgrwt>
</event>
<event>
 7    0  0.4732500E-002  0.4360384E+03  0.7546771E-02  0.1031969E+00
         21   -1    0    0  502  501  0.00000000000E+00  0.00000000000E+00  0.12007603517E+04  0.12007603517E+04  0.00000000000E+00 0. -1.
         21   -1    0    0  501  502 -0.00000000000E+00 -0.00000000000E+00 -0.39585226116E+02  0.39585226116E+02  0.00000000000E+00 0. -1.
      99926    2    1    2    0    0 -0.13322676296E-14  0.14210854715E-13  0.11611751256E+04  0.12403455778E+04  0.43603839296E+03 0.  0.
      99925    2    3    3    0    0  0.34741600466E+01 -0.94177827743E+02  0.76829508206E+03  0.81739904487E+03  0.26264487892E+03 0.  0.
         25    1    4    4    0    0  0.35014856466E+02 -0.52049952350E+02  0.45343253925E+03  0.47453536587E+03  0.12509000000E+03 0.  0.
         25    1    4    4    0    0 -0.31540696419E+02 -0.42127875393E+02  0.31486254281E+03  0.34286367900E+03  0.12509000000E+03 0.  0.
         25    1    3    3    0    0 -0.34741600466E+01  0.94177827743E+02  0.39288004353E+03  0.42294653294E+03  0.12509000000E+03 0.  0.
<mgrwt>
<rscale>  2 0.43603839E+03</rscale>
<asrwt>0</asrwt>
<pdfrwt beam="1">  1       21 0.17658238E+00 0.43603839E+03</pdfrwt>
<pdfrwt beam="2">  1       21 0.58213575E-02 0.43603839E+03</pdfrwt>
<totfact> 0.35911651E+04</totfact>
</mgrwt>
</event>
<event>
 7    0  0.4732500E-002  0.4530017E+03  0.7546771E-02  0.1026831E+00
         21   -1    0    0  502  501  0.00000000000E+00  0.00000000000E+00  0.32190568726E+03  0.32190568726E+03  0.00000000000E+00 0. -1.
         21   -1    0    0  501  502 -0.00000000000E+00 -0.00000000000E+00 -0.15937159948E+03  0.15937159948E+03  0.00000000000E+00 0. -1.
      99926    2    1    2    0    0  0.00000000000E+00 -0.71054273576E-14  0.16253408777E+03  0.48127728674E+03  0.45300165236E+03 0.  0.
      99925    2    3    3    0    0 -0.81064227111E+02 -0.60421320232E+02  0.53366370514E+02  0.28688787487E+03  0.26312456820E+03 0.  0.
         25    1    3    3    0    0  0.81064227111E+02  0.60421320232E+02  0.10916771726E+03  0.19438941187E+03  0.12509000000E+03 0.  0.
         25    1    4    4    0    0 -0.70447573735E+02 -0.40011886414E+02  0.57219913209E+02  0.15964159316E+03  0.12509000000E+03 0.  0.
         25    1    4    4    0    0 -0.10616653376E+02 -0.20409433818E+02 -0.38535426943E+01  0.12724628171E+03  0.12509000000E+03 0.  0.
<mgrwt>
<rscale>  2 0.45300165E+03</rscale>
<asrwt>0</asrwt>
<pdfrwt beam="1">  1       21 0.47339072E-01 0.45300165E+03</pdfrwt>
<pdfrwt beam="2">  1       21 0.23437000E-01 0.45300165E+03</pdfrwt>
<totfact> 0.67674394E+04</totfact>
</mgrwt>
</event>
<event>
 7    0  0.4732500E-002  0.4538122E+03  0.7546771E-02  0.1026591E+00
         21   -1    0    0  502  501  0.00000000000E+00  0.00000000000E+00  0.16859828309E+03  0.16859828309E+03  0.00000000000E+00 0. -1.
         21   -1    0    0  501  502 -0.00000000000E+00 -0.00000000000E+00 -0.30537907119E+03  0.30537907119E+03  0.00000000000E+00 0. -1.
      99926    2    1    2    0    0  0.00000000000E+00  0.00000000000E+00 -0.13678078810E+03  0.47397735428E+03  0.45381223912E+03 0.  0.
      99925    2    3    3    0    0 -0.53480632330E+02 -0.30149869692E+02  0.11844372646E+02  0.27024679893E+03  0.26291415042E+03 0.  0.
         25    1    3    3    0    0  0.53480632330E+02  0.30149869692E+02 -0.14862516074E+03  0.20373055535E+03  0.12509000000E+03 0.  0.
         25    1    4    4    0    0 -0.26802533663E+01 -0.22130219413E+02  0.37725476406E+02  0.13254301204E+03  0.12509000000E+03 0.  0.
         25    1    4    4    0    0 -0.50800378964E+02 -0.80196502794E+01 -0.25881103760E+02  0.13770378690E+03  0.12509000000E+03 0.  0.
<mgrwt>
<rscale>  2 0.45381224E+03</rscale>
<asrwt>0</asrwt>
<pdfrwt beam="1">  1       21 0.24793865E-01 0.45381224E+03</pdfrwt>
<pdfrwt beam="2">  1       21 0.44908687E-01 0.45381224E+03</pdfrwt>
<totfact> 0.67777800E+04</totfact>
</mgrwt>
</event>
<event>
 7    0  0.4732500E-002  0.4536202E+03  0.7546771E-02  0.1026648E+00
         21   -1    0    0  502  501  0.00000000000E+00  0.00000000000E+00  0.19141938498E+03  0.19141938498E+03  0.00000000000E+00 0.  1.
         21   -1    0    0  501  502 -0.00000000000E+00 -0.00000000000E+00 -0.26874405471E+03  0.26874405471E+03  0.00000000000E+00 0.  1.
      99926    2    1    2    0    0  0.00000000000E+00 -0.22204460493E-15 -0.77324669726E+02  0.46016343969E+03  0.45362020092E+03 0.  0.
      99925    2    3    3    0    0 -0.12896712309E+02 -0.17575141644E+01  0.63902787992E+02  0.27105469596E+03  0.26309250815E+03 0.  0.
         25    1    3    3    0    0  0.12896712309E+02  0.17575141644E+01 -0.14122745772E+03  0.18910874374E+03  0.12509000000E+03 0.  0.
         25    1    4    4    0    0 -0.26866642639E+02 -0.68182899876E+01 -0.35283744268E+01  0.12817278608E+03  0.12509000000E+03 0.  0.
         25    1    4    4    0    0  0.13969930330E+02  0.50607758232E+01  0.67431162419E+02  0.14288190988E+03  0.12509000000E+03 0.  0.
<mgrwt>
<rscale>  2 0.45362020E+03</rscale>
<asrwt>0</asrwt>
<pdfrwt beam="1">  1       21 0.28149910E-01 0.45362020E+03</pdfrwt>
<pdfrwt beam="2">  1       21 0.39521184E-01 0.45362020E+03</pdfrwt>
<totfact> 0.68923517E+04</totfact>
</mgrwt>
</event>
<event>
 7    0  0.4732500E-002  0.4561714E+03  0.7546771E-02  0.1025897E+00
         21   -1    0    0  502  501  0.00000000000E+00  0.00000000000E+00  0.78029523533E+03  0.78029523533E+03  0.00000000000E+00 0.  1.
         21   -1    0    0  501  502 -0.00000000000E+00 -0.00000000000E+00 -0.66671038728E+02  0.66671038728E+02  0.00000000000E+00 0.  1.
      99926    2    1    2    0    0  0.22204460493E-15  0.00000000000E+00  0.71362419661E+03  0.84696627406E+03  0.45617143205E+03 0.  0.
      99925    2    3    3    0    0 -0.10894583239E+01 -0.79478839882E+02  0.60101891151E+03  0.66083317319E+03  0.26298037548E+03 0.  0.
         25    1    4    4    0    0  0.65588500408E+01 -0.25614493542E+02  0.38180228054E+03  0.40264079565E+03  0.12509000000E+03 0.  0.
         25    1    4    4    0    0 -0.76483083647E+01 -0.53864346340E+02  0.21921663097E+03  0.25819237754E+03  0.12509000000E+03 0.  0.
         25    1    3    3    0    0  0.10894583239E+01  0.79478839882E+02  0.11260528509E+03  0.18613310087E+03  0.12509000000E+03 0.  0.
<mgrwt>
<rscale>  2 0.45617143E+03</rscale>
<asrwt>0</asrwt>
<pdfrwt beam="1">  1       21 0.11474929E+00 0.45617143E+03</pdfrwt>
<pdfrwt beam="2">  1       21 0.98045649E-02 0.45617143E+03</pdfrwt>
<totfact> 0.45158965E+04</totfact>
</mgrwt>
</event>
<event>
 7    0  0.4732500E-002  0.4170943E+03  0.7546771E-02  0.1038016E+00
         21   -1    0    0  502  501  0.00000000000E+00  0.00000000000E+00  0.52071052401E+02  0.52071052401E+02  0.00000000000E+00 0. -1.
         21   -1    0    0  501  502 -0.00000000000E+00 -0.00000000000E+00 -0.83524151213E+03  0.83524151213E+03  0.00000000000E+00 0. -1.
      99926    2    1    2    0    0 -0.35527136788E-14  0.00000000000E+00 -0.78317045973E+03  0.88731256453E+03  0.41709425575E+03 0.  0.
      99925    2    3    3    0    0  0.20022747189E+02  0.61138928026E+02 -0.58409444886E+03  0.64355521566E+03  0.26240829158E+03 0.  0.
         25    1    4    4    0    0  0.16752861688E+02 -0.72823459907E+00 -0.22018669886E+03  0.25379298484E+03  0.12509000000E+03 0.  0.
         25    1    4    4    0    0  0.32698855009E+01  0.61867162625E+02 -0.36390775000E+03  0.38976223082E+03  0.12509000000E+03 0.  0.
         25    1    3    3    0    0 -0.20022747189E+02 -0.61138928026E+02 -0.19907601087E+03  0.24375734887E+03  0.12509000000E+03 0.  0.
<mgrwt>
<rscale>  2 0.41709426E+03</rscale>
<asrwt>0</asrwt>
<pdfrwt beam="1">  1       21 0.76575084E-02 0.41709426E+03</pdfrwt>
<pdfrwt beam="2">  1       21 0.12282962E+00 0.41709426E+03</pdfrwt>
<totfact> 0.59599362E+04</totfact>
</mgrwt>
</event>
<event>
 7    0  0.4732500E-002  0.4682488E+03  0.7546771E-02  0.1022416E+00
         21   -1    0    0  502  501  0.00000000000E+00  0.00000000000E+00  0.11381472051E+03  0.11381472051E+03  0.00000000000E+00 0. -1.
         21   -1    0    0  501  502 -0.00000000000E+00 -0.00000000000E+00 -0.48160931560E+03  0.48160931560E+03  0.00000000000E+00 0. -1.
      99926    2    1    2    0    0  0.71054273576E-14  0.14210854715E-13 -0.36779459509E+03  0.59542403610E+03  0.46824877853E+03 0.  0.
      99925    2    3    3    0    0  0.36698183109E+02  0.11937190884E+03 -0.23787489909E+03  0.37605438284E+03  0.26312738735E+03 0.  0.
         25    1    4    4    0    0  0.17547724322E+02  0.73024222523E+02 -0.73119183290E+02  0.16320043740E+03  0.12509000000E+03 0.  0.
         25    1    4    4    0    0  0.19150458787E+02  0.46347686318E+02 -0.16475571580E+03  0.21285394544E+03  0.12509000000E+03 0.  0.
         25    1    3    3    0    0 -0.36698183109E+02 -0.11937190884E+03 -0.12991969600E+03  0.21936965326E+03  0.12509000000E+03 0.  0.
<mgrwt>
<rscale>  2 0.46824878E+03</rscale>
<asrwt>0</asrwt>
<pdfrwt beam="1">  1       21 0.16737459E-01 0.46824878E+03</pdfrwt>
<pdfrwt beam="2">  1       21 0.70824900E-01 0.46824878E+03</pdfrwt>
<totfact> 0.53171125E+04</totfact>
</mgrwt>
</event>
<event>
 7    0  0.4732500E-002  0.4574507E+03  0.7546771E-02  0.1025523E+00
         21   -1    0    0  502  501  0.00000000000E+00  0.00000000000E+00  0.10695914982E+03  0.10695914982E+03  0.00000000000E+00 0. -1.
         21   -1    0    0  501  502 -0.00000000000E+00 -0.00000000000E+00 -0.48911467942E+03  0.48911467942E+03  0.00000000000E+00 0. -1.
      99926    2    1    2    0    0  0.35527136788E-14  0.14210854715E-13 -0.38215552960E+03  0.59607382925E+03  0.45745071987E+03 0.  0.
      99925    2    3    3    0    0  0.27236566315E+02  0.71314105932E+02 -0.35219511934E+03  0.44649887636E+03  0.26361394548E+03 0.  0.
         25    1    3    3    0    0 -0.27236566315E+02 -0.71314105932E+02 -0.29960410260E+02  0.14957495289E+03  0.12509000000E+03 0.  0.
         25    1    4    4    0    0  0.31083672052E+02  0.18478804121E+02 -0.11783399860E+03  0.17561326885E+03  0.12509000000E+03 0.  0.
         25    1    4    4    0    0 -0.38471057365E+01  0.52835301812E+02 -0.23436112074E+03  0.27088560751E+03  0.12509000000E+03 0.  0.
<mgrwt>
<rscale>  2 0.45745072E+03</rscale>
<asrwt>0</asrwt>
<pdfrwt beam="1">  1       21 0.15729287E-01 0.45745072E+03</pdfrwt>
<pdfrwt beam="2">  1       21 0.71928628E-01 0.45745072E+03</pdfrwt>
<totfact> 0.57793194E+04</totfact>
</mgrwt>
</event>
<event>
 7    0  0.4732500E-002  0.4497576E+03  0.7546771E-02  0.1027794E+00
         21   -1    0    0  502  501  0.00000000000E+00  0.00000000000E+00  0.12831032414E+03  0.12831032414E+03  0.00000000000E+00 0. -1.
         21   -1    0    0  501  502 -0.00000000000E+00 -0.00000000000E+00 -0.39412637552E+03  0.39412637552E+03  0.00000000000E+00 0. -1.
      99926    2    1    2    0    0 -0.88817841970E-15  0.14210854715E-13 -0.26581605138E+03  0.52243669966E+03  0.44975763693E+03 0.  0.
      99925    2    3    3    0    0  0.42963537559E+01  0.10738640676E+03 -0.15179664023E+03  0.32194172907E+03  0.26278119780E+03 0.  0.
         25    1    4    4    0    0 -0.12560731599E+02  0.13463464517E+02 -0.62627605834E+02  0.14109841235E+03  0.12509000000E+03 0.  0.
         25    1    3    3    0    0 -0.42963537559E+01 -0.10738640676E+03 -0.11401941115E+03  0.20049497059E+03  0.12509000000E+03 0.  0.
         25    1    4    4    0    0  0.16857085355E+02  0.93922942243E+02 -0.89169034392E+02  0.18084331672E+03  0.12509000000E+03 0.  0.
<mgrwt>
<rscale>  2 0.44975764E+03</rscale>
<asrwt>0</asrwt>
<pdfrwt beam="1">  1       21 0.18869166E-01 0.44975764E+03</pdfrwt>
<pdfrwt beam="2">  1       21 0.57959760E-01 0.44975764E+03</pdfrwt>
<totfact> 0.66439807E+04</totfact>
</mgrwt>
</event>
<event>
 7    0  0.4732500E-002  0.4550187E+03  0.7546771E-02  0.1026236E+00
         21   -1    0    0  502  501  0.00000000000E+00  0.00000000000E+00  0.10482030541E+04  0.10482030541E+04  0.00000000000E+00 0.  1.
         21   -1    0    0  501  502 -0.00000000000E+00 -0.00000000000E+00 -0.49380223699E+02  0.49380223699E+02  0.00000000000E+00 0.  1.
      99926    2    1    2    0    0 -0.53290705182E-14  0.14210854715E-13  0.99882283037E+03  0.10975832778E+04  0.45501868662E+03 0.  0.
      99925    2    3    3    0    0 -0.66182052077E+01  0.11062170717E+03  0.56927915322E+03  0.63667521599E+03  0.26267016128E+03 0.  0.
         25    1    4    4    0    0 -0.41729817093E+02  0.61786120725E+02  0.31319381669E+03  0.34539365550E+03  0.12509000000E+03 0.  0.
         25    1    3    3    0    0  0.66182052077E+01 -0.11062170717E+03  0.42954367715E+03  0.46090806178E+03  0.12509000000E+03 0.  0.
         25    1    4    4    0    0  0.35111611885E+02  0.48835586441E+02  0.25608533653E+03  0.29128156049E+03  0.12509000000E+03 0.  0.
<mgrwt>
<rscale>  2 0.45501869E+03</rscale>
<asrwt>0</asrwt>
<pdfrwt beam="1">  1       21 0.15414749E+00 0.45501869E+03</pdfrwt>
<pdfrwt beam="2">  1       21 0.72617982E-02 0.45501869E+03</pdfrwt>
<totfact> 0.35572982E+04</totfact>
</mgrwt>
</event>
<event>
 7    0  0.4732500E-002  0.4902541E+03  0.7546771E-02  0.1016355E+00
         21   -1    0    0  502  501  0.00000000000E+00  0.00000000000E+00  0.87922053206E+03  0.87922053206E+03  0.00000000000E+00 0. -1.
         21   -1    0    0  501  502 -0.00000000000E+00 -0.00000000000E+00 -0.68341510088E+02  0.68341510088E+02  0.00000000000E+00 0. -1.
      99926    2    1    2    0    0  0.17763568394E-14  0.88817841970E-15  0.81087902197E+03  0.94756204215E+03  0.49025405194E+03 0.  0.
      99925    2    3    3    0    0 -0.12307704924E+02  0.70937449637E+01  0.21932335926E+03  0.34275842856E+03  0.26301863739E+03 0.  0.
         25    1    4    4    0    0 -0.15270496265E+02 -0.22582555540E+02  0.14806340232E+03  0.19573819013E+03  0.12509000000E+03 0.  0.
         25    1    3    3    0    0  0.12307704924E+02 -0.70937449637E+01  0.59155566272E+03  0.60480361359E+03  0.12509000000E+03 0.  0.
         25    1    4    4    0    0  0.29627913412E+01  0.29676300504E+02  0.71259956938E+02  0.14702023843E+03  0.12509000000E+03 0.  0.
<mgrwt>
<rscale>  2 0.49025405E+03</rscale>
<asrwt>0</asrwt>
<pdfrwt beam="1">  1       21 0.12929713E+00 0.49025405E+03</pdfrwt>
<pdfrwt beam="2">  1       21 0.10050223E-01 0.49025405E+03</pdfrwt>
<totfact> 0.31583889E+04</totfact>
</mgrwt>
</event>
<event>
 7    0  0.4732500E-002  0.4587659E+03  0.7546771E-02  0.1025140E+00
         21   -1    0    0  502  501  0.00000000000E+00  0.00000000000E+00  0.80062359647E+02  0.80062359647E+02  0.00000000000E+00 0.  1.
         21   -1    0    0  501  502 -0.00000000000E+00 -0.00000000000E+00 -0.65719435281E+03  0.65719435281E+03  0.00000000000E+00 0.  1.
      99926    2    1    2    0    0  0.00000000000E+00  0.00000000000E+00 -0.57713199316E+03  0.73725671245E+03  0.45876586897E+03 0.  0.
      99925    2    3    3    0    0  0.68717498364E+02 -0.42187889129E+02 -0.49733596037E+03  0.56838745083E+03  0.26309565603E+03 0.  0.
         25    1    4    4    0    0  0.75883724220E+01  0.70670029959E+01 -0.19492454590E+03  0.23184178360E+03  0.12509000000E+03 0.  0.
         25    1    3    3    0    0 -0.68717498364E+02  0.42187889129E+02 -0.79796032796E+02  0.16886926162E+03  0.12509000000E+03 0.  0.
         25    1    4    4    0    0  0.61129125942E+02 -0.49254892125E+02 -0.30241141446E+03  0.33654566723E+03  0.12509000000E+03 0.  0.
<mgrwt>
<rscale>  2 0.45876587E+03</rscale>
<asrwt>0</asrwt>
<pdfrwt beam="1">  1       21 0.11773876E-01 0.45876587E+03</pdfrwt>
<pdfrwt beam="2">  1       21 0.96646229E-01 0.45876587E+03</pdfrwt>
<totfact> 0.49446087E+04</totfact>
</mgrwt>
</event>
<event>
 7    0  0.4732500E-002  0.4553582E+03  0.7546771E-02  0.1026136E+00
         21   -1    0    0  502  501  0.00000000000E+00  0.00000000000E+00  0.46200414871E+03  0.46200414871E+03  0.00000000000E+00 0.  1.
         21   -1    0    0  501  502 -0.00000000000E+00 -0.00000000000E+00 -0.11220193888E+03  0.11220193888E+03  0.00000000000E+00 0.  1.
      99926    2    1    2    0    0  0.00000000000E+00  0.14210854715E-13  0.34980220983E+03  0.57420608759E+03  0.45535815028E+03 0.  0.
      99925    2    3    3    0    0  0.84451351648E+02  0.67408583118E+02  0.26187183188E+03  0.38697572857E+03  0.26362361483E+03 0.  0.
         25    1    4    4    0    0  0.23356925297E+02  0.33859475302E+02  0.17667983983E+03  0.22035263540E+03  0.12509000000E+03 0.  0.
         25    1    3    3    0    0 -0.84451351648E+02 -0.67408583118E+02  0.87930377949E+02  0.18723035902E+03  0.12509000000E+03 0.  0.
         25    1    4    4    0    0  0.61094426351E+02  0.33549107815E+02  0.85191992057E+02  0.16662309317E+03  0.12509000000E+03 0.  0.
<mgrwt>
<rscale>  2 0.45535815E+03</rscale>
<asrwt>0</asrwt>
<pdfrwt beam="1">  1       21 0.67941786E-01 0.45535815E+03</pdfrwt>
<pdfrwt beam="2">  1       21 0.16500285E-01 0.45535815E+03</pdfrwt>
<totfact> 0.60124276E+04</totfact>
</mgrwt>
</event>
<event>
 7    0  0.4732500E-002  0.4690252E+03  0.7546771E-02  0.1022196E+00
         21   -1    0    0  502  501  0.00000000000E+00  0.00000000000E+00  0.11241553442E+03  0.11241553442E+03  0.00000000000E+00 0.  1.
         21   -1    0    0  501  502 -0.00000000000E+00 -0.00000000000E+00 -0.48922204700E+03  0.48922204700E+03  0.00000000000E+00 0.  1.
      99926    2    1    2    0    0 -0.71054273576E-14  0.00000000000E+00 -0.37680651258E+03  0.60163758142E+03  0.46902519277E+03 0.  0.
      99925    2    3    3    0    0  0.62345527863E+02 -0.78151077403E+02 -0.13613470242E+03  0.31256149446E+03  0.26299710051E+03 0.  0.
         25    1    4    4    0    0  0.30650397314E+02 -0.17885370757E+02 -0.10414158541E+03  0.16659024958E+03  0.12509000000E+03 0.  0.
         25    1    3    3    0    0 -0.62345527863E+02  0.78151077403E+02 -0.24067181016E+03  0.28907608695E+03  0.12509000000E+03 0.  0.
         25    1    4    4    0    0  0.31695130548E+02 -0.60265706646E+02 -0.31993117010E+02  0.14597124489E+03  0.12509000000E+03 0.  0.
<mgrwt>
<rscale>  2 0.46902519E+03</rscale>
<asrwt>0</asrwt>
<pdfrwt beam="1">  1       21 0.16531696E-01 0.46902519E+03</pdfrwt>
<pdfrwt beam="2">  1       21 0.71944419E-01 0.46902519E+03</pdfrwt>
<totfact> 0.52511787E+04</totfact>
</mgrwt>
</event>
<event>
 7    0  0.4732500E-002  0.4309555E+03  0.7546771E-02  0.1033559E+00
         21   -1    0    0  502  501  0.00000000000E+00  0.00000000000E+00  0.96006219366E+02  0.96006219366E+02  0.00000000000E+00 0.  1.
         21   -1    0    0  501  502 -0.00000000000E+00 -0.00000000000E+00 -0.48362148490E+03  0.48362148490E+03  0.00000000000E+00 0.  1.
      99926    2    1    2    0    0  0.00000000000E+00  0.00000000000E+00 -0.38761526553E+03  0.57962770426E+03  0.43095554466E+03 0.  0.
      99925    2    3    3    0    0  0.88530709143E+02 -0.54755306740E+01 -0.24401325741E+03  0.36954031118E+03  0.26296369311E+03 0.  0.
         25    1    3    3    0    0 -0.88530709143E+02  0.54755306740E+01 -0.14360200812E+03  0.21008739309E+03  0.12509000000E+03 0.  0.
         25    1    4    4    0    0  0.50753253231E+02  0.54153566982E+01 -0.17585577966E+03  0.22176109249E+03  0.12509000000E+03 0.  0.
         25    1    4    4    0    0  0.37777455913E+02 -0.10890887372E+02 -0.68157477753E+02  0.14777921869E+03  0.12509000000E+03 0.  0.
<mgrwt>
<rscale>  2 0.43095554E+03</rscale>
<asrwt>0</asrwt>
<pdfrwt beam="1">  1       21 0.14118562E-01 0.43095554E+03</pdfrwt>
<pdfrwt beam="2">  1       21 0.71120805E-01 0.43095554E+03</pdfrwt>
<totfact> 0.72838764E+04</totfact>
</mgrwt>
</event>
<event>
 7    0  0.4732500E-002  0.4720910E+03  0.7546771E-02  0.1021332E+00
         21   -1    0    0  502  501  0.00000000000E+00  0.00000000000E+00  0.10085973647E+04  0.10085973647E+04  0.00000000000E+00 0. -1.
         21   -1    0    0  501  502 -0.00000000000E+00 -0.00000000000E+00 -0.55242526144E+02  0.55242526144E+02  0.00000000000E+00 0. -1.
      99926    2    1    2    0    0  0.00000000000E+00  0.35527136788E-14  0.95335483853E+03  0.10638398908E+04  0.47209095008E+03 0.  0.
      99925    2    3    3    0    0 -0.36869826615E+02  0.19399080358E+02  0.31716018397E+03  0.41412698882E+03  0.26301116352E+03 0.  0.
         25    1    4    4    0    0  0.11851220372E+01 -0.23175848992E+02  0.17484554344E+03  0.21623366216E+03  0.12509000000E+03 0.  0.
         25    1    3    3    0    0  0.36869826615E+02 -0.19399080358E+02  0.63619465456E+03  0.64971290200E+03  0.12509000000E+03 0.  0.
         25    1    4    4    0    0 -0.38054948652E+02  0.42574929350E+02  0.14231464053E+03  0.19789332666E+03  0.12509000000E+03 0.  0.
<mgrwt>
<rscale>  2 0.47209095E+03</rscale>
<asrwt>0</asrwt>
<pdfrwt beam="1">  1       21 0.14832313E+00 0.47209095E+03</pdfrwt>
<pdfrwt beam="2">  1       21 0.81239015E-02 0.47209095E+03</pdfrwt>
<totfact> 0.32252128E+04</totfact>
</mgrwt>
</event>
<event>
 7    0  0.4732500E-002  0.4601957E+03  0.7546771E-02  0.1024724E+00
         21   -1    0    0  502  501  0.00000000000E+00  0.00000000000E+00  0.25105129950E+02  0.25105129950E+02  0.00000000000E+00 0.  1.
         21   -1    0    0  501  502 -0.00000000000E+00 -0.00000000000E+00 -0.21089327202E+04  0.21089327202E+04  0.00000000000E+00 0.  1.
      99926    2    1    2    0    0  0.14210854715E-13  0.14210854715E-13 -0.20838275902E+04  0.21340378501E+04  0.46019574095E+03 0.  0.
      99925    2    3    3    0    0 -0.84191470587E+02 -0.82409105742E+02 -0.13209690648E+04  0.13520659182E+04  0.26314162067E+03 0.  0.
         25    1    3    3    0    0  0.84191470587E+02  0.82409105742E+02 -0.76285852545E+03  0.78197193196E+03  0.12509000000E+03 0.  0.
         25    1    4    4    0    0 -0.13634515048E+02 -0.65350970436E+02 -0.73140847907E+03  0.74502518125E+03  0.12509000000E+03 0.  0.
         25    1    4    4    0    0 -0.70556955539E+02 -0.17058135306E+02 -0.58956058573E+03  0.60704073694E+03  0.12509000000E+03 0.  0.
<mgrwt>
<rscale>  2 0.46019574E+03</rscale>
<asrwt>0</asrwt>
<pdfrwt beam="1">  1       21 0.36919300E-02 0.46019574E+03</pdfrwt>
<pdfrwt beam="2">  1       21 0.31013724E+00 0.46019574E+03</pdfrwt>
<totfact> 0.11184188E+04</totfact>
</mgrwt>
</event>
<event>
 7    0  0.4732500E-002  0.4881968E+03  0.7546771E-02  0.1016906E+00
         21   -1    0    0  502  501  0.00000000000E+00  0.00000000000E+00  0.77728222506E+02  0.77728222506E+02  0.00000000000E+00 0. -1.
         21   -1    0    0  501  502 -0.00000000000E+00 -0.00000000000E+00 -0.76656882651E+03  0.76656882651E+03  0.00000000000E+00 0. -1.
      99926    2    1    2    0    0  0.00000000000E+00  0.00000000000E+00 -0.68884060400E+03  0.84429704901E+03  0.48819681405E+03 0.  0.
      99925    2    3    3    0    0  0.10312773013E+03  0.97694719368E+02 -0.42179621768E+03  0.51697488466E+03  0.26300455358E+03 0.  0.
         25    1    4    4    0    0  0.67053999752E+02  0.90493609515E+02 -0.22812667753E+03  0.28350418224E+03  0.12509000000E+03 0.  0.
         25    1    4    4    0    0  0.36073730373E+02  0.72011098529E+01 -0.19366954014E+03  0.23347070241E+03  0.12509000000E+03 0.  0.
         25    1    3    3    0    0 -0.10312773013E+03 -0.97694719368E+02 -0.26704438632E+03  0.32732216436E+03  0.12509000000E+03 0.  0.
<mgrwt>
<rscale>  2 0.48819681E+03</rscale>
<asrwt>0</asrwt>
<pdfrwt beam="1">  1       21 0.11430622E-01 0.48819681E+03</pdfrwt>
<pdfrwt beam="2">  1       21 0.11273070E+00 0.48819681E+03</pdfrwt>
<totfact> 0.35504779E+04</totfact>
</mgrwt>
</event>
<event>
 7    0  0.4732500E-002  0.4268291E+03  0.7546771E-02  0.1034866E+00
         21   -1    0    0  502  501  0.00000000000E+00  0.00000000000E+00  0.11694880362E+04  0.11694880362E+04  0.00000000000E+00 0.  1.
         21   -1    0    0  501  502 -0.00000000000E+00 -0.00000000000E+00 -0.38945042952E+02  0.38945042952E+02  0.00000000000E+00 0.  1.
      99926    2    1    2    0    0  0.00000000000E+00  0.00000000000E+00  0.11305429933E+04  0.12084330792E+04  0.42682906088E+03 0.  0.
      99925    2    3    3    0    0  0.23648403195E+02  0.79331963322E+02  0.68909203201E+03  0.74219358420E+03  0.26296516969E+03 0.  0.
         25    1    3    3    0    0 -0.23648403195E+02 -0.79331963322E+02  0.44145096128E+03  0.46623949499E+03  0.12509000000E+03 0.  0.
         25    1    4    4    0    0  0.19283643487E+02  0.46050448999E+02  0.24475086464E+03  0.27936176654E+03  0.12509000000E+03 0.  0.
         25    1    4    4    0    0  0.43647597087E+01  0.33281514322E+02  0.44434116737E+03  0.46283181766E+03  0.12509000000E+03 0.  0.
<mgrwt>
<rscale>  2 0.42682906E+03</rscale>
<asrwt>0</asrwt>
<pdfrwt beam="1">  1       21 0.17198351E+00 0.42682906E+03</pdfrwt>
<pdfrwt beam="2">  1       21 0.57272130E-02 0.42682906E+03</pdfrwt>
<totfact> 0.39962906E+04</totfact>
</mgrwt>
</event>
<event>
 7    0  0.4732500E-002  0.4554466E+03  0.7546771E-02  0.1026110E+00
         21   -1    0    0  502  501  0.00000000000E+00  0.00000000000E+00  0.44451897892E+03  0.44451897892E+03  0.00000000000E+00 0.  1.
         21   -1    0    0  501  502 -0.00000000000E+00 -0.00000000000E+00 -0.11666073618E+03  0.11666073618E+03  0.00000000000E+00 0.  1.
      99926    2    1    2    0    0  0.71054273576E-14  0.00000000000E+00  0.32785824274E+03  0.56117971511E+03  0.45544664376E+03 0.  0.
      99925    2    3    3    0    0  0.40872479740E+02  0.97149943407E+02  0.15399233066E+03  0.32246328378E+03  0.26298338423E+03 0.  0.
         25    1    3    3    0    0 -0.40872479740E+02 -0.97149943407E+02  0.17386591208E+03  0.23871643133E+03  0.12509000000E+03 0.  0.
         25    1    4    4    0    0 -0.53910765515E+01  0.58458260934E+02  0.11053702534E+03  0.17695302781E+03  0.12509000000E+03 0.  0.
         25    1    4    4    0    0  0.46263556292E+02  0.38691682472E+02  0.43455305321E+02  0.14551025597E+03  0.12509000000E+03 0.  0.
<mgrwt>
<rscale>  2 0.45544664E+03</rscale>
<asrwt>0</asrwt>
<pdfrwt beam="1">  1       21 0.65370438E-01 0.45544664E+03</pdfrwt>
<pdfrwt beam="2">  1       21 0.17155991E-01 0.45544664E+03</pdfrwt>
<totfact> 0.60918240E+04</totfact>
</mgrwt>
</event>
<event>
 7    0  0.4732500E-002  0.4529613E+03  0.7546771E-02  0.1026843E+00
         21   -1    0    0  502  501  0.00000000000E+00  0.00000000000E+00  0.10272589564E+03  0.10272589564E+03  0.00000000000E+00 0. -1.
         21   -1    0    0  501  502 -0.00000000000E+00 -0.00000000000E+00 -0.49932379138E+03  0.49932379138E+03  0.00000000000E+00 0. -1.
      99926    2    1    2    0    0  0.00000000000E+00 -0.14210854715E-13 -0.39659789574E+03  0.60204968702E+03  0.45296129496E+03 0.  0.
      99925    2    3    3    0    0 -0.30150259357E+02  0.10065869466E+03 -0.29879759675E+03  0.41164585950E+03  0.26292793474E+03 0.  0.
         25    1    3    3    0    0  0.30150259357E+02 -0.10065869466E+03 -0.97800298993E+02  0.19040382752E+03  0.12509000000E+03 0.  0.
         25    1    4    4    0    0 -0.33128266072E+02  0.30137481108E+02 -0.99534352447E+02  0.16601308743E+03  0.12509000000E+03 0.  0.
         25    1    4    4    0    0  0.29780067152E+01  0.70521213556E+02 -0.19926324430E+03  0.24563277207E+03  0.12509000000E+03 0.  0.
<mgrwt>
<rscale>  2 0.45296129E+03</rscale>
<asrwt>0</asrwt>
<pdfrwt beam="1">  1       21 0.15106749E-01 0.45296129E+03</pdfrwt>
<pdfrwt beam="2">  1       21 0.73429971E-01 0.45296129E+03</pdfrwt>
<totfact> 0.59504963E+04</totfact>
</mgrwt>
</event>
<event>
 6    0  0.4732500E-002  0.4383081E+03  0.7546771E-02  0.1031267E+00
         21   -1    0    0  502  501  0.00000000000E+00  0.00000000000E+00  0.68385276180E+03  0.68385276180E+03  0.00000000000E+00 0.  1.
         21   -1    0    0  501  502 -0.00000000000E+00 -0.00000000000E+00 -0.70232224007E+02  0.70232224007E+02  0.00000000000E+00 0.  1.
      99926    2    1    2    0    0 -0.26645352591E-14  0.00000000000E+00  0.61362053779E+03  0.75408498581E+03  0.43830811243E+03 0.  0.
         25    1    3    3    0    0 -0.30973099384E+02 -0.66977455828E+02  0.24674999535E+03  0.28631866998E+03  0.12509000000E+03 0.  0.
         25    1    3    3    0    0  0.23576564274E+02 -0.20014818934E+02  0.22585565009E+03  0.26002832564E+03  0.12509000000E+03 0.  0.
         25    1    3    3    0    0  0.73965351097E+01  0.86992274762E+02  0.14101489236E+03  0.20773799019E+03  0.12509000000E+03 0.  0.
<mgrwt>
<rscale>  2 0.43830811E+03</rscale>
<asrwt>0</asrwt>
<pdfrwt beam="1">  1       21 0.10056658E+00 0.43830811E+03</pdfrwt>
<pdfrwt beam="2">  1       21 0.10328269E-01 0.43830811E+03</pdfrwt>
<totfact> 0.57201946E+04</totfact>
</mgrwt>
</event>
<event>
 7    0  0.4732500E-002  0.4449196E+03  0.7546771E-02  0.1029248E+00
         21   -1    0    0  502  501  0.00000000000E+00  0.00000000000E+00  0.78791945234E+02  0.78791945234E+02  0.00000000000E+00 0. -1.
         21   -1    0    0  501  502 -0.00000000000E+00 -0.00000000000E+00 -0.62808899631E+03  0.62808899631E+03  0.00000000000E+00 0. -1.
      99926    2    1    2    0    0  0.00000000000E+00  0.00000000000E+00 -0.54929705107E+03  0.70688094154E+03  0.44491956037E+03 0.  0.
      99925    2    3    3    0    0 -0.10172439432E+03  0.18471267686E+02 -0.34505741627E+03  0.44601627040E+03  0.26301492886E+03 0.  0.
         25    1    3    3    0    0  0.10172439432E+03 -0.18471267686E+02 -0.20423963480E+03  0.26086467114E+03  0.12509000000E+03 0.  0.
         25    1    4    4    0    0 -0.78497537564E+02  0.28686012758E+02 -0.14659652206E+03  0.21005427659E+03  0.12509000000E+03 0.  0.
         25    1    4    4    0    0 -0.23226856751E+02 -0.10214745072E+02 -0.19846089421E+03  0.23596199381E+03  0.12509000000E+03 0.  0.
<mgrwt>
<rscale>  2 0.44491956E+03</rscale>
<asrwt>0</asrwt>
<pdfrwt beam="1">  1       21 0.11587051E-01 0.44491956E+03</pdfrwt>
<pdfrwt beam="2">  1       21 0.92366027E-01 0.44491956E+03</pdfrwt>
<totfact> 0.56912405E+04</totfact>
</mgrwt>
</event>
<event>
 7    0  0.4732500E-002  0.4565590E+03  0.7546771E-02  0.1025784E+00
         21   -1    0    0  502  501  0.00000000000E+00  0.00000000000E+00  0.16290570374E+03  0.16290570374E+03  0.00000000000E+00 0.  1.
         21   -1    0    0  501  502 -0.00000000000E+00 -0.00000000000E+00 -0.31988767783E+03  0.31988767783E+03  0.00000000000E+00 0.  1.
      99926    2    1    2    0    0  0.00000000000E+00  0.17763568394E-14 -0.15698197409E+03  0.48279338158E+03  0.45655898754E+03 0.  0.
      99925    2    3    3    0    0  0.57386521979E+02  0.55050212182E+01  0.61021537104E+01  0.26932802372E+03  0.26301488535E+03 0.  0.
         25    1    4    4    0    0  0.18164631239E+02 -0.34379626094E+02  0.15873159023E+02  0.13195217996E+03  0.12509000000E+03 0.  0.
         25    1    3    3    0    0 -0.57386521979E+02 -0.55050212182E+01 -0.16308412780E+03  0.21346535786E+03  0.12509000000E+03 0.  0.
         25    1    4    4    0    0  0.39221890739E+02  0.39884647312E+02 -0.97710053123E+01  0.13737584376E+03  0.12509000000E+03 0.  0.
<mgrwt>
<rscale>  2 0.45655899E+03</rscale>
<asrwt>0</asrwt>
<pdfrwt beam="1">  1       21 0.23956721E-01 0.45655899E+03</pdfrwt>
<pdfrwt beam="2">  1       21 0.47042306E-01 0.45655899E+03</pdfrwt>
<totfact> 0.65680747E+04</totfact>
</mgrwt>
</event>
<event>
 7    0  0.4732500E-002  0.4549039E+03  0.7546771E-02  0.1026270E+00
         21   -1    0    0  502  501  0.00000000000E+00  0.00000000000E+00  0.90014808292E+03  0.90014808292E+03  0.00000000000E+00 0. -1.
         21   -1    0    0  501  502 -0.00000000000E+00 -0.00000000000E+00 -0.57473193612E+02  0.57473193612E+02  0.00000000000E+00 0. -1.
      99926    2    1    2    0    0  0.00000000000E+00  0.00000000000E+00  0.84267488931E+03  0.95762127653E+03  0.45490388017E+03 0.  0.
      99925    2    3    3    0    0 -0.58405315512E+02  0.78444710097E+02  0.65011875009E+03  0.70804137295E+03  0.26287533769E+03 0.  0.
         25    1    3    3    0    0  0.58405315512E+02 -0.78444710097E+02  0.19255613922E+03  0.24957990358E+03  0.12509000000E+03 0.  0.
         25    1    4    4    0    0 -0.23838021750E+02  0.78402331793E+02  0.31580396446E+03  0.34942070486E+03  0.12509000000E+03 0.  0.
         25    1    4    4    0    0 -0.34567293762E+02  0.42378304752E-01  0.33431478563E+03  0.35862066809E+03  0.12509000000E+03 0.  0.
<mgrwt>
<rscale>  2 0.45490388E+03</rscale>
<asrwt>0</asrwt>
<pdfrwt beam="1">  1       21 0.13237471E+00 0.45490388E+03</pdfrwt>
<pdfrwt beam="2">  1       21 0.84519408E-02 0.45490388E+03</pdfrwt>
<totfact> 0.40864457E+04</totfact>
</mgrwt>
</event>
<event>
 7    0  0.4732500E-002  0.4513045E+03  0.7546771E-02  0.1027334E+00
         21   -1    0    0  502  501  0.00000000000E+00  0.00000000000E+00  0.10354047246E+03  0.10354047246E+03  0.00000000000E+00 0.  1.
         21   -1    0    0  501  502 -0.00000000000E+00 -0.00000000000E+00 -0.49177821242E+03  0.49177821242E+03  0.00000000000E+00 0.  1.
      99926    2    1    2    0    0  0.17763568394E-14 -0.71054273576E-14 -0.38823773996E+03  0.59531868487E+03  0.45130454665E+03 0.  0.
      99925    2    3    3    0    0 -0.11043349049E+02  0.50989051638E+02 -0.37231748645E+03  0.45885329909E+03  0.26306691245E+03 0.  0.
         25    1    4    4    0    0  0.21538386974E+02  0.16718483297E+02 -0.13235469639E+03  0.18414310618E+03  0.12509000000E+03 0.  0.
         25    1    4    4    0    0 -0.32581736023E+02  0.34270568341E+02 -0.23996279006E+03  0.27471019291E+03  0.12509000000E+03 0.  0.
         25    1    3    3    0    0  0.11043349049E+02 -0.50989051638E+02 -0.15920253511E+02  0.13646538578E+03  0.12509000000E+03 0.  0.
<mgrwt>
<rscale>  2 0.45130455E+03</rscale>
<asrwt>0</asrwt>
<pdfrwt beam="1">  1       21 0.15226540E-01 0.45130455E+03</pdfrwt>
<pdfrwt beam="2">  1       21 0.72320324E-01 0.45130455E+03</pdfrwt>
<totfact> 0.60721203E+04</totfact>
</mgrwt>
</event>
<event>
 7    0  0.4732500E-002  0.4550216E+03  0.7546771E-02  0.1026235E+00
         21   -1    0    0  502  501  0.00000000000E+00  0.00000000000E+00  0.19197576349E+03  0.19197576349E+03  0.00000000000E+00 0. -1.
         21   -1    0    0  501  502 -0.00000000000E+00 -0.00000000000E+00 -0.26962338263E+03  0.26962338263E+03  0.00000000000E+00 0. -1.
      99926    2    1    2    0    0  0.00000000000E+00  0.14210854715E-13 -0.77647619147E+02  0.46159914612E+03  0.45502155876E+03 0.  0.
      99925    2    3    3    0    0 -0.89569718794E+02 -0.66837894362E+02 -0.67110720105E+02  0.29352602813E+03  0.26298981310E+03 0.  0.
         25    1    3    3    0    0  0.89569718794E+02  0.66837894362E+02 -0.10536899042E+02  0.16807311798E+03  0.12509000000E+03 0.  0.
         25    1    4    4    0    0 -0.35622952011E+02 -0.18946650462E+02 -0.70371471776E+02  0.14908931019E+03  0.12509000000E+03 0.  0.
         25    1    4    4    0    0 -0.53946766782E+02 -0.47891243899E+02  0.32607516708E+01  0.14443671794E+03  0.12509000000E+03 0.  0.
<mgrwt>
<rscale>  2 0.45502156E+03</rscale>
<asrwt>0</asrwt>
<pdfrwt beam="1">  1       21 0.28231730E-01 0.45502156E+03</pdfrwt>
<pdfrwt beam="2">  1       21 0.39650497E-01 0.45502156E+03</pdfrwt>
<totfact> 0.68051622E+04</totfact>
</mgrwt>
</event>
<event>
 7    0  0.4732500E-002  0.4582285E+03  0.7546771E-02  0.1025296E+00
         21   -1    0    0  502  501  0.00000000000E+00  0.00000000000E+00  0.40251426094E+03  0.40251426094E+03  0.00000000000E+00 0.  1.
         21   -1    0    0  501  502 -0.00000000000E+00 -0.00000000000E+00 -0.13041358784E+03  0.13041358784E+03  0.00000000000E+00 0.  1.
      99926    2    1    2    0    0  0.00000000000E+00  0.00000000000E+00  0.27210067310E+03  0.53292784878E+03  0.45822845362E+03 0.  0.
      99925    2    3    3    0    0 -0.33725747552E+02 -0.10403103473E+03  0.21617702765E+03  0.35761428839E+03  0.26305054599E+03 0.  0.
         25    1    4    4    0    0 -0.40885565672E+02 -0.18396493068E+02  0.10814620871E+03  0.17132767142E+03  0.12509000000E+03 0.  0.
         25    1    4    4    0    0  0.71598181196E+01 -0.85634541664E+02  0.10803081894E+03  0.18628661697E+03  0.12509000000E+03 0.  0.
         25    1    3    3    0    0  0.33725747552E+02  0.10403103473E+03  0.55923645458E+02  0.17531356039E+03  0.12509000000E+03 0.  0.
<mgrwt>
<rscale>  2 0.45822845E+03</rscale>
<asrwt>0</asrwt>
<pdfrwt beam="1">  1       21 0.59193273E-01 0.45822845E+03</pdfrwt>
<pdfrwt beam="2">  1       21 0.19178469E-01 0.45822845E+03</pdfrwt>
<totfact> 0.61421977E+04</totfact>
</mgrwt>
</event>
<event>
 7    0  0.4732500E-002  0.4462306E+03  0.7546771E-02  0.1028852E+00
         21   -1    0    0  502  501  0.00000000000E+00  0.00000000000E+00  0.10370996500E+03  0.10370996500E+03  0.00000000000E+00 0.  1.
         21   -1    0    0  501  502 -0.00000000000E+00 -0.00000000000E+00 -0.47999656079E+03  0.47999656079E+03  0.00000000000E+00 0.  1.
      99926    2    1    2    0    0  0.71054273576E-14 -0.71054273576E-14 -0.37628659579E+03  0.58370652578E+03  0.44623055259E+03 0.  0.
      99925    2    3    3    0    0  0.52933641948E+02 -0.34884659810E+02 -0.12957420037E+03  0.29992241048E+03  0.26295449981E+03 0.  0.
         25    1    4    4    0    0  0.92287698184E+01  0.14184859504E+02 -0.39127789745E+02  0.13215472924E+03  0.12509000000E+03 0.  0.
         25    1    3    3    0    0 -0.52933641948E+02  0.34884659810E+02 -0.24671239543E+03  0.28378411530E+03  0.12509000000E+03 0.  0.
         25    1    4    4    0    0  0.43704872130E+02 -0.49069519314E+02 -0.90446410621E+02  0.16776768124E+03  0.12509000000E+03 0.  0.
<mgrwt>
<rscale>  2 0.44623055E+03</rscale>
<asrwt>0</asrwt>
<pdfrwt beam="1">  1       21 0.15251466E-01 0.44623055E+03</pdfrwt>
<pdfrwt beam="2">  1       21 0.70587729E-01 0.44623055E+03</pdfrwt>
<totfact> 0.64016037E+04</totfact>
</mgrwt>
</event>
<event>
 7    0  0.4732500E-002  0.4278360E+03  0.7546771E-02  0.1034546E+00
         21   -1    0    0  502  501  0.00000000000E+00  0.00000000000E+00  0.31935402360E+03  0.31935402360E+03  0.00000000000E+00 0.  1.
         21   -1    0    0  501  502 -0.00000000000E+00 -0.00000000000E+00 -0.14329208870E+03  0.14329208870E+03  0.00000000000E+00 0.  1.
      99926    2    1    2    0    0  0.71054273576E-14 -0.71054273576E-14  0.17606193490E+03  0.46264611230E+03  0.42783597360E+03 0.  0.
      99925    2    3    3    0    0 -0.40619619669E+02  0.62188282402E+02  0.15897144629E+03  0.31616427428E+03  0.26300302588E+03 0.  0.
         25    1    4    4    0    0 -0.53372642294E+02  0.34885699385E+02  0.55202169814E+02  0.15086563101E+03  0.12509000000E+03 0.  0.
         25    1    4    4    0    0  0.12753022625E+02  0.27302583017E+02  0.10376927648E+03  0.16529864327E+03  0.12509000000E+03 0.  0.
         25    1    3    3    0    0  0.40619619669E+02 -0.62188282402E+02  0.17090488609E+02  0.14648183802E+03  0.12509000000E+03 0.  0.
<mgrwt>
<rscale>  2 0.42783597E+03</rscale>
<asrwt>0</asrwt>
<pdfrwt beam="1">  1       21 0.46963827E-01 0.42783597E+03</pdfrwt>
<pdfrwt beam="2">  1       21 0.21072366E-01 0.42783597E+03</pdfrwt>
<totfact> 0.84857492E+04</totfact>
</mgrwt>
</event>
<event>
 7    0  0.4732500E-002  0.4504376E+03  0.7546771E-02  0.1027592E+00
         21   -1    0    0  502  501  0.00000000000E+00  0.00000000000E+00  0.12589528576E+03  0.12589528576E+03  0.00000000000E+00 0. -1.
         21   -1    0    0  501  502 -0.00000000000E+00 -0.00000000000E+00 -0.40290230791E+03  0.40290230791E+03  0.00000000000E+00 0. -1.
      99926    2    1    2    0    0  0.00000000000E+00  0.00000000000E+00 -0.27700702215E+03  0.52879759367E+03  0.45043757032E+03 0.  0.
      99925    2    3    3    0    0  0.37283507168E+02  0.99736217934E+02 -0.19663985530E+03  0.34592123467E+03  0.26392592678E+03 0.  0.
         25    1    3    3    0    0 -0.37283507168E+02 -0.99736217934E+02 -0.80367166847E+02  0.18287635900E+03  0.12509000000E+03 0.  0.
         25    1    4    4    0    0  0.25626341046E+01  0.81757459421E+02 -0.75478023935E+02  0.16743741954E+03  0.12509000000E+03 0.  0.
         25    1    4    4    0    0  0.34720873064E+02  0.17978758513E+02 -0.12116183136E+03  0.17848381513E+03  0.12509000000E+03 0.  0.
<mgrwt>
<rscale>  2 0.45043757E+03</rscale>
<asrwt>0</asrwt>
<pdfrwt beam="1">  1       21 0.18514012E-01 0.45043757E+03</pdfrwt>
<pdfrwt beam="2">  1       21 0.59250341E-01 0.45043757E+03</pdfrwt>
<totfact> 0.65628046E+04</totfact>
</mgrwt>
</event>
<event>
 7    0  0.4732500E-002  0.4506662E+03  0.7546771E-02  0.1027524E+00
         21   -1    0    0  502  501  0.00000000000E+00  0.00000000000E+00  0.59104232151E+03  0.59104232151E+03  0.00000000000E+00 0.  1.
         21   -1    0    0  501  502 -0.00000000000E+00 -0.00000000000E+00 -0.85907570923E+02  0.85907570923E+02  0.00000000000E+00 0.  1.
      99926    2    1    2    0    0  0.00000000000E+00  0.14210854715E-13  0.50513475059E+03  0.67694989243E+03  0.45066621863E+03 0.  0.
      99925    2    3    3    0    0  0.48825398523E+02  0.93050483250E+02  0.36360161836E+03  0.46079844647E+03  0.26284360259E+03 0.  0.
         25    1    4    4    0    0  0.31767297538E+02  0.88936530573E+02  0.19865520153E+03  0.25304202193E+03  0.12509000000E+03 0.  0.
         25    1    3    3    0    0 -0.48825398523E+02 -0.93050483250E+02  0.14153313223E+03  0.21615144597E+03  0.12509000000E+03 0.  0.
         25    1    4    4    0    0  0.17058100986E+02  0.41139526766E+01  0.16494641682E+03  0.20775642454E+03  0.12509000000E+03 0.  0.
<mgrwt>
<rscale>  2 0.45066622E+03</rscale>
<asrwt>0</asrwt>
<pdfrwt beam="1">  1       21 0.86917986E-01 0.45066622E+03</pdfrwt>
<pdfrwt beam="2">  1       21 0.12633467E-01 0.45066622E+03</pdfrwt>
<totfact> 0.56061851E+04</totfact>
</mgrwt>
</event>
<event>
 7    0  0.4732500E-002  0.4595197E+03  0.7546771E-02  0.1024921E+00
         21   -1    0    0  502  501  0.00000000000E+00  0.00000000000E+00  0.12780686869E+03  0.12780686869E+03  0.00000000000E+00 0.  1.
         21   -1    0    0  501  502 -0.00000000000E+00 -0.00000000000E+00 -0.41304185960E+03  0.41304185960E+03  0.00000000000E+00 0.  1.
      99926    2    1    2    0    0  0.00000000000E+00  0.14210854715E-13 -0.28523499091E+03  0.54084872829E+03  0.45951969148E+03 0.  0.
      99925    2    3    3    0    0 -0.42974498207E+02 -0.90863443039E+02 -0.10864850786E+03  0.30224179865E+03  0.26351970290E+03 0.  0.
         25    1    3    3    0    0  0.42974498207E+02  0.90863443039E+02 -0.17658648304E+03  0.23860692964E+03  0.12509000000E+03 0.  0.
         25    1    4    4    0    0 -0.52575101715E+02 -0.55636197923E+02 -0.28922184444E+02  0.14947751902E+03  0.12509000000E+03 0.  0.
         25    1    4    4    0    0  0.96006035077E+01 -0.35227245117E+02 -0.79726323417E+02  0.15276427963E+03  0.12509000000E+03 0.  0.
<mgrwt>
<rscale>  2 0.45951969E+03</rscale>
<asrwt>0</asrwt>
<pdfrwt beam="1">  1       21 0.18795128E-01 0.45951969E+03</pdfrwt>
<pdfrwt beam="2">  1       21 0.60741450E-01 0.45951969E+03</pdfrwt>
<totfact> 0.60289473E+04</totfact>
</mgrwt>
</event>
<event>
 7    0  0.4732500E-002  0.4500969E+03  0.7546771E-02  0.1027693E+00
         21   -1    0    0  502  501  0.00000000000E+00  0.00000000000E+00  0.32841360371E+03  0.32841360371E+03  0.00000000000E+00 0.  1.
         21   -1    0    0  501  502 -0.00000000000E+00 -0.00000000000E+00 -0.15421653919E+03  0.15421653919E+03  0.00000000000E+00 0.  1.
      99926    2    1    2    0    0  0.00000000000E+00 -0.88817841970E-15  0.17419706452E+03  0.48263014290E+03  0.45009692017E+03 0.  0.
      99925    2    3    3    0    0  0.10208488138E+03  0.29934766900E+01  0.70510086471E+02  0.29072187985E+03  0.26290160749E+03 0.  0.
         25    1    3    3    0    0 -0.10208488138E+03 -0.29934766900E+01  0.10368697805E+03  0.19190826305E+03  0.12509000000E+03 0.  0.
         25    1    4    4    0    0  0.38634779794E+02  0.31142171699E+02  0.59803411069E+02  0.14726315610E+03  0.12509000000E+03 0.  0.
         25    1    4    4    0    0  0.63450101588E+02 -0.28148695010E+02  0.10706675403E+02  0.14345872375E+03  0.12509000000E+03 0.  0.
<mgrwt>
<rscale>  2 0.45009692E+03</rscale>
<asrwt>0</asrwt>
<pdfrwt beam="1">  1       21 0.48296118E-01 0.45009692E+03</pdfrwt>
<pdfrwt beam="2">  1       21 0.22678903E-01 0.45009692E+03</pdfrwt>
<totfact> 0.69162165E+04</totfact>
</mgrwt>
</event>
<event>
 7    0  0.4732500E-002  0.4550538E+03  0.7546771E-02  0.1026226E+00
         21   -1    0    0  502  501  0.00000000000E+00  0.00000000000E+00  0.18229554833E+02  0.18229554833E+02  0.00000000000E+00 0. -1.
         21   -1    0    0  501  502 -0.00000000000E+00 -0.00000000000E+00 -0.28398114345E+04  0.28398114345E+04  0.00000000000E+00 0. -1.
      99926    2    1    2    0    0  0.35527136788E-14  0.00000000000E+00 -0.28215818797E+04  0.28580409894E+04  0.45505383532E+03 0.  0.
      99925    2    3    3    0    0  0.64636432737E+01  0.32684179267E+02 -0.24550707910E+04  0.24693406928E+04  0.26298447554E+03 0.  0.
         25    1    3    3    0    0 -0.64636432737E+01 -0.32684179267E+02 -0.36651108875E+03  0.38870029655E+03  0.12509000000E+03 0.  0.
         25    1    4    4    0    0 -0.25817444108E+02  0.42564736801E+02 -0.11499064037E+04  0.11577610041E+04  0.12509000000E+03 0.  0.
         25    1    4    4    0    0  0.32281087382E+02 -0.98805575344E+01 -0.13051643873E+04  0.13115796887E+04  0.12509000000E+03 0.  0.
<mgrwt>
<rscale>  2 0.45505384E+03</rscale>
<asrwt>0</asrwt>
<pdfrwt beam="1">  1       21 0.26808178E-02 0.45505384E+03</pdfrwt>
<pdfrwt beam="2">  1       21 0.41761919E+00 0.45505384E+03</pdfrwt>
<totfact> 0.41166642E+03</totfact>
</mgrwt>
</event>
<event>
 7    0  0.4732500E-002  0.4526296E+03  0.7546771E-02  0.1026941E+00
         21   -1    0    0  502  501  0.00000000000E+00  0.00000000000E+00  0.27829465290E+03  0.27829465290E+03  0.00000000000E+00 0. -1.
         21   -1    0    0  501  502 -0.00000000000E+00 -0.00000000000E+00 -0.18404377964E+03  0.18404377964E+03  0.00000000000E+00 0. -1.
      99926    2    1    2    0    0 -0.35527136788E-14  0.71054273576E-14  0.94250873260E+02  0.46233843253E+03  0.45262964893E+03 0.  0.
      99925    2    3    3    0    0 -0.21376728922E+02  0.48737646934E+02 -0.39950371842E+02  0.27131538404E+03  0.26302791228E+03 0.  0.
         25    1    4    4    0    0 -0.11148176123E+01  0.63649162316E+02 -0.28381125112E+02  0.14319725921E+03  0.12509000000E+03 0.  0.
         25    1    4    4    0    0 -0.20261911310E+02 -0.14911515383E+02 -0.11569246730E+02  0.12811812483E+03  0.12509000000E+03 0.  0.
         25    1    3    3    0    0  0.21376728922E+02 -0.48737646934E+02  0.13420124510E+03  0.19102304849E+03  0.12509000000E+03 0.  0.
<mgrwt>
<rscale>  2 0.45262965E+03</rscale>
<asrwt>0</asrwt>
<pdfrwt beam="1">  1       21 0.40925684E-01 0.45262965E+03</pdfrwt>
<pdfrwt beam="2">  1       21 0.27065262E-01 0.45262965E+03</pdfrwt>
<totfact> 0.69304471E+04</totfact>
</mgrwt>
</event>
<event>
 7    0  0.4732500E-002  0.4199710E+03  0.7546771E-02  0.1037076E+00
         21   -1    0    0  502  501  0.00000000000E+00  0.00000000000E+00  0.48331648446E+03  0.48331648446E+03  0.00000000000E+00 0. -1.
         21   -1    0    0  501  502 -0.00000000000E+00 -0.00000000000E+00 -0.91231948691E+02  0.91231948691E+02  0.00000000000E+00 0. -1.
      99926    2    1    2    0    0  0.00000000000E+00  0.00000000000E+00  0.39208453577E+03  0.57454843315E+03  0.41997097381E+03 0.  0.
      99925    2    3    3    0    0 -0.94931126645E+01 -0.74810043185E+02  0.24508568059E+03  0.36732190668E+03  0.26300519110E+03 0.  0.
         25    1    4    4    0    0 -0.14669179830E+02 -0.28344036480E+01  0.86389596265E+02  0.15275434241E+03  0.12509000000E+03 0.  0.
         25    1    3    3    0    0  0.94931126645E+01  0.74810043185E+02  0.14699885518E+03  0.20722652647E+03  0.12509000000E+03 0.  0.
         25    1    4    4    0    0  0.51760671651E+01 -0.71975639537E+02  0.15869608433E+03  0.21456756427E+03  0.12509000000E+03 0.  0.
<mgrwt>
<rscale>  2 0.41997097E+03</rscale>
<asrwt>0</asrwt>
<pdfrwt beam="1">  1       21 0.71075953E-01 0.41997097E+03</pdfrwt>
<pdfrwt beam="2">  1       21 0.13416463E-01 0.41997097E+03</pdfrwt>
<totfact> 0.80308219E+04</totfact>
</mgrwt>
</event>
<event>
 7    0  0.4732500E-002  0.4526911E+03  0.7546771E-02  0.1026923E+00
         21   -1    0    0  502  501  0.00000000000E+00  0.00000000000E+00  0.66758464800E+02  0.66758464800E+02  0.00000000000E+00 0.  1.
         21   -1    0    0  501  502 -0.00000000000E+00 -0.00000000000E+00 -0.76742787338E+03  0.76742787338E+03  0.00000000000E+00 0.  1.
      99926    2    1    2    0    0  0.00000000000E+00  0.00000000000E+00 -0.70066940858E+03  0.83418633818E+03  0.45269109411E+03 0.  0.
      99925    2    3    3    0    0 -0.10780341510E+03  0.55858989079E+01 -0.49099771099E+03  0.56723595432E+03  0.26272627791E+03 0.  0.
         25    1    3    3    0    0  0.10780341510E+03 -0.55858989079E+01 -0.20967169759E+03  0.26695038386E+03  0.12509000000E+03 0.  0.
         25    1    4    4    0    0 -0.18874596428E+02 -0.21018401832E+02 -0.22584542955E+03  0.25971463138E+03  0.12509000000E+03 0.  0.
         25    1    4    4    0    0 -0.88928818670E+02  0.26604300740E+02 -0.26515228144E+03  0.30752132294E+03  0.12509000000E+03 0.  0.
<mgrwt>
<rscale>  2 0.45269109E+03</rscale>
<asrwt>0</asrwt>
<pdfrwt beam="1">  1       21 0.98174217E-02 0.45269109E+03</pdfrwt>
<pdfrwt beam="2">  1       21 0.11285704E+00 0.45269109E+03</pdfrwt>
<totfact> 0.47000938E+04</totfact>
</mgrwt>
</event>
<event>
 7    0  0.4732500E-002  0.4502368E+03  0.7546771E-02  0.1027651E+00
         21   -1    0    0  502  501  0.00000000000E+00  0.00000000000E+00  0.13644194250E+03  0.13644194250E+03  0.00000000000E+00 0. -1.
         21   -1    0    0  501  502 -0.00000000000E+00 -0.00000000000E+00 -0.37142751682E+03  0.37142751682E+03  0.00000000000E+00 0. -1.
      99926    2    1    2    0    0  0.71054273576E-14  0.00000000000E+00 -0.23498557432E+03  0.50786945932E+03  0.45023679056E+03 0.  0.
      99925    2    3    3    0    0  0.54350574775E+02 -0.48515476749E+02 -0.23938675908E+03  0.36304330495E+03  0.26303361836E+03 0.  0.
         25    1    4    4    0    0  0.10131449312E+02 -0.55038593688E+02 -0.94401339838E+02  0.16640617213E+03  0.12509000000E+03 0.  0.
         25    1    3    3    0    0 -0.54350574775E+02  0.48515476749E+02  0.44011847516E+01  0.14482615437E+03  0.12509000000E+03 0.  0.
         25    1    4    4    0    0  0.44219125464E+02  0.65231169389E+01 -0.14498541924E+03  0.19663713282E+03  0.12509000000E+03 0.  0.
<mgrwt>
<rscale>  2 0.45023679E+03</rscale>
<asrwt>0</asrwt>
<pdfrwt beam="1">  1       21 0.20064992E-01 0.45023679E+03</pdfrwt>
<pdfrwt beam="2">  1       21 0.54621692E-01 0.45023679E+03</pdfrwt>
<totfact> 0.67226828E+04</totfact>
</mgrwt>
</event>
<event>
 7    0  0.4732500E-002  0.4591300E+03  0.7546771E-02  0.1025034E+00
         21   -1    0    0  502  501  0.00000000000E+00  0.00000000000E+00  0.37239399555E+02  0.37239399555E+02  0.00000000000E+00 0. -1.
         21   -1    0    0  501  502 -0.00000000000E+00 -0.00000000000E+00 -0.14151701987E+04  0.14151701987E+04  0.00000000000E+00 0. -1.
      99926    2    1    2    0    0  0.00000000000E+00  0.00000000000E+00 -0.13779307991E+04  0.14524095982E+04  0.45912999670E+03 0.  0.
      99925    2    3    3    0    0 -0.11104228260E+03 -0.36853216010E+02 -0.86551396227E+03  0.91212534819E+03  0.26300130013E+03 0.  0.
         25    1    4    4    0    0 -0.61273737142E+02  0.71036652733E+01 -0.52783887246E+03  0.54595450022E+03  0.12509000000E+03 0.  0.
         25    1    4    4    0    0 -0.49768545455E+02 -0.43956881283E+02 -0.33767508981E+03  0.36617084797E+03  0.12509000000E+03 0.  0.
         25    1    3    3    0    0  0.11104228260E+03  0.36853216010E+02 -0.51241683685E+03  0.54028425004E+03  0.12509000000E+03 0.  0.
<mgrwt>
<rscale>  2 0.45913000E+03</rscale>
<asrwt>0</asrwt>
<pdfrwt beam="1">  1       21 0.54763815E-02 0.45913000E+03</pdfrwt>
<pdfrwt beam="2">  1       21 0.20811330E+00 0.45913000E+03</pdfrwt>
<totfact> 0.24182858E+04</totfact>
</mgrwt>
</event>
<event>
 7    0  0.4732500E-002  0.4558746E+03  0.7546771E-02  0.1025985E+00
         21   -1    0    0  502  501  0.00000000000E+00  0.00000000000E+00  0.80142083685E+03  0.80142083685E+03  0.00000000000E+00 0. -1.
         21   -1    0    0  501  502 -0.00000000000E+00 -0.00000000000E+00 -0.64829136399E+02  0.64829136399E+02  0.00000000000E+00 0. -1.
      99926    2    1    2    0    0  0.00000000000E+00  0.00000000000E+00  0.73659170046E+03  0.86624997325E+03  0.45587463516E+03 0.  0.
      99925    2    3    3    0    0  0.21185320075E+02  0.10916375553E+03  0.51091399416E+03  0.58528115198E+03  0.26297409402E+03 0.  0.
         25    1    4    4    0    0  0.16746457966E+02  0.88652761167E+02  0.33080798880E+03  0.36499478006E+03  0.12509000000E+03 0.  0.
         25    1    3    3    0    0 -0.21185320075E+02 -0.10916375553E+03  0.22567770630E+03  0.28096882128E+03  0.12509000000E+03 0.  0.
         25    1    4    4    0    0  0.44388621085E+01  0.20510994368E+02  0.18010600536E+03  0.22028637192E+03  0.12509000000E+03 0.  0.
<mgrwt>
<rscale>  2 0.45587464E+03</rscale>
<asrwt>0</asrwt>
<pdfrwt beam="1">  1       21 0.11785600E+00 0.45587464E+03</pdfrwt>
<pdfrwt beam="2">  1       21 0.95336970E-02 0.45587464E+03</pdfrwt>
<totfact> 0.44415422E+04</totfact>
</mgrwt>
</event>
<event>
 7    0  0.4732500E-002  0.4550254E+03  0.7546771E-02  0.1026234E+00
         21   -1    0    0  502  501  0.00000000000E+00  0.00000000000E+00  0.59249183822E+03  0.59249183822E+03  0.00000000000E+00 0.  1.
         21   -1    0    0  501  502 -0.00000000000E+00 -0.00000000000E+00 -0.87363272989E+02  0.87363272989E+02  0.00000000000E+00 0.  1.
      99926    2    1    2    0    0  0.00000000000E+00  0.71054273576E-14  0.50512856523E+03  0.67985511121E+03  0.45502538921E+03 0.  0.
      99925    2    3    3    0    0  0.56219930778E+02 -0.36146580082E+02  0.18117128875E+03  0.32621252193E+03  0.26291503899E+03 0.  0.
         25    1    4    4    0    0  0.17177012889E+02 -0.44157565108E+02  0.12614406047E+03  0.18386074192E+03  0.12509000000E+03 0.  0.
         25    1    3    3    0    0 -0.56219930778E+02  0.36146580082E+02  0.32395727648E+03  0.35364258928E+03  0.12509000000E+03 0.  0.
         25    1    4    4    0    0  0.39042917889E+02  0.80109850267E+01  0.55027228278E+02  0.14235178000E+03  0.12509000000E+03 0.  0.
<mgrwt>
<rscale>  2 0.45502539E+03</rscale>
<asrwt>0</asrwt>
<pdfrwt beam="1">  1       21 0.87131151E-01 0.45502539E+03</pdfrwt>
<pdfrwt beam="2">  1       21 0.12847540E-01 0.45502539E+03</pdfrwt>
<totfact> 0.54000034E+04</totfact>
</mgrwt>
</event>
<event>
 7    0  0.4732500E-002  0.4601869E+03  0.7546771E-02  0.1024727E+00
         21   -1    0    0  502  501  0.00000000000E+00  0.00000000000E+00  0.20055505591E+03  0.20055505591E+03  0.00000000000E+00 0. -1.
         21   -1    0    0  501  502 -0.00000000000E+00 -0.00000000000E+00 -0.26398237327E+03  0.26398237327E+03  0.00000000000E+00 0. -1.
      99926    2    1    2    0    0  0.17763568394E-14  0.00000000000E+00 -0.63427317356E+02  0.46453742917E+03  0.46018691693E+03 0.  0.
      99925    2    3    3    0    0  0.90429163350E+01 -0.11457906953E+03 -0.12871182601E+02  0.28729869647E+03  0.26299189368E+03 0.  0.
         25    1    4    4    0    0  0.33252397800E+02 -0.86347771578E+02 -0.18419358324E+02  0.15667941944E+03  0.12509000000E+03 0.  0.
         25    1    3    3    0    0 -0.90429163350E+01  0.11457906953E+03 -0.50556134755E+02  0.17723873271E+03  0.12509000000E+03 0.  0.
         25    1    4    4    0    0 -0.24209481465E+02 -0.28231297951E+02  0.55481757223E+01  0.13061927703E+03  0.12509000000E+03 0.  0.
<mgrwt>
<rscale>  2 0.46018692E+03</rscale>
<asrwt>0</asrwt>
<pdfrwt beam="1">  1       21 0.29493391E-01 0.46018692E+03</pdfrwt>
<pdfrwt beam="2">  1       21 0.38820937E-01 0.46018692E+03</pdfrwt>
<totfact> 0.65115699E+04</totfact>
</mgrwt>
</event>
<event>
 7    0  0.4732500E-002  0.4619717E+03  0.7546771E-02  0.1024211E+00
         21   -1    0    0  502  501  0.00000000000E+00  0.00000000000E+00  0.64685430511E+03  0.64685430511E+03  0.00000000000E+00 0.  1.
         21   -1    0    0  501  502 -0.00000000000E+00 -0.00000000000E+00 -0.82482967418E+02  0.82482967418E+02  0.00000000000E+00 0.  1.
      99926    2    1    2    0    0  0.00000000000E+00  0.71054273576E-14  0.56437133770E+03  0.72933727253E+03  0.46197169858E+03 0.  0.
      99925    2    3    3    0    0  0.91234760698E+02 -0.59746661853E+02  0.27355946604E+03  0.39450522813E+03  0.26249980648E+03 0.  0.
         25    1    4    4    0    0  0.50462914588E+02 -0.37289326910E+02  0.85841352011E+02  0.16417443609E+03  0.12509000000E+03 0.  0.
         25    1    3    3    0    0 -0.91234760698E+02  0.59746661853E+02  0.29081187165E+03  0.33483204440E+03  0.12509000000E+03 0.  0.
         25    1    4    4    0    0  0.40771846110E+02 -0.22457334943E+02  0.18771811403E+03  0.23033079204E+03  0.12509000000E+03 0.  0.
<mgrwt>
<rscale>  2 0.46197170E+03</rscale>
<asrwt>0</asrwt>
<pdfrwt beam="1">  1       21 0.95125631E-01 0.46197170E+03</pdfrwt>
<pdfrwt beam="2">  1       21 0.12129848E-01 0.46197170E+03</pdfrwt>
<totfact> 0.48618177E+04</totfact>
</mgrwt>
</event>
<event>
 7    0  0.4732500E-002  0.4558554E+03  0.7546771E-02  0.1025990E+00
         21   -1    0    0  502  501  0.00000000000E+00  0.00000000000E+00  0.33814747823E+02  0.33814747823E+02  0.00000000000E+00 0.  1.
         21   -1    0    0  501  502 -0.00000000000E+00 -0.00000000000E+00 -0.15363428477E+04  0.15363428477E+04  0.00000000000E+00 0.  1.
      99926    2    1    2    0    0  0.00000000000E+00  0.00000000000E+00 -0.15025280999E+04  0.15701575955E+04  0.45585544184E+03 0.  0.
      99925    2    3    3    0    0  0.46672123655E+02  0.21244095353E+02 -0.12956719792E+04  0.13230411018E+04  0.26275897819E+03 0.  0.
         25    1    4    4    0    0  0.61981494108E+02  0.12077597489E+02 -0.74437292317E+03  0.75744711421E+03  0.12509000000E+03 0.  0.
         25    1    3    3    0    0 -0.46672123655E+02 -0.21244095353E+02 -0.20685612067E+03  0.24711649373E+03  0.12509000000E+03 0.  0.
         25    1    4    4    0    0 -0.15309370454E+02  0.91664978641E+01 -0.55129905604E+03  0.56559398759E+03  0.12509000000E+03 0.  0.
<mgrwt>
<rscale>  2 0.45585544E+03</rscale>
<asrwt>0</asrwt>
<pdfrwt beam="1">  1       21 0.49727569E-02 0.45585544E+03</pdfrwt>
<pdfrwt beam="2">  1       21 0.22593278E+00 0.45585544E+03</pdfrwt>
<totfact> 0.21964591E+04</totfact>
</mgrwt>
</event>
<event>
 7    0  0.4732500E-002  0.4411866E+03  0.7546771E-02  0.1030383E+00
         21   -1    0    0  502  501  0.00000000000E+00  0.00000000000E+00  0.10323862015E+03  0.10323862015E+03  0.00000000000E+00 0. -1.
         21   -1    0    0  501  502 -0.00000000000E+00 -0.00000000000E+00 -0.47134876636E+03  0.47134876636E+03  0.00000000000E+00 0. -1.
      99926    2    1    2    0    0  0.00000000000E+00 -0.88817841970E-15 -0.36811014621E+03  0.57458738651E+03  0.44118656484E+03 0.  0.
      99925    2    3    3    0    0 -0.59264908037E+02  0.57936890349E+01 -0.33869364160E+03  0.43295852293E+03  0.26304715082E+03 0.  0.
         25    1    4    4    0    0 -0.22520363792E+02 -0.66455223854E+01 -0.22955748760E+03  0.26247948104E+03  0.12509000000E+03 0.  0.
         25    1    3    3    0    0  0.59264908037E+02 -0.57936890349E+01 -0.29416504605E+02  0.14162886359E+03  0.12509000000E+03 0.  0.
         25    1    4    4    0    0 -0.36744544245E+02  0.12439211420E+02 -0.10913615400E+03  0.17047904189E+03  0.12509000000E+03 0.  0.
<mgrwt>
<rscale>  2 0.44118656E+03</rscale>
<asrwt>0</asrwt>
<pdfrwt beam="1">  1       21 0.15182150E-01 0.44118656E+03</pdfrwt>
<pdfrwt beam="2">  1       21 0.69315997E-01 0.44118656E+03</pdfrwt>
<totfact> 0.67327905E+04</totfact>
</mgrwt>
</event>
<event>
 7    0  0.4732500E-002  0.4535312E+03  0.7546771E-02  0.1026674E+00
         21   -1    0    0  502  501  0.00000000000E+00  0.00000000000E+00  0.21426552704E+02  0.21426552704E+02  0.00000000000E+00 0. -1.
         21   -1    0    0  501  502 -0.00000000000E+00 -0.00000000000E+00 -0.23999490619E+04  0.23999490619E+04  0.00000000000E+00 0. -1.
      99926    2    1    2    0    0  0.66613381478E-15 -0.14210854715E-13 -0.23785225092E+04  0.24213756146E+04  0.45353118994E+03 0.  0.
      99925    2    3    3    0    0  0.18072005598E+01  0.90907958626E+02 -0.11492286786E+04  0.11823928250E+04  0.26279024708E+03 0.  0.
         25    1    4    4    0    0  0.23754724690E+02  0.10493471443E+02 -0.52749740000E+03  0.54274802164E+03  0.12509000000E+03 0.  0.
         25    1    4    4    0    0 -0.21947524130E+02  0.80414487183E+02 -0.62173127861E+03  0.63964480336E+03  0.12509000000E+03 0.  0.
         25    1    3    3    0    0 -0.18072005598E+01 -0.90907958626E+02 -0.12292938306E+04  0.12389827896E+04  0.12509000000E+03 0.  0.
<mgrwt>
<rscale>  2 0.45353119E+03</rscale>
<asrwt>0</asrwt>
<pdfrwt beam="1">  1       21 0.31509635E-02 0.45353119E+03</pdfrwt>
<pdfrwt beam="2">  1       21 0.35293370E+00 0.45353119E+03</pdfrwt>
<totfact> 0.80616625E+03</totfact>
</mgrwt>
</event>
<event>
 7    0  0.4732500E-002  0.4603024E+03  0.7546771E-02  0.1024694E+00
         21   -1    0    0  502  501  0.00000000000E+00  0.00000000000E+00  0.71124316995E+02  0.71124316995E+02  0.00000000000E+00 0.  1.
         21   -1    0    0  501  502 -0.00000000000E+00 -0.00000000000E+00 -0.74474632381E+03  0.74474632381E+03  0.00000000000E+00 0.  1.
      99926    2    1    2    0    0  0.00000000000E+00  0.00000000000E+00 -0.67362200682E+03  0.81587064081E+03  0.46030239459E+03 0.  0.
      99925    2    3    3    0    0  0.81106051533E+01  0.11763855009E+03 -0.42011323222E+03  0.50957206542E+03  0.26318045442E+03 0.  0.
         25    1    4    4    0    0 -0.14994623251E+02  0.98092123046E+02 -0.22956042709E+03  0.27962904197E+03  0.12509000000E+03 0.  0.
         25    1    3    3    0    0 -0.81106051533E+01 -0.11763855009E+03 -0.25350877460E+03  0.30629857539E+03  0.12509000000E+03 0.  0.
         25    1    4    4    0    0  0.23105228404E+02  0.19546427049E+02 -0.19055280513E+03  0.22994302345E+03  0.12509000000E+03 0.  0.
<mgrwt>
<rscale>  2 0.46030239E+03</rscale>
<asrwt>0</asrwt>
<pdfrwt beam="1">  1       21 0.10459459E-01 0.46030239E+03</pdfrwt>
<pdfrwt beam="2">  1       21 0.10952151E+00 0.46030239E+03</pdfrwt>
<totfact> 0.45100724E+04</totfact>
</mgrwt>
</event>
<event>
 7    0  0.4732500E-002  0.4438130E+03  0.7546771E-02  0.1029583E+00
         21   -1    0    0  502  501  0.00000000000E+00  0.00000000000E+00  0.13403173847E+03  0.13403173847E+03  0.00000000000E+00 0. -1.
         21   -1    0    0  501  502 -0.00000000000E+00 -0.00000000000E+00 -0.36739422023E+03  0.36739422023E+03  0.00000000000E+00 0. -1.
      99926    2    1    2    0    0  0.00000000000E+00 -0.35527136788E-14 -0.23336248177E+03  0.50142595870E+03  0.44381296079E+03 0.  0.
      99925    2    3    3    0    0 -0.56493622275E+02 -0.17659228781E+02 -0.54502280068E+02  0.27528030305E+03  0.26325912899E+03 0.  0.
         25    1    3    3    0    0  0.56493622275E+02  0.17659228781E+02 -0.17886020170E+03  0.22614565565E+03  0.12509000000E+03 0.  0.
         25    1    4    4    0    0 -0.41932183004E+02 -0.21698719173E+02 -0.65340776282E+02  0.14881554868E+03  0.12509000000E+03 0.  0.
         25    1    4    4    0    0 -0.14561439271E+02  0.40394903924E+01  0.10838496214E+02  0.12646475436E+03  0.12509000000E+03 0.  0.
<mgrwt>
<rscale>  2 0.44381296E+03</rscale>
<asrwt>0</asrwt>
<pdfrwt beam="1">  1       21 0.19710550E-01 0.44381296E+03</pdfrwt>
<pdfrwt beam="2">  1       21 0.54028562E-01 0.44381296E+03</pdfrwt>
<totfact> 0.71293419E+04</totfact>
</mgrwt>
</event>
<event>
 7    0  0.4732500E-002  0.4765644E+03  0.7546771E-02  0.1020084E+00
         21   -1    0    0  502  501  0.00000000000E+00  0.00000000000E+00  0.95008377597E+03  0.95008377597E+03  0.00000000000E+00 0. -1.
         21   -1    0    0  501  502 -0.00000000000E+00 -0.00000000000E+00 -0.59761477506E+02  0.59761477506E+02  0.00000000000E+00 0. -1.
      99926    2    1    2    0    0  0.35527136788E-14  0.00000000000E+00  0.89032229846E+03  0.10098452535E+04  0.47656441414E+03 0.  0.
      99925    2    3    3    0    0 -0.24879838191E+02  0.11111423520E+03  0.40588805703E+03  0.49672789654E+03  0.26273200937E+03 0.  0.
         25    1    4    4    0    0  0.94960263030E+01  0.31963563061E+02  0.23296507008E+03  0.26651843436E+03  0.12509000000E+03 0.  0.
         25    1    4    4    0    0 -0.34375864494E+02  0.79150672143E+02  0.17292298696E+03  0.23020946218E+03  0.12509000000E+03 0.  0.
         25    1    3    3    0    0  0.24879838191E+02 -0.11111423520E+03  0.48443424143E+03  0.51311735693E+03  0.12509000000E+03 0.  0.
<mgrwt>
<rscale>  2 0.47656441E+03</rscale>
<asrwt>0</asrwt>
<pdfrwt beam="1">  1       21 0.13971819E+00 0.47656441E+03</pdfrwt>
<pdfrwt beam="2">  1       21 0.87884532E-02 0.47656441E+03</pdfrwt>
<totfact> 0.32888536E+04</totfact>
</mgrwt>
</event>
<event>
 7    0  0.4732500E-002  0.5075812E+03  0.7546771E-02  0.1011819E+00
         21   -1    0    0  502  501  0.00000000000E+00  0.00000000000E+00  0.12635031297E+03  0.12635031297E+03  0.00000000000E+00 0. -1.
         21   -1    0    0  501  502 -0.00000000000E+00 -0.00000000000E+00 -0.50977047856E+03  0.50977047856E+03  0.00000000000E+00 0. -1.
      99926    2    1    2    0    0  0.00000000000E+00  0.00000000000E+00 -0.38342016559E+03  0.63612079154E+03  0.50758116400E+03 0.  0.
      99925    2    3    3    0    0 -0.40238942988E+02 -0.10246283341E+03 -0.90466541086E+02  0.29909388019E+03  0.26297366664E+03 0.  0.
         25    1    4    4    0    0 -0.95284094664E+01 -0.13121664815E+02 -0.58811358986E+02  0.13917346270E+03  0.12509000000E+03 0.  0.
         25    1    4    4    0    0 -0.30710533522E+02 -0.89341168595E+02 -0.31655182101E+02  0.15992041749E+03  0.12509000000E+03 0.  0.
         25    1    3    3    0    0  0.40238942988E+02  0.10246283341E+03 -0.29295362450E+03  0.33702691135E+03  0.12509000000E+03 0.  0.
<mgrwt>
<rscale>  2 0.50758116E+03</rscale>
<asrwt>0</asrwt>
<pdfrwt beam="1">  1       21 0.18580928E-01 0.50758116E+03</pdfrwt>
<pdfrwt beam="2">  1       21 0.74966248E-01 0.50758116E+03</pdfrwt>
<totfact> 0.38068027E+04</totfact>
</mgrwt>
</event>
<event>
 7    0  0.4732500E-002  0.4611989E+03  0.7546771E-02  0.1024434E+00
         21   -1    0    0  502  501  0.00000000000E+00  0.00000000000E+00  0.11749292507E+04  0.11749292507E+04  0.00000000000E+00 0. -1.
         21   -1    0    0  501  502 -0.00000000000E+00 -0.00000000000E+00 -0.45258988382E+02  0.45258988382E+02  0.00000000000E+00 0. -1.
      99926    2    1    2    0    0  0.35527136788E-14  0.00000000000E+00  0.11296702623E+04  0.12201882391E+04  0.46119891287E+03 0.  0.
      99925    2    3    3    0    0 -0.19009901298E+02 -0.11355456473E+03  0.62802787745E+03  0.69051984667E+03  0.26294985887E+03 0.  0.
         25    1    3    3    0    0  0.19009901298E+02  0.11355456473E+03  0.50164238488E+03  0.52966839242E+03  0.12509000000E+03 0.  0.
         25    1    4    4    0    0 -0.27152748921E+01 -0.55551800660E+02  0.40793359892E+03  0.43029141812E+03  0.12509000000E+03 0.  0.
         25    1    4    4    0    0 -0.16294626405E+02 -0.58002764073E+02  0.22009427853E+03  0.26022842856E+03  0.12509000000E+03 0.  0.
<mgrwt>
<rscale>  2 0.46119891E+03</rscale>
<asrwt>0</asrwt>
<pdfrwt beam="1">  1       21 0.17278369E+00 0.46119891E+03</pdfrwt>
<pdfrwt beam="2">  1       21 0.66557343E-02 0.46119891E+03</pdfrwt>
<totfact> 0.30045527E+04</totfact>
</mgrwt>
</event>
<event>
 7    0  0.4732500E-002  0.4554756E+03  0.7546771E-02  0.1026102E+00
         21   -1    0    0  502  501  0.00000000000E+00  0.00000000000E+00  0.64874305884E+03  0.64874305884E+03  0.00000000000E+00 0. -1.
         21   -1    0    0  501  502 -0.00000000000E+00 -0.00000000000E+00 -0.79946134826E+02  0.79946134826E+02  0.00000000000E+00 0. -1.
      99926    2    1    2    0    0  0.00000000000E+00 -0.17763568394E-14  0.56879692401E+03  0.72868919366E+03  0.45547557585E+03 0.  0.
      99925    2    3    3    0    0 -0.71682239491E+02  0.85625681946E+01  0.21725819063E+03  0.34863834154E+03  0.26293708518E+03 0.  0.
         25    1    4    4    0    0 -0.74186271524E+02 -0.11720508226E+02  0.11797748805E+03  0.18763573482E+03  0.12509000000E+03 0.  0.
         25    1    4    4    0    0  0.25040320331E+01  0.20283076420E+02  0.99280702585E+02  0.16100260672E+03  0.12509000000E+03 0.  0.
         25    1    3    3    0    0  0.71682239491E+02 -0.85625681946E+01  0.35153873338E+03  0.38005085212E+03  0.12509000000E+03 0.  0.
<mgrwt>
<rscale>  2 0.45547558E+03</rscale>
<asrwt>0</asrwt>
<pdfrwt beam="1">  1       21 0.95403388E-01 0.45547558E+03</pdfrwt>
<pdfrwt beam="2">  1       21 0.11756785E-01 0.45547558E+03</pdfrwt>
<totfact> 0.51181208E+04</totfact>
</mgrwt>
</event>
<event>
 7    0  0.4732500E-002  0.4549198E+03  0.7546771E-02  0.1026265E+00
         21   -1    0    0  502  501  0.00000000000E+00  0.00000000000E+00  0.11940090652E+03  0.11940090652E+03  0.00000000000E+00 0. -1.
         21   -1    0    0  501  502 -0.00000000000E+00 -0.00000000000E+00 -0.43331343527E+03  0.43331343527E+03  0.00000000000E+00 0. -1.
      99926    2    1    2    0    0  0.00000000000E+00  0.00000000000E+00 -0.31391252875E+03  0.55271434180E+03  0.45491984780E+03 0.  0.
      99925    2    3    3    0    0 -0.30506472433E+02  0.38488417447E+02 -0.73583223885E+02  0.27736422646E+03  0.26287719594E+03 0.  0.
         25    1    3    3    0    0  0.30506472433E+02 -0.38488417447E+02 -0.24032930486E+03  0.27535011533E+03  0.12509000000E+03 0.  0.
         25    1    4    4    0    0 -0.33976486003E+02 -0.55417156825E+01 -0.63158681324E+02  0.14429705243E+03  0.12509000000E+03 0.  0.
         25    1    4    4    0    0  0.34700135702E+01  0.44030133129E+02 -0.10424542562E+02  0.13306717403E+03  0.12509000000E+03 0.  0.
<mgrwt>
<rscale>  2 0.45491985E+03</rscale>
<asrwt>0</asrwt>
<pdfrwt beam="1">  1       21 0.17558957E-01 0.45491985E+03</pdfrwt>
<pdfrwt beam="2">  1       21 0.63722563E-01 0.45491985E+03</pdfrwt>
<totfact> 0.61726634E+04</totfact>
</mgrwt>
</event>
<event>
 7    0  0.4732500E-002  0.4593321E+03  0.7546771E-02  0.1024975E+00
         21   -1    0    0  502  501  0.00000000000E+00  0.00000000000E+00  0.13610788038E+03  0.13610788038E+03  0.00000000000E+00 0. -1.
         21   -1    0    0  501  502 -0.00000000000E+00 -0.00000000000E+00 -0.38753453046E+03  0.38753453046E+03  0.00000000000E+00 0. -1.
      99926    2    1    2    0    0  0.00000000000E+00  0.00000000000E+00 -0.25142665008E+03  0.52364241084E+03  0.45933213915E+03 0.  0.
      99925    2    3    3    0    0 -0.88342952996E+02  0.34108166630E+02 -0.23639685517E+03  0.36603134775E+03  0.26292133809E+03 0.  0.
         25    1    3    3    0    0  0.88342952996E+02 -0.34108166630E+02 -0.15029794916E+02  0.15761106310E+03  0.12509000000E+03 0.  0.
         25    1    4    4    0    0 -0.59090265949E+02 -0.93238050515E+01 -0.15456809301E+03  0.20764728832E+03  0.12509000000E+03 0.  0.
         25    1    4    4    0    0 -0.29252687047E+02  0.43431971681E+02 -0.81828762155E+02  0.15838405942E+03  0.12509000000E+03 0.  0.
<mgrwt>
<rscale>  2 0.45933214E+03</rscale>
<asrwt>0</asrwt>
<pdfrwt beam="1">  1       21 0.20015865E-01 0.45933214E+03</pdfrwt>
<pdfrwt beam="2">  1       21 0.56990371E-01 0.45933214E+03</pdfrwt>
<totfact> 0.61498764E+04</totfact>
</mgrwt>
</event>
<event>
 7    0  0.4732500E-002  0.4506768E+03  0.7546771E-02  0.1027520E+00
         21   -1    0    0  502  501  0.00000000000E+00  0.00000000000E+00  0.49752995338E+03  0.49752995338E+03  0.00000000000E+00 0. -1.
         21   -1    0    0  501  502 -0.00000000000E+00 -0.00000000000E+00 -0.10205895082E+03  0.10205895082E+03  0.00000000000E+00 0. -1.
      99926    2    1    2    0    0  0.71054273576E-14  0.00000000000E+00  0.39547100256E+03  0.59958890421E+03  0.45067675798E+03 0.  0.
      99925    2    3    3    0    0 -0.33651658172E+02 -0.44272153017E+02  0.37521256898E+03  0.46120404282E+03  0.26235898986E+03 0.  0.
         25    1    4    4    0    0  0.65206707129E+01 -0.24099316032E+02  0.12908057379E+03  0.18147341075E+03  0.12509000000E+03 0.  0.
         25    1    3    3    0    0  0.33651658172E+02  0.44272153017E+02  0.20258433577E+02  0.13838486139E+03  0.12509000000E+03 0.  0.
         25    1    4    4    0    0 -0.40172328885E+02 -0.20172836985E+02  0.24613199519E+03  0.27973063207E+03  0.12509000000E+03 0.  0.
<mgrwt>
<rscale>  2 0.45067676E+03</rscale>
<asrwt>0</asrwt>
<pdfrwt beam="1">  1       21 0.73166169E-01 0.45067676E+03</pdfrwt>
<pdfrwt beam="2">  1       21 0.15008669E-01 0.45067676E+03</pdfrwt>
<totfact> 0.60752360E+04</totfact>
</mgrwt>
</event>
<event>
 7    0  0.4732500E-002  0.4530592E+03  0.7546771E-02  0.1026814E+00
         21   -1    0    0  502  501  0.00000000000E+00  0.00000000000E+00  0.14489995109E+03  0.14489995109E+03  0.00000000000E+00 0.  1.
         21   -1    0    0  501  502 -0.00000000000E+00 -0.00000000000E+00 -0.35414542379E+03  0.35414542379E+03  0.00000000000E+00 0.  1.
      99926    2    1    2    0    0  0.14210854715E-13  0.35527136788E-14 -0.20924547270E+03  0.49904537488E+03  0.45305917753E+03 0.  0.
      99925    2    3    3    0    0  0.10168439058E+03  0.30604663589E+02 -0.16881694427E+03  0.33005326047E+03  0.26298219209E+03 0.  0.
         25    1    4    4    0    0  0.60922813607E+02  0.50876663599E+02 -0.67678799559E+02  0.16287403761E+03  0.12509000000E+03 0.  0.
         25    1    3    3    0    0 -0.10168439058E+03 -0.30604663589E+02 -0.40428528424E+02  0.16899211441E+03  0.12509000000E+03 0.  0.
         25    1    4    4    0    0  0.40761576974E+02 -0.20272000010E+02 -0.10113814471E+03  0.16717922287E+03  0.12509000000E+03 0.  0.
<mgrwt>
<rscale>  2 0.45305918E+03</rscale>
<asrwt>0</asrwt>
<pdfrwt beam="1">  1       21 0.21308817E-01 0.45305918E+03</pdfrwt>
<pdfrwt beam="2">  1       21 0.52080209E-01 0.45305918E+03</pdfrwt>
<totfact> 0.66354174E+04</totfact>
</mgrwt>
</event>
<event>
 7    0  0.4732500E-002  0.4633425E+03  0.7546771E-02  0.1023816E+00
         21   -1    0    0  502  501  0.00000000000E+00  0.00000000000E+00  0.45743746522E+02  0.45743746522E+02  0.00000000000E+00 0. -1.
         21   -1    0    0  501  502 -0.00000000000E+00 -0.00000000000E+00 -0.11733093796E+04  0.11733093796E+04  0.00000000000E+00 0. -1.
      99926    2    1    2    0    0  0.00000000000E+00  0.00000000000E+00 -0.11275656331E+04  0.12190531262E+04  0.46334249472E+03 0.  0.
      99925    2    3    3    0    0  0.11896029949E+03 -0.58920048364E+01 -0.75474292448E+03  0.80816317891E+03  0.26325761740E+03 0.  0.
         25    1    4    4    0    0  0.28119629959E+02 -0.20658728292E+02 -0.27966125204E+03  0.30834302430E+03  0.12509000000E+03 0.  0.
         25    1    4    4    0    0  0.90840669533E+02  0.14766723456E+02 -0.47508167244E+03  0.49982015461E+03  0.12509000000E+03 0.  0.
         25    1    3    3    0    0 -0.11896029949E+03  0.58920048364E+01 -0.37282270863E+03  0.41088994725E+03  0.12509000000E+03 0.  0.
<mgrwt>
<rscale>  2 0.46334249E+03</rscale>
<asrwt>0</asrwt>
<pdfrwt beam="1">  1       21 0.67270220E-02 0.46334249E+03</pdfrwt>
<pdfrwt beam="2">  1       21 0.17254549E+00 0.46334249E+03</pdfrwt>
<totfact> 0.29588048E+04</totfact>
</mgrwt>
</event>
<event>
 7    0  0.4732500E-002  0.4492173E+03  0.7546771E-02  0.1027956E+00
         21   -1    0    0  502  501  0.00000000000E+00  0.00000000000E+00  0.19709855746E+04  0.19709855746E+04  0.00000000000E+00 0.  1.
         21   -1    0    0  501  502 -0.00000000000E+00 -0.00000000000E+00 -0.25595846369E+02  0.25595846369E+02  0.00000000000E+00 0.  1.
      99926    2    1    2    0    0  0.00000000000E+00  0.71054273576E-14  0.19453897282E+04  0.19965814209E+04  0.44921729246E+03 0.  0.
      99925    2    3    3    0    0 -0.72067639677E+02 -0.51576477332E+02  0.15020483942E+04  0.15274834309E+04  0.26306344391E+03 0.  0.
         25    1    3    3    0    0  0.72067639677E+02  0.51576477332E+02  0.44334133400E+03  0.46909799001E+03  0.12509000000E+03 0.  0.
         25    1    4    4    0    0 -0.68488002180E+02 -0.29883532790E+01  0.82803603706E+03  0.84023254131E+03  0.12509000000E+03 0.  0.
         25    1    4    4    0    0 -0.35796374965E+01 -0.48588124053E+02  0.67401235715E+03  0.68725088963E+03  0.12509000000E+03 0.  0.
<mgrwt>
<rscale>  2 0.44921729E+03</rscale>
<asrwt>0</asrwt>
<pdfrwt beam="1">  1       21 0.28985071E+00 0.44921729E+03</pdfrwt>
<pdfrwt beam="2">  1       21 0.37640964E-02 0.44921729E+03</pdfrwt>
<totfact> 0.14401229E+04</totfact>
</mgrwt>
</event>
<event>
 7    0  0.4732500E-002  0.4101438E+03  0.7546771E-02  0.1040323E+00
         21   -1    0    0  502  501  0.00000000000E+00  0.00000000000E+00  0.14597786521E+03  0.14597786521E+03  0.00000000000E+00 0. -1.
         21   -1    0    0  501  502 -0.00000000000E+00 -0.00000000000E+00 -0.28808811748E+03  0.28808811748E+03  0.00000000000E+00 0. -1.
      99926    2    1    2    0    0 -0.71054273576E-14  0.00000000000E+00 -0.14211025227E+03  0.43406598268E+03  0.41014382054E+03 0.  0.
      99925    2    3    3    0    0  0.35393198192E+02 -0.51362609420E+02 -0.98133182598E+02  0.28753173112E+03  0.26297068040E+03 0.  0.
         25    1    4    4    0    0  0.13513877423E+01 -0.31824466693E+02 -0.98135559009E+01  0.12945438157E+03  0.12509000000E+03 0.  0.
         25    1    3    3    0    0 -0.35393198192E+02  0.51362609420E+02 -0.43977069669E+02  0.14653425156E+03  0.12509000000E+03 0.  0.
         25    1    4    4    0    0  0.34041810450E+02 -0.19538142727E+02 -0.88319626697E+02  0.15807734955E+03  0.12509000000E+03 0.  0.
<mgrwt>
<rscale>  2 0.41014382E+03</rscale>
<asrwt>0</asrwt>
<pdfrwt beam="1">  1       21 0.21467333E-01 0.41014382E+03</pdfrwt>
<pdfrwt beam="2">  1       21 0.42365900E-01 0.41014382E+03</pdfrwt>
<totfact> 0.10192810E+05</totfact>
</mgrwt>
</event>
<event>
 7    0  0.4732500E-002  0.4425598E+03  0.7546771E-02  0.1029964E+00
         21   -1    0    0  502  501  0.00000000000E+00  0.00000000000E+00  0.45920592522E+03  0.45920592522E+03  0.00000000000E+00 0. -1.
         21   -1    0    0  501  502 -0.00000000000E+00 -0.00000000000E+00 -0.10662929241E+03  0.10662929241E+03  0.00000000000E+00 0. -1.
      99926    2    1    2    0    0  0.00000000000E+00  0.00000000000E+00  0.35257663281E+03  0.56583521763E+03  0.44255983947E+03 0.  0.
      99925    2    3    3    0    0 -0.20282317230E+02 -0.89518687757E+02  0.17037277142E+03  0.32652219447E+03  0.26299219454E+03 0.  0.
         25    1    4    4    0    0 -0.36178603606E+02 -0.78282082380E+02  0.91081022583E+02  0.17714467690E+03  0.12509000000E+03 0.  0.
         25    1    3    3    0    0  0.20282317230E+02  0.89518687757E+02  0.18220386139E+03  0.23931302316E+03  0.12509000000E+03 0.  0.
         25    1    4    4    0    0  0.15896286375E+02 -0.11236605377E+02  0.79291748838E+02  0.14937751757E+03  0.12509000000E+03 0.  0.
<mgrwt>
<rscale>  2 0.44255984E+03</rscale>
<asrwt>0</asrwt>
<pdfrwt beam="1">  1       21 0.67530282E-01 0.44255984E+03</pdfrwt>
<pdfrwt beam="2">  1       21 0.15680778E-01 0.44255984E+03</pdfrwt>
<totfact> 0.67203723E+04</totfact>
</mgrwt>
</event>
<event>
 7    0  0.4732500E-002  0.4191235E+03  0.7546771E-02  0.1037352E+00
         21   -1    0    0  502  501  0.00000000000E+00  0.00000000000E+00  0.93118829293E+03  0.93118829293E+03  0.00000000000E+00 0.  1.
         21   -1    0    0  501  502 -0.00000000000E+00 -0.00000000000E+00 -0.47161377226E+02  0.47161377226E+02  0.00000000000E+00 0.  1.
      99926    2    1    2    0    0  0.35527136788E-14  0.00000000000E+00  0.88402691570E+03  0.97834967015E+03  0.41912347752E+03 0.  0.
      99925    2    3    3    0    0 -0.14236477799E+02  0.37775187659E+02  0.43041648959E+03  0.50607901800E+03  0.26311209750E+03 0.  0.
         25    1    4    4    0    0 -0.40109853203E+02  0.22020067301E+02  0.26401502142E+03  0.29571121610E+03  0.12509000000E+03 0.  0.
         25    1    4    4    0    0  0.25873375404E+02  0.15755120358E+02  0.16640146816E+03  0.21036780191E+03  0.12509000000E+03 0.  0.
         25    1    3    3    0    0  0.14236477799E+02 -0.37775187659E+02  0.45361042611E+03  0.47227065215E+03  0.12509000000E+03 0.  0.
<mgrwt>
<rscale>  2 0.41912348E+03</rscale>
<asrwt>0</asrwt>
<pdfrwt beam="1">  1       21 0.13693944E+00 0.41912348E+03</pdfrwt>
<pdfrwt beam="2">  1       21 0.69354972E-02 0.41912348E+03</pdfrwt>
<totfact> 0.53517793E+04</totfact>
</mgrwt>
</event>
<event>
 7    0  0.4732500E-002  0.4557070E+03  0.7546771E-02  0.1026034E+00
         21   -1    0    0  502  501  0.00000000000E+00  0.00000000000E+00  0.79927247636E+02  0.79927247636E+02  0.00000000000E+00 0. -1.
         21   -1    0    0  501  502 -0.00000000000E+00 -0.00000000000E+00 -0.64955606534E+03  0.64955606534E+03  0.00000000000E+00 0. -1.
      99926    2    1    2    0    0 -0.14210854715E-13 -0.71054273576E-14 -0.56962881770E+03  0.72948331298E+03  0.45570704839E+03 0.  0.
      99925    2    3    3    0    0 -0.66791105983E+02 -0.61532461230E+02 -0.46765930667E+03  0.54430074116E+03  0.26326939452E+03 0.  0.
         25    1    3    3    0    0  0.66791105983E+02  0.61532461230E+02 -0.10196951103E+03  0.18518257181E+03  0.12509000000E+03 0.  0.
         25    1    4    4    0    0 -0.52222878298E+02 -0.68315493287E+02 -0.27281559220E+03  0.31220200366E+03  0.12509000000E+03 0.  0.
         25    1    4    4    0    0 -0.14568227685E+02  0.67830320572E+01 -0.19484371447E+03  0.23209873750E+03  0.12509000000E+03 0.  0.
<mgrwt>
<rscale>  2 0.45570705E+03</rscale>
<asrwt>0</asrwt>
<pdfrwt beam="1">  1       21 0.11754008E-01 0.45570705E+03</pdfrwt>
<pdfrwt beam="2">  1       21 0.95522946E-01 0.45570705E+03</pdfrwt>
<totfact> 0.51046893E+04</totfact>
</mgrwt>
</event>
<event>
 7    0  0.4732500E-002  0.4491116E+03  0.7546771E-02  0.1027987E+00
         21   -1    0    0  502  501  0.00000000000E+00  0.00000000000E+00  0.48507182702E+03  0.48507182702E+03  0.00000000000E+00 0. -1.
         21   -1    0    0  501  502 -0.00000000000E+00 -0.00000000000E+00 -0.10395429625E+03  0.10395429625E+03  0.00000000000E+00 0. -1.
      99926    2    1    2    0    0  0.71054273576E-14  0.00000000000E+00  0.38111753077E+03  0.58902612327E+03  0.44911156925E+03 0.  0.
      99925    2    3    3    0    0 -0.45184733244E+02  0.97118903121E+02  0.22820805642E+03  0.36429838375E+03  0.26298413247E+03 0.  0.
         25    1    4    4    0    0 -0.37196059005E+02  0.89769419234E+02  0.12623923918E+03  0.20254863377E+03  0.12509000000E+03 0.  0.
         25    1    3    3    0    0  0.45184733244E+02 -0.97118903121E+02  0.15290947436E+03  0.22472773952E+03  0.12509000000E+03 0.  0.
         25    1    4    4    0    0 -0.79886742393E+01  0.73494838873E+01  0.10196881724E+03  0.16174974998E+03  0.12509000000E+03 0.  0.
<mgrwt>
<rscale>  2 0.44911157E+03</rscale>
<asrwt>0</asrwt>
<pdfrwt beam="1">  1       21 0.71334091E-01 0.44911157E+03</pdfrwt>
<pdfrwt beam="2">  1       21 0.15287397E-01 0.44911157E+03</pdfrwt>
<totfact> 0.62203645E+04</totfact>
</mgrwt>
</event>
<event>
 7    0  0.4732500E-002  0.4474273E+03  0.7546771E-02  0.1028492E+00
         21   -1    0    0  502  501  0.00000000000E+00  0.00000000000E+00  0.84492107037E+03  0.84492107037E+03  0.00000000000E+00 0. -1.
         21   -1    0    0  501  502 -0.00000000000E+00 -0.00000000000E+00 -0.59233688843E+02  0.59233688843E+02  0.00000000000E+00 0. -1.
      99926    2    1    2    0    0  0.00000000000E+00  0.00000000000E+00  0.78568738152E+03  0.90415475921E+03  0.44742727579E+03 0.  0.
      99925    2    3    3    0    0  0.64450169419E+02 -0.80835192797E+02  0.45258912006E+03  0.53362795502E+03  0.26312303216E+03 0.  0.
         25    1    4    4    0    0  0.30668940126E+02  0.21936492641E+01  0.20637404502E+03  0.24327587333E+03  0.12509000000E+03 0.  0.
         25    1    3    3    0    0 -0.64450169419E+02  0.80835192797E+02  0.33309826146E+03  0.37052680419E+03  0.12509000000E+03 0.  0.
         25    1    4    4    0    0  0.33781229293E+02 -0.83028842061E+02  0.24621507504E+03  0.29035208169E+03  0.12509000000E+03 0.  0.
<mgrwt>
<rscale>  2 0.44742728E+03</rscale>
<asrwt>0</asrwt>
<pdfrwt beam="1">  1       21 0.12425309E+00 0.44742728E+03</pdfrwt>
<pdfrwt beam="2">  1       21 0.87108371E-02 0.44742728E+03</pdfrwt>
<totfact> 0.45703531E+04</totfact>
</mgrwt>
</event>
<event>
 7    0  0.4732500E-002  0.4571091E+03  0.7546771E-02  0.1025623E+00
         21   -1    0    0  502  501  0.00000000000E+00  0.00000000000E+00  0.52974593595E+03  0.52974593595E+03  0.00000000000E+00 0.  1.
         21   -1    0    0  501  502 -0.00000000000E+00 -0.00000000000E+00 -0.98607996090E+02  0.98607996090E+02  0.00000000000E+00 0.  1.
      99926    2    1    2    0    0  0.00000000000E+00  0.00000000000E+00  0.43113793986E+03  0.62835393204E+03  0.45710911249E+03 0.  0.
      99925    2    3    3    0    0 -0.26295713271E+02 -0.11152388303E+03  0.28646776307E+03  0.40540548693E+03  0.26298438838E+03 0.  0.
         25    1    4    4    0    0  0.72706637597E+01 -0.87755581803E+02  0.12874989193E+03  0.19994486105E+03  0.12509000000E+03 0.  0.
         25    1    4    4    0    0 -0.33566377030E+02 -0.23768301232E+02  0.15771787114E+03  0.20546062588E+03  0.12509000000E+03 0.  0.
         25    1    3    3    0    0  0.26295713271E+02  0.11152388303E+03  0.14467017679E+03  0.22294844511E+03  0.12509000000E+03 0.  0.
<mgrwt>
<rscale>  2 0.45710911E+03</rscale>
<asrwt>0</asrwt>
<pdfrwt beam="1">  1       21 0.77903813E-01 0.45710911E+03</pdfrwt>
<pdfrwt beam="2">  1       21 0.14501176E-01 0.45710911E+03</pdfrwt>
<totfact> 0.56027354E+04</totfact>
</mgrwt>
</event>
<event>
 7    0  0.4732500E-002  0.4459096E+03  0.7546771E-02  0.1028949E+00
         21   -1    0    0  502  501  0.00000000000E+00  0.00000000000E+00  0.14879731067E+03  0.14879731067E+03  0.00000000000E+00 0. -1.
         21   -1    0    0  501  502 -0.00000000000E+00 -0.00000000000E+00 -0.33407079340E+03  0.33407079340E+03  0.00000000000E+00 0. -1.
      99926    2    1    2    0    0 -0.44408920985E-15  0.00000000000E+00 -0.18527348273E+03  0.48286810406E+03  0.44590956765E+03 0.  0.
      99925    2    3    3    0    0  0.27747522992E+01  0.70458037415E+02 -0.34236058751E+02  0.27446501909E+03  0.26303403714E+03 0.  0.
         25    1    4    4    0    0  0.30039840130E+02  0.21714357036E+02 -0.42526854752E+02  0.13722225319E+03  0.12509000000E+03 0.  0.
         25    1    3    3    0    0 -0.27747522992E+01 -0.70458037415E+02 -0.15103742398E+03  0.20840308498E+03  0.12509000000E+03 0.  0.
         25    1    4    4    0    0 -0.27265087831E+02  0.48743680379E+02  0.82907960005E+01  0.13724276589E+03  0.12509000000E+03 0.  0.
<mgrwt>
<rscale>  2 0.44590957E+03</rscale>
<asrwt>0</asrwt>
<pdfrwt beam="1">  1       21 0.21881958E-01 0.44590957E+03</pdfrwt>
<pdfrwt beam="2">  1       21 0.49128057E-01 0.44590957E+03</pdfrwt>
<totfact> 0.71515135E+04</totfact>
</mgrwt>
</event>
<event>
 7    0  0.4732500E-002  0.4439873E+03  0.7546771E-02  0.1029530E+00
         21   -1    0    0  502  501  0.00000000000E+00  0.00000000000E+00  0.27743938076E+03  0.27743938076E+03  0.00000000000E+00 0.  1.
         21   -1    0    0  501  502 -0.00000000000E+00 -0.00000000000E+00 -0.17762861185E+03  0.17762861185E+03  0.00000000000E+00 0.  1.
      99926    2    1    2    0    0 -0.14210854715E-13  0.00000000000E+00  0.99810768915E+02  0.45506799261E+03  0.44398726143E+03 0.  0.
      99925    2    3    3    0    0 -0.64686136265E+02  0.50268012922E+02  0.12667050267E+03  0.30314655652E+03  0.26294723640E+03 0.  0.
         25    1    3    3    0    0  0.64686136265E+02 -0.50268012922E+02 -0.26859733754E+02  0.15192143610E+03  0.12509000000E+03 0.  0.
         25    1    4    4    0    0 -0.22365968294E+02  0.46909759233E+02  0.28135627411E+02  0.13834696845E+03  0.12509000000E+03 0.  0.
         25    1    4    4    0    0 -0.42320167971E+02  0.33582536892E+01  0.98534875258E+02  0.16479958807E+03  0.12509000000E+03 0.  0.
<mgrwt>
<rscale>  2 0.44398726E+03</rscale>
<asrwt>0</asrwt>
<pdfrwt beam="1">  1       21 0.40799909E-01 0.44398726E+03</pdfrwt>
<pdfrwt beam="2">  1       21 0.26121855E-01 0.44398726E+03</pdfrwt>
<totfact> 0.74894261E+04</totfact>
</mgrwt>
</event>
<event>
 7    0  0.4732500E-002  0.4322173E+03  0.7546771E-02  0.1033162E+00
         21   -1    0    0  502  501  0.00000000000E+00  0.00000000000E+00  0.28413357830E+03  0.28413357830E+03  0.00000000000E+00 0. -1.
         21   -1    0    0  501  502 -0.00000000000E+00 -0.00000000000E+00 -0.16436969655E+03  0.16436969655E+03  0.00000000000E+00 0. -1.
      99926    2    1    2    0    0 -0.88817841970E-15  0.00000000000E+00  0.11976388176E+03  0.44850327485E+03  0.43221730666E+03 0.  0.
      99925    2    3    3    0    0 -0.51494026008E+01 -0.81107213378E+02  0.36362663668E+02  0.27759930272E+03  0.26293389503E+03 0.  0.
         25    1    4    4    0    0 -0.59046041668E+01 -0.18094844379E+02  0.51722403677E+02  0.13669309743E+03  0.12509000000E+03 0.  0.
         25    1    4    4    0    0  0.75520156591E+00 -0.63012368999E+02 -0.15359740009E+02  0.14090620529E+03  0.12509000000E+03 0.  0.
         25    1    3    3    0    0  0.51494026008E+01  0.81107213378E+02  0.83401218088E+02  0.17090397212E+03  0.12509000000E+03 0.  0.
<mgrwt>
<rscale>  2 0.43221731E+03</rscale>
<asrwt>0</asrwt>
<pdfrwt beam="1">  1       21 0.41784350E-01 0.43221731E+03</pdfrwt>
<pdfrwt beam="2">  1       21 0.24172014E-01 0.43221731E+03</pdfrwt>
<totfact> 0.83101305E+04</totfact>
</mgrwt>
</event>
<event>
 7    0  0.4732500E-002  0.4572227E+03  0.7546771E-02  0.1025590E+00
         21   -1    0    0  502  501  0.00000000000E+00  0.00000000000E+00  0.67524220589E+03  0.67524220589E+03  0.00000000000E+00 0. -1.
         21   -1    0    0  501  502 -0.00000000000E+00 -0.00000000000E+00 -0.77399122407E+02  0.77399122407E+02  0.00000000000E+00 0. -1.
      99926    2    1    2    0    0  0.00000000000E+00  0.00000000000E+00  0.59784308348E+03  0.75264132829E+03  0.45722272099E+03 0.  0.
      99925    2    3    3    0    0 -0.87245494684E+02  0.69634098546E+02  0.42289239661E+03  0.51032761642E+03  0.26293651887E+03 0.  0.
         25    1    3    3    0    0  0.87245494684E+02 -0.69634098546E+02  0.17495068688E+03  0.24231371187E+03  0.12509000000E+03 0.  0.
         25    1    4    4    0    0 -0.24399633034E+02  0.36492655239E+02  0.13909527614E+03  0.19215113823E+03  0.12509000000E+03 0.  0.
         25    1    4    4    0    0 -0.62845861649E+02  0.33141443308E+02  0.28379712046E+03  0.31817647819E+03  0.12509000000E+03 0.  0.
<mgrwt>
<rscale>  2 0.45722272E+03</rscale>
<asrwt>0</asrwt>
<pdfrwt beam="1">  1       21 0.99300321E-01 0.45722272E+03</pdfrwt>
<pdfrwt beam="2">  1       21 0.11382224E-01 0.45722272E+03</pdfrwt>
<totfact> 0.49270011E+04</totfact>
</mgrwt>
</event>
<event>
 7    0  0.4732500E-002  0.4506454E+03  0.7546771E-02  0.1027530E+00
         21   -1    0    0  502  501  0.00000000000E+00  0.00000000000E+00  0.87886134277E+03  0.87886134277E+03  0.00000000000E+00 0.  1.
         21   -1    0    0  501  502 -0.00000000000E+00 -0.00000000000E+00 -0.57768289907E+02  0.57768289907E+02  0.00000000000E+00 0.  1.
      99926    2    1    2    0    0  0.71054273576E-14 -0.71054273576E-14  0.82109305286E+03  0.93662963268E+03  0.45064538980E+03 0.  0.
      99925    2    3    3    0    0  0.44931231146E+02  0.34162233009E+02  0.71244724806E+03  0.76159451421E+03  0.26317152032E+03 0.  0.
         25    1    4    4    0    0  0.49643818421E+02 -0.12437600897E+02  0.33678129468E+03  0.36288889645E+03  0.12509000000E+03 0.  0.
         25    1    3    3    0    0 -0.44931231146E+02 -0.34162233009E+02  0.10864580480E+03  0.17503511847E+03  0.12509000000E+03 0.  0.
         25    1    4    4    0    0 -0.47125872751E+01  0.46599833906E+02  0.37566595338E+03  0.39870561776E+03  0.12509000000E+03 0.  0.
<mgrwt>
<rscale>  2 0.45064539E+03</rscale>
<asrwt>0</asrwt>
<pdfrwt beam="1">  1       21 0.12924431E+00 0.45064539E+03</pdfrwt>
<pdfrwt beam="2">  1       21 0.84953373E-02 0.45064539E+03</pdfrwt>
<totfact> 0.43137504E+04</totfact>
</mgrwt>
</event>
<event>
 7    0  0.4732500E-002  0.4565769E+03  0.7546771E-02  0.1025779E+00
         21   -1    0    0  502  501  0.00000000000E+00  0.00000000000E+00  0.36080246418E+03  0.36080246418E+03  0.00000000000E+00 0.  1.
         21   -1    0    0  501  502 -0.00000000000E+00 -0.00000000000E+00 -0.14444363595E+03  0.14444363595E+03  0.00000000000E+00 0.  1.
      99926    2    1    2    0    0  0.35527136788E-14  0.00000000000E+00  0.21635882823E+03  0.50524610013E+03  0.45657691481E+03 0.  0.
      99925    2    3    3    0    0  0.19603573548E+02  0.38384851968E+02  0.18751017480E+02  0.26743514175E+03  0.26327221165E+03 0.  0.
         25    1    3    3    0    0 -0.19603573548E+02 -0.38384851968E+02  0.19760781075E+03  0.23781095838E+03  0.12509000000E+03 0.  0.
         25    1    4    4    0    0 -0.12423686467E+02  0.51634950109E+02 -0.24105530907E+01  0.13591848632E+03  0.12509000000E+03 0.  0.
         25    1    4    4    0    0  0.32027260015E+02 -0.13250098141E+02  0.21161570571E+02  0.13151665542E+03  0.12509000000E+03 0.  0.
<mgrwt>
<rscale>  2 0.45657691E+03</rscale>
<asrwt>0</asrwt>
<pdfrwt beam="1">  1       21 0.53059186E-01 0.45657691E+03</pdfrwt>
<pdfrwt beam="2">  1       21 0.21241711E-01 0.45657691E+03</pdfrwt>
<totfact> 0.64097608E+04</totfact>
</mgrwt>
</event>
<event>
 7    0  0.4732500E-002  0.4622369E+03  0.7546771E-02  0.1024134E+00
         21   -1    0    0  502  501  0.00000000000E+00  0.00000000000E+00  0.29122142720E+04  0.29122142720E+04  0.00000000000E+00 0. -1.
         21   -1    0    0  501  502 -0.00000000000E+00 -0.00000000000E+00 -0.18341967408E+02  0.18341967408E+02  0.00000000000E+00 0. -1.
      99926    2    1    2    0    0  0.00000000000E+00 -0.14210854715E-13  0.28938723046E+04  0.29305562394E+04  0.46223690576E+03 0.  0.
      99925    2    3    3    0    0 -0.12821719636E+02  0.11647645243E+03  0.16542359024E+04  0.16791262261E+04  0.26312981953E+03 0.  0.
         25    1    3    3    0    0  0.12821719636E+02 -0.11647645243E+03  0.12396364023E+04  0.12514300134E+04  0.12509000000E+03 0.  0.
         25    1    4    4    0    0 -0.26743653996E+02  0.54416384580E+02  0.61864531197E+03  0.63407089198E+03  0.12509000000E+03 0.  0.
         25    1    4    4    0    0  0.13921934360E+02  0.62060067848E+02  0.10355905904E+04  0.10450553341E+04  0.12509000000E+03 0.  0.
<mgrwt>
<rscale>  2 0.46223691E+03</rscale>
<asrwt>0</asrwt>
<pdfrwt beam="1">  1       21 0.42826649E+00 0.46223691E+03</pdfrwt>
<pdfrwt beam="2">  1       21 0.26973502E-02 0.46223691E+03</pdfrwt>
<totfact> 0.34543204E+03</totfact>
</mgrwt>
</event>
<event>
 7    0  0.4732500E-002  0.4530001E+03  0.7546771E-02  0.1026831E+00
         21   -1    0    0  502  501  0.00000000000E+00  0.00000000000E+00  0.51613867974E+02  0.51613867974E+02  0.00000000000E+00 0.  1.
         21   -1    0    0  501  502 -0.00000000000E+00 -0.00000000000E+00 -0.99396307725E+03  0.99396307725E+03  0.00000000000E+00 0.  1.
      99926    2    1    2    0    0  0.14210854715E-13  0.00000000000E+00 -0.94234920927E+03  0.10455769452E+04  0.45300012821E+03 0.  0.
      99925    2    3    3    0    0  0.10592940247E+03 -0.33515000299E+02 -0.60953107584E+03  0.67307229881E+03  0.26297127878E+03 0.  0.
         25    1    3    3    0    0 -0.10592940247E+03  0.33515000299E+02 -0.33281813344E+03  0.37250464641E+03  0.12509000000E+03 0.  0.
         25    1    4    4    0    0  0.63571267611E+02 -0.56467049148E+02 -0.33503627746E+03  0.36759576850E+03  0.12509000000E+03 0.  0.
         25    1    4    4    0    0  0.42358134857E+02  0.22952048849E+02 -0.27449479838E+03  0.30547653031E+03  0.12509000000E+03 0.  0.
<mgrwt>
<rscale>  2 0.45300013E+03</rscale>
<asrwt>0</asrwt>
<pdfrwt beam="1">  1       21 0.75902749E-02 0.45300013E+03</pdfrwt>
<pdfrwt beam="2">  1       21 0.14617104E+00 0.45300013E+03</pdfrwt>
<totfact> 0.38030303E+04</totfact>
</mgrwt>
</event>
<event>
 7    0  0.4732500E-002  0.4523595E+03  0.7546771E-02  0.1027021E+00
         21   -1    0    0  502  501  0.00000000000E+00  0.00000000000E+00  0.50238595754E+03  0.50238595754E+03  0.00000000000E+00 0.  1.
         21   -1    0    0  501  502 -0.00000000000E+00 -0.00000000000E+00 -0.10182865793E+03  0.10182865793E+03  0.00000000000E+00 0.  1.
      99926    2    1    2    0    0  0.00000000000E+00  0.00000000000E+00  0.40055729961E+03  0.60421461546E+03  0.45235953761E+03 0.  0.
      99925    2    3    3    0    0 -0.65280798345E+02  0.39041105659E+02  0.14543265405E+03  0.31006859147E+03  0.26307049243E+03 0.  0.
         25    1    3    3    0    0  0.65280798345E+02 -0.39041105659E+02  0.25512464555E+03  0.29414602400E+03  0.12509000000E+03 0.  0.
         25    1    4    4    0    0 -0.12430676269E+02  0.13381716042E+02  0.10956927217E+03  0.16729173782E+03  0.12509000000E+03 0.  0.
         25    1    4    4    0    0 -0.52850122076E+02  0.25659389617E+02  0.35863381881E+02  0.14277685365E+03  0.12509000000E+03 0.  0.
<mgrwt>
<rscale>  2 0.45235954E+03</rscale>
<asrwt>0</asrwt>
<pdfrwt beam="1">  1       21 0.73880287E-01 0.45235954E+03</pdfrwt>
<pdfrwt beam="2">  1       21 0.14974803E-01 0.45235954E+03</pdfrwt>
<totfact> 0.59654286E+04</totfact>
</mgrwt>
</event>
<event>
 7    0  0.4732500E-002  0.4217644E+03  0.7546771E-02  0.1036494E+00
         21   -1    0    0  502  501  0.00000000000E+00  0.00000000000E+00  0.15099461095E+03  0.15099461095E+03  0.00000000000E+00 0.  1.
         21   -1    0    0  501  502 -0.00000000000E+00 -0.00000000000E+00 -0.29452237934E+03  0.29452237934E+03  0.00000000000E+00 0.  1.
      99926    2    1    2    0    0 -0.17763568394E-14  0.00000000000E+00 -0.14352776839E+03  0.44551699029E+03  0.42176435167E+03 0.  0.
      99925    2    3    3    0    0  0.15826479035E+02  0.75714192594E+02 -0.10211564704E+03  0.29272435862E+03  0.26320491705E+03 0.  0.
         25    1    4    4    0    0  0.15097945125E+02  0.76175067026E+02 -0.37531582639E+02  0.15194313600E+03  0.12509000000E+03 0.  0.
         25    1    3    3    0    0 -0.15826479035E+02 -0.75714192594E+02 -0.41412121348E+02  0.15279263167E+03  0.12509000000E+03 0.  0.
         25    1    4    4    0    0  0.72853390957E+00 -0.46087443183E+00 -0.64584064399E+02  0.14078122262E+03  0.12509000000E+03 0.  0.
<mgrwt>
<rscale>  2 0.42176435E+03</rscale>
<asrwt>0</asrwt>
<pdfrwt beam="1">  1       21 0.22205090E-01 0.42176435E+03</pdfrwt>
<pdfrwt beam="2">  1       21 0.43312114E-01 0.42176435E+03</pdfrwt>
<totfact> 0.91040742E+04</totfact>
</mgrwt>
</event>
<event>
 7    0  0.4732500E-002  0.4449813E+03  0.7546771E-02  0.1029229E+00
         21   -1    0    0  502  501  0.00000000000E+00  0.00000000000E+00  0.87763422685E+03  0.87763422685E+03  0.00000000000E+00 0. -1.
         21   -1    0    0  501  502 -0.00000000000E+00 -0.00000000000E+00 -0.56404006495E+02  0.56404006495E+02  0.00000000000E+00 0. -1.
      99926    2    1    2    0    0  0.00000000000E+00  0.00000000000E+00  0.82123022035E+03  0.93403823334E+03  0.44498128784E+03 0.  0.
      99925    2    3    3    0    0  0.50794254473E+02 -0.29951282508E+02  0.34492325474E+03  0.43806145042E+03  0.26353111214E+03 0.  0.
         25    1    4    4    0    0  0.24029329544E+02 -0.50312792039E+02  0.14169263710E+03  0.19706115099E+03  0.12509000000E+03 0.  0.
         25    1    3    3    0    0 -0.50794254473E+02  0.29951282508E+02  0.47630696561E+03  0.49597678293E+03  0.12509000000E+03 0.  0.
         25    1    4    4    0    0  0.26764924929E+02  0.20361509531E+02  0.20323061764E+03  0.24100029943E+03  0.12509000000E+03 0.  0.
<mgrwt>
<rscale>  2 0.44498129E+03</rscale>
<asrwt>0</asrwt>
<pdfrwt beam="1">  1       21 0.12906385E+00 0.44498129E+03</pdfrwt>
<pdfrwt beam="2">  1       21 0.82947073E-02 0.44498129E+03</pdfrwt>
<totfact> 0.45235881E+04</totfact>
</mgrwt>
</event>
<event>
 7    0  0.4732500E-002  0.4539380E+03  0.7546771E-02  0.1026554E+00
         21   -1    0    0  502  501  0.00000000000E+00  0.00000000000E+00  0.17209973658E+03  0.17209973658E+03  0.00000000000E+00 0. -1.
         21   -1    0    0  501  502 -0.00000000000E+00 -0.00000000000E+00 -0.29933176314E+03  0.29933176314E+03  0.00000000000E+00 0. -1.
      99926    2    1    2    0    0  0.00000000000E+00 -0.35527136788E-14 -0.12723202656E+03  0.47143149972E+03  0.45393795870E+03 0.  0.
      99925    2    3    3    0    0  0.10720564013E+03 -0.28746389639E+02 -0.63311236694E+02  0.29239859864E+03  0.26300042510E+03 0.  0.
         25    1    3    3    0    0 -0.10720564013E+03  0.28746389639E+02 -0.63920789869E+02  0.17903290108E+03  0.12509000000E+03 0.  0.
         25    1    4    4    0    0  0.91572099246E+02 -0.35637182334E+02 -0.39869045775E+02  0.16398935037E+03  0.12509000000E+03 0.  0.
         25    1    4    4    0    0  0.15633540883E+02  0.68907926954E+01 -0.23442190919E+02  0.12840924826E+03  0.12509000000E+03 0.  0.
<mgrwt>
<rscale>  2 0.45393796E+03</rscale>
<asrwt>0</asrwt>
<pdfrwt beam="1">  1       21 0.25308785E-01 0.45393796E+03</pdfrwt>
<pdfrwt beam="2">  1       21 0.44019376E-01 0.45393796E+03</pdfrwt>
<totfact> 0.67899753E+04</totfact>
</mgrwt>
</event>
<event>
 7    0  0.4732500E-002  0.4558073E+03  0.7546771E-02  0.1026004E+00
         21   -1    0    0  502  501  0.00000000000E+00  0.00000000000E+00  0.45620681305E+03  0.45620681305E+03  0.00000000000E+00 0.  1.
         21   -1    0    0  501  502 -0.00000000000E+00 -0.00000000000E+00 -0.11385205612E+03  0.11385205612E+03  0.00000000000E+00 0.  1.
      99926    2    1    2    0    0  0.00000000000E+00  0.00000000000E+00  0.34235475693E+03  0.57005886917E+03  0.45580734387E+03 0.  0.
      99925    2    3    3    0    0 -0.20249657908E+02 -0.11195438226E+03  0.22316996548E+03  0.36318607017E+03  0.26297424916E+03 0.  0.
         25    1    4    4    0    0 -0.16779891454E+02 -0.12788327351E+02  0.10001071127E+03  0.16153871531E+03  0.12509000000E+03 0.  0.
         25    1    3    3    0    0  0.20249657908E+02  0.11195438226E+03  0.11918479146E+03  0.20687279900E+03  0.12509000000E+03 0.  0.
         25    1    4    4    0    0 -0.34697664541E+01 -0.99166054911E+02  0.12315925420E+03  0.20164735486E+03  0.12509000000E+03 0.  0.
<mgrwt>
<rscale>  2 0.45580734E+03</rscale>
<asrwt>0</asrwt>
<pdfrwt beam="1">  1       21 0.67089237E-01 0.45580734E+03</pdfrwt>
<pdfrwt beam="2">  1       21 0.16742950E-01 0.45580734E+03</pdfrwt>
<totfact> 0.60175044E+04</totfact>
</mgrwt>
</event>
<event>
 7    0  0.4732500E-002  0.4175393E+03  0.7546771E-02  0.1037870E+00
         21   -1    0    0  502  501  0.00000000000E+00  0.00000000000E+00  0.27182352589E+03  0.27182352589E+03  0.00000000000E+00 0.  1.
         21   -1    0    0  501  502 -0.00000000000E+00 -0.00000000000E+00 -0.16034212675E+03  0.16034212675E+03  0.00000000000E+00 0.  1.
      99926    2    1    2    0    0 -0.35527136788E-14  0.14210854715E-13  0.11148139914E+03  0.43216565264E+03  0.41753927836E+03 0.  0.
      99925    2    3    3    0    0  0.31149120420E+02 -0.64461595209E+02  0.85574937387E+02  0.28572720885E+03  0.26304258782E+03 0.  0.
         25    1    3    3    0    0 -0.31149120420E+02  0.64461595209E+02  0.25906461753E+02  0.14643844379E+03  0.12509000000E+03 0.  0.
         25    1    4    4    0    0  0.53028192194E+02 -0.41763869860E+02  0.59637928716E+02  0.15414409050E+03  0.12509000000E+03 0.  0.
         25    1    4    4    0    0 -0.21879071774E+02 -0.22697725348E+02  0.25937008671E+02  0.13158311836E+03  0.12509000000E+03 0.  0.
<mgrwt>
<rscale>  2 0.41753928E+03</rscale>
<asrwt>0</asrwt>
<pdfrwt beam="1">  1       21 0.39974048E-01 0.41753928E+03</pdfrwt>
<pdfrwt beam="2">  1       21 0.23579725E-01 0.41753928E+03</pdfrwt>
<totfact> 0.95814790E+04</totfact>
</mgrwt>
</event>
<event>
 7    0  0.4732500E-002  0.4514974E+03  0.7546771E-02  0.1027276E+00
         21   -1    0    0  502  501  0.00000000000E+00  0.00000000000E+00  0.13692467077E+03  0.13692467077E+03  0.00000000000E+00 0. -1.
         21   -1    0    0  501  502 -0.00000000000E+00 -0.00000000000E+00 -0.37219346771E+03  0.37219346771E+03  0.00000000000E+00 0. -1.
      99926    2    1    2    0    0  0.00000000000E+00  0.00000000000E+00 -0.23526879694E+03  0.50911813849E+03  0.45149736669E+03 0.  0.
      99925    2    3    3    0    0 -0.81537343891E+02 -0.50029743382E+01 -0.65705330889E+02  0.28312556047E+03  0.26300099673E+03 0.  0.
         25    1    4    4    0    0 -0.71001951810E+02 -0.10733017165E+02 -0.63101486255E+02  0.15743500400E+03  0.12509000000E+03 0.  0.
         25    1    4    4    0    0 -0.10535392081E+02  0.57300428270E+01 -0.26038446341E+01  0.12569055646E+03  0.12509000000E+03 0.  0.
         25    1    3    3    0    0  0.81537343891E+02  0.50029743382E+01 -0.16956346605E+03  0.22599257802E+03  0.12509000000E+03 0.  0.
<mgrwt>
<rscale>  2 0.45149737E+03</rscale>
<asrwt>0</asrwt>
<pdfrwt beam="1">  1       21 0.20135981E-01 0.45149737E+03</pdfrwt>
<pdfrwt beam="2">  1       21 0.54734334E-01 0.45149737E+03</pdfrwt>
<totfact> 0.66463062E+04</totfact>
</mgrwt>
</event>
<event>
 7    0  0.4732500E-002  0.4570387E+03  0.7546771E-02  0.1025644E+00
         21   -1    0    0  502  501  0.00000000000E+00  0.00000000000E+00  0.92994695341E+03  0.92994695341E+03  0.00000000000E+00 0. -1.
         21   -1    0    0  501  502 -0.00000000000E+00 -0.00000000000E+00 -0.56154916462E+02  0.56154916462E+02  0.00000000000E+00 0. -1.
      99926    2    1    2    0    0  0.00000000000E+00  0.00000000000E+00  0.87379203695E+03  0.98610186987E+03  0.45703870069E+03 0.  0.
      99925    2    3    3    0    0  0.18485749806E+02  0.70369393274E+02  0.74090797621E+03  0.78963493587E+03  0.26322068363E+03 0.  0.
         25    1    4    4    0    0  0.18125155579E+02  0.27309807481E+02  0.25329829151E+03  0.28439739702E+03  0.12509000000E+03 0.  0.
         25    1    4    4    0    0  0.36059422693E+00  0.43059585793E+02  0.48760968470E+03  0.50523753885E+03  0.12509000000E+03 0.  0.
         25    1    3    3    0    0 -0.18485749806E+02 -0.70369393274E+02  0.13288406074E+03  0.19646693400E+03  0.12509000000E+03 0.  0.
<mgrwt>
<rscale>  2 0.45703870E+03</rscale>
<asrwt>0</asrwt>
<pdfrwt beam="1">  1       21 0.13675690E+00 0.45703870E+03</pdfrwt>
<pdfrwt beam="2">  1       21 0.82580765E-02 0.45703870E+03</pdfrwt>
<totfact> 0.39085474E+04</totfact>
</mgrwt>
</event>
<event>
 7    0  0.4732500E-002  0.4590083E+03  0.7546771E-02  0.1025069E+00
         21   -1    0    0  502  501  0.00000000000E+00  0.00000000000E+00  0.10327162117E+03  0.10327162117E+03  0.00000000000E+00 0. -1.
         21   -1    0    0  501  502 -0.00000000000E+00 -0.00000000000E+00 -0.51003514548E+03  0.51003514548E+03  0.00000000000E+00 0. -1.
      99926    2    1    2    0    0  0.00000000000E+00 -0.14210854715E-13 -0.40676352430E+03  0.61330676665E+03  0.45900830637E+03 0.  0.
      99925    2    3    3    0    0  0.11957587524E+02  0.11632852242E+03 -0.25559600887E+03  0.38488952814E+03  0.26293596196E+03 0.  0.
         25    1    4    4    0    0 -0.14612170192E+01  0.19801807561E+02 -0.13910779113E+03  0.18812956278E+03  0.12509000000E+03 0.  0.
         25    1    3    3    0    0 -0.11957587524E+02 -0.11632852242E+03 -0.15116751543E+03  0.22841723851E+03  0.12509000000E+03 0.  0.
         25    1    4    4    0    0  0.13418804544E+02  0.96526714855E+02 -0.11648821774E+03  0.19675996536E+03  0.12509000000E+03 0.  0.
<mgrwt>
<rscale>  2 0.45900831E+03</rscale>
<asrwt>0</asrwt>
<pdfrwt beam="1">  1       21 0.15187003E-01 0.45900831E+03</pdfrwt>
<pdfrwt beam="2">  1       21 0.75005168E-01 0.45900831E+03</pdfrwt>
<totfact> 0.56070269E+04</totfact>
</mgrwt>
</event>
<event>
 7    0  0.4732500E-002  0.4565354E+03  0.7546771E-02  0.1025791E+00
         21   -1    0    0  502  501  0.00000000000E+00  0.00000000000E+00  0.16403051173E+03  0.16403051173E+03  0.00000000000E+00 0. -1.
         21   -1    0    0  501  502 -0.00000000000E+00 -0.00000000000E+00 -0.31766126449E+03  0.31766126449E+03  0.00000000000E+00 0. -1.
      99926    2    1    2    0    0  0.00000000000E+00  0.00000000000E+00 -0.15363075276E+03  0.48169177621E+03  0.45653538645E+03 0.  0.
      99925    2    3    3    0    0  0.36413516604E+02 -0.54038182607E+02 -0.19601299661E+03  0.33441709385E+03  0.26299739247E+03 0.  0.
         25    1    3    3    0    0 -0.36413516604E+02  0.54038182607E+02  0.42382243853E+02  0.14727468236E+03  0.12509000000E+03 0.  0.
         25    1    4    4    0    0 -0.10659951943E+02  0.28632021176E+01 -0.95663974267E+02  0.15786366452E+03  0.12509000000E+03 0.  0.
         25    1    4    4    0    0  0.47073468547E+02 -0.56901384725E+02 -0.10034902234E+03  0.17655342934E+03  0.12509000000E+03 0.  0.
<mgrwt>
<rscale>  2 0.45653539E+03</rscale>
<asrwt>0</asrwt>
<pdfrwt beam="1">  1       21 0.24122134E-01 0.45653539E+03</pdfrwt>
<pdfrwt beam="2">  1       21 0.46714891E-01 0.45653539E+03</pdfrwt>
<totfact> 0.65771909E+04</totfact>
</mgrwt>
</event>
<event>
 7    0  0.4732500E-002  0.4611751E+03  0.7546771E-02  0.1024441E+00
         21   -1    0    0  502  501  0.00000000000E+00  0.00000000000E+00  0.15260277493E+03  0.15260277493E+03  0.00000000000E+00 0.  1.
         21   -1    0    0  501  502 -0.00000000000E+00 -0.00000000000E+00 -0.34842499598E+03  0.34842499598E+03  0.00000000000E+00 0.  1.
      99926    2    1    2    0    0  0.14210854715E-13  0.00000000000E+00 -0.19582222105E+03  0.50102777092E+03  0.46117511313E+03 0.  0.
      99925    2    3    3    0    0  0.10557510054E+03  0.19003674163E+02 -0.17779335050E+03  0.33525747877E+03  0.26321067627E+03 0.  0.
         25    1    4    4    0    0  0.69579950240E+02 -0.21142233912E+02 -0.65973585462E+02  0.15902322349E+03  0.12509000000E+03 0.  0.
         25    1    3    3    0    0 -0.10557510054E+03 -0.19003674163E+02 -0.18028870554E+02  0.16577029215E+03  0.12509000000E+03 0.  0.
         25    1    4    4    0    0  0.35995150302E+02  0.40145908075E+02 -0.11181976504E+03  0.17623425528E+03  0.12509000000E+03 0.  0.
<mgrwt>
<rscale>  2 0.46117511E+03</rscale>
<asrwt>0</asrwt>
<pdfrwt beam="1">  1       21 0.22441585E-01 0.46117511E+03</pdfrwt>
<pdfrwt beam="2">  1       21 0.51238969E-01 0.46117511E+03</pdfrwt>
<totfact> 0.62098182E+04</totfact>
</mgrwt>
</event>
<event>
 7    0  0.4732500E-002  0.4277040E+03  0.7546771E-02  0.1034588E+00
         21   -1    0    0  502  501  0.00000000000E+00  0.00000000000E+00  0.44714775119E+02  0.44714775119E+02  0.00000000000E+00 0. -1.
         21   -1    0    0  501  502 -0.00000000000E+00 -0.00000000000E+00 -0.10227644959E+04  0.10227644959E+04  0.00000000000E+00 0. -1.
      99926    2    1    2    0    0 -0.35527136788E-14  0.00000000000E+00 -0.97804972082E+03  0.10674792711E+04  0.42770403054E+03 0.  0.
      99925    2    3    3    0    0 -0.23879236249E+02  0.25586996993E+02 -0.82568954966E+03  0.86726428112E+03  0.26298134640E+03 0.  0.
         25    1    3    3    0    0  0.23879236249E+02 -0.25586996993E+02 -0.15236017117E+03  0.20021498994E+03  0.12509000000E+03 0.  0.
         25    1    4    4    0    0 -0.34510543968E+02 -0.89758718035E+01 -0.32871857296E+03  0.35351796592E+03  0.12509000000E+03 0.  0.
         25    1    4    4    0    0  0.10631307719E+02  0.34562868797E+02 -0.49697097669E+03  0.51374631520E+03  0.12509000000E+03 0.  0.
<mgrwt>
<rscale>  2 0.42770403E+03</rscale>
<asrwt>0</asrwt>
<pdfrwt beam="1">  1       21 0.65757026E-02 0.42770403E+03</pdfrwt>
<pdfrwt beam="2">  1       21 0.15040653E+00 0.42770403E+03</pdfrwt>
<totfact> 0.45610690E+04</totfact>
</mgrwt>
</event>
<event>
 7    0  0.4732500E-002  0.4508139E+03  0.7546771E-02  0.1027480E+00
         21   -1    0    0  502  501  0.00000000000E+00  0.00000000000E+00  0.20385514799E+03  0.20385514799E+03  0.00000000000E+00 0. -1.
         21   -1    0    0  501  502 -0.00000000000E+00 -0.00000000000E+00 -0.24923722731E+03  0.24923722731E+03  0.00000000000E+00 0. -1.
      99926    2    1    2    0    0 -0.35527136788E-14  0.88817841970E-15 -0.45382079317E+02  0.45309237531E+03  0.45081389446E+03 0.  0.
      99925    2    3    3    0    0 -0.23352643821E+02 -0.39188947303E+01 -0.13585985598E+03  0.29690518031E+03  0.26293360743E+03 0.  0.
         25    1    4    4    0    0  0.10708541324E+02 -0.10911289080E+02 -0.30394305442E+02  0.12963429712E+03  0.12509000000E+03 0.  0.
         25    1    4    4    0    0 -0.34061185145E+02  0.69923943500E+01 -0.10546555054E+03  0.16727088319E+03  0.12509000000E+03 0.  0.
         25    1    3    3    0    0  0.23352643821E+02  0.39188947303E+01  0.90477776668E+02  0.15618719499E+03  0.12509000000E+03 0.  0.
<mgrwt>
<rscale>  2 0.45081389E+03</rscale>
<asrwt>0</asrwt>
<pdfrwt beam="1">  1       21 0.29978698E-01 0.45081389E+03</pdfrwt>
<pdfrwt beam="2">  1       21 0.36652533E-01 0.45081389E+03</pdfrwt>
<totfact> 0.71028566E+04</totfact>
</mgrwt>
</event>
<event>
 7    0  0.4732500E-002  0.4561844E+03  0.7546771E-02  0.1025894E+00
         21   -1    0    0  502  501  0.00000000000E+00  0.00000000000E+00  0.56983254076E+02  0.56983254076E+02  0.00000000000E+00 0. -1.
         21   -1    0    0  501  502 -0.00000000000E+00 -0.00000000000E+00 -0.91300606000E+03  0.91300606000E+03  0.00000000000E+00 0. -1.
      99926    2    1    2    0    0  0.00000000000E+00  0.14210854715E-13 -0.85602280592E+03  0.96998931408E+03  0.45618442012E+03 0.  0.
      99925    2    3    3    0    0 -0.72636856139E+02  0.84498332261E+02 -0.59242153019E+03  0.65766060631E+03  0.26294129124E+03 0.  0.
         25    1    4    4    0    0 -0.31937697729E+01  0.27940993827E+02 -0.32120265179E+03  0.34584613763E+03  0.12509000000E+03 0.  0.
         25    1    4    4    0    0 -0.69443086367E+02  0.56557338435E+02 -0.27121887840E+03  0.31181446868E+03  0.12509000000E+03 0.  0.
         25    1    3    3    0    0  0.72636856139E+02 -0.84498332261E+02 -0.26360127573E+03  0.31232870776E+03  0.12509000000E+03 0.  0.
<mgrwt>
<rscale>  2 0.45618442E+03</rscale>
<asrwt>0</asrwt>
<pdfrwt beam="1">  1       21 0.83798907E-02 0.45618442E+03</pdfrwt>
<pdfrwt beam="2">  1       21 0.13426559E+00 0.45618442E+03</pdfrwt>
<totfact> 0.39970419E+04</totfact>
</mgrwt>
</event>
<event>
 7    0  0.4732500E-002  0.4251167E+03  0.7546771E-02  0.1035414E+00
         21   -1    0    0  502  501  0.00000000000E+00  0.00000000000E+00  0.45016593325E+03  0.45016593325E+03  0.00000000000E+00 0. -1.
         21   -1    0    0  501  502 -0.00000000000E+00 -0.00000000000E+00 -0.10036533528E+03  0.10036533528E+03  0.00000000000E+00 0. -1.
      99926    2    1    2    0    0  0.00000000000E+00  0.00000000000E+00  0.34980059797E+03  0.55053126853E+03  0.42511671255E+03 0.  0.
      99925    2    3    3    0    0  0.80979954295E+02  0.13472379716E+02  0.22479245498E+03  0.35555998366E+03  0.26296767130E+03 0.  0.
         25    1    3    3    0    0 -0.80979954295E+02 -0.13472379716E+02  0.12500814299E+03  0.19497128487E+03  0.12509000000E+03 0.  0.
         25    1    4    4    0    0  0.40807248582E+02  0.97721435273E+01  0.60465028387E+02  0.14513529579E+03  0.12509000000E+03 0.  0.
         25    1    4    4    0    0  0.40172705713E+02  0.37002361883E+01  0.16432742660E+03  0.21042468787E+03  0.12509000000E+03 0.  0.
<mgrwt>
<rscale>  2 0.42511671E+03</rscale>
<asrwt>0</asrwt>
<pdfrwt beam="1">  1       21 0.66200872E-01 0.42511671E+03</pdfrwt>
<pdfrwt beam="2">  1       21 0.14759608E-01 0.42511671E+03</pdfrwt>
<totfact> 0.78893997E+04</totfact>
</mgrwt>
</event>
<event>
 7    0  0.4732500E-002  0.4549699E+03  0.7546771E-02  0.1026250E+00
         21   -1    0    0  502  501  0.00000000000E+00  0.00000000000E+00  0.80081967402E+03  0.80081967402E+03  0.00000000000E+00 0.  1.
         21   -1    0    0  501  502 -0.00000000000E+00 -0.00000000000E+00 -0.64620551398E+02  0.64620551398E+02  0.00000000000E+00 0.  1.
      99926    2    1    2    0    0  0.17763568394E-14  0.00000000000E+00  0.73619912262E+03  0.86544022542E+03  0.45496992826E+03 0.  0.
      99925    2    3    3    0    0  0.15037818145E+02 -0.10406103251E+03  0.38419756351E+03  0.47735848122E+03  0.26307511727E+03 0.  0.
         25    1    4    4    0    0  0.37055663735E+02 -0.79457649685E+02  0.18621102704E+03  0.24084994291E+03  0.12509000000E+03 0.  0.
         25    1    3    3    0    0 -0.15037818145E+02  0.10406103251E+03  0.35200155911E+03  0.38808174420E+03  0.12509000000E+03 0.  0.
         25    1    4    4    0    0 -0.22017845591E+02 -0.24603382823E+02  0.19798653647E+03  0.23650853831E+03  0.12509000000E+03 0.  0.
<mgrwt>
<rscale>  2 0.45496993E+03</rscale>
<asrwt>0</asrwt>
<pdfrwt beam="1">  1       21 0.11776759E+00 0.45496993E+03</pdfrwt>
<pdfrwt beam="2">  1       21 0.95030227E-02 0.45496993E+03</pdfrwt>
<totfact> 0.44766854E+04</totfact>
</mgrwt>
</event>
<event>
 6    0  0.4732500E-002  0.4575016E+03  0.7546771E-02  0.1025508E+00
         21   -1    0    0  502  501  0.00000000000E+00  0.00000000000E+00  0.48187674837E+02  0.48187674837E+02  0.00000000000E+00 0. -1.
         21   -1    0    0  501  502 -0.00000000000E+00 -0.00000000000E+00 -0.10858983955E+04  0.10858983955E+04  0.00000000000E+00 0. -1.
      99926    2    1    2    0    0  0.00000000000E+00  0.00000000000E+00 -0.10377107207E+04  0.11340860704E+04  0.45750155755E+03 0.  0.
         25    1    3    3    0    0  0.31199801964E+02 -0.11829801792E+01 -0.31507589778E+03  0.34043377704E+03  0.12509000000E+03 0.  0.
         25    1    3    3    0    0 -0.59082537250E+02  0.77566183807E+02 -0.23351193040E+03  0.28228104580E+03  0.12509000000E+03 0.  0.
         25    1    3    3    0    0  0.27882735287E+02 -0.76383203627E+02 -0.48912289251E+03  0.51137124753E+03  0.12509000000E+03 0.  0.
<mgrwt>
<rscale>  2 0.45750156E+03</rscale>
<asrwt>0</asrwt>
<pdfrwt beam="1">  1       21 0.70864232E-02 0.45750156E+03</pdfrwt>
<pdfrwt beam="2">  1       21 0.15969093E+00 0.45750156E+03</pdfrwt>
<totfact> 0.33657065E+04</totfact>
</mgrwt>
</event>
<event>
 7    0  0.4732500E-002  0.4663005E+03  0.7546771E-02  0.1022970E+00
         21   -1    0    0  502  501  0.00000000000E+00  0.00000000000E+00  0.37192891104E+03  0.37192891104E+03  0.00000000000E+00 0. -1.
         21   -1    0    0  501  502 -0.00000000000E+00 -0.00000000000E+00 -0.14615440112E+03  0.14615440112E+03  0.00000000000E+00 0. -1.
      99926    2    1    2    0    0  0.00000000000E+00 -0.88817841970E-15  0.22577450993E+03  0.51808331216E+03  0.46630053507E+03 0.  0.
      99925    2    3    3    0    0  0.55380275603E+02 -0.52859566297E+01  0.18586922155E+02  0.26975063028E+03  0.26329643484E+03 0.  0.
         25    1    3    3    0    0 -0.55380275603E+02  0.52859566297E+01  0.20718758777E+03  0.24833268188E+03  0.12509000000E+03 0.  0.
         25    1    4    4    0    0  0.65454118818E+01 -0.31226663902E+02  0.29913565551E+02  0.13251519331E+03  0.12509000000E+03 0.  0.
         25    1    4    4    0    0  0.48834863721E+02  0.25940707273E+02 -0.11326643396E+02  0.13723543697E+03  0.12509000000E+03 0.  0.
<mgrwt>
<rscale>  2 0.46630054E+03</rscale>
<asrwt>0</asrwt>
<pdfrwt beam="1">  1       21 0.54695428E-01 0.46630054E+03</pdfrwt>
<pdfrwt beam="2">  1       21 0.21493294E-01 0.46630054E+03</pdfrwt>
<totfact> 0.58585190E+04</totfact>
</mgrwt>
</event>
<event>
 7    0  0.4732500E-002  0.4660104E+03  0.7546771E-02  0.1023052E+00
         21   -1    0    0  502  501  0.00000000000E+00  0.00000000000E+00  0.46048553309E+03  0.46048553309E+03  0.00000000000E+00 0. -1.
         21   -1    0    0  501  502 -0.00000000000E+00 -0.00000000000E+00 -0.11790037654E+03  0.11790037654E+03  0.00000000000E+00 0. -1.
      99926    2    1    2    0    0  0.00000000000E+00  0.00000000000E+00  0.34258515656E+03  0.57838590963E+03  0.46601037646E+03 0.  0.
      99925    2    3    3    0    0  0.97865934240E+02  0.59277666409E+02  0.15663184113E+03  0.32675577146E+03  0.26295288115E+03 0.  0.
         25    1    4    4    0    0  0.63528443690E+02  0.33907065048E+02  0.38254405664E+02  0.14931999153E+03  0.12509000000E+03 0.  0.
         25    1    4    4    0    0  0.34337490550E+02  0.25370601361E+02  0.11837743547E+03  0.17743577993E+03  0.12509000000E+03 0.  0.
         25    1    3    3    0    0 -0.97865934240E+02 -0.59277666409E+02  0.18595331543E+03  0.25163013817E+03  0.12509000000E+03 0.  0.
<mgrwt>
<rscale>  2 0.46601038E+03</rscale>
<asrwt>0</asrwt>
<pdfrwt beam="1">  1       21 0.67718460E-01 0.46601038E+03</pdfrwt>
<pdfrwt beam="2">  1       21 0.17338291E-01 0.46601038E+03</pdfrwt>
<totfact> 0.55075479E+04</totfact>
</mgrwt>
</event>
<event>
 7    0  0.4732500E-002  0.4376742E+03  0.7546771E-02  0.1031463E+00
         21   -1    0    0  502  501  0.00000000000E+00  0.00000000000E+00  0.16029819892E+03  0.16029819892E+03  0.00000000000E+00 0. -1.
         21   -1    0    0  501  502 -0.00000000000E+00 -0.00000000000E+00 -0.29875366336E+03  0.29875366336E+03  0.00000000000E+00 0. -1.
      99926    2    1    2    0    0  0.00000000000E+00  0.00000000000E+00 -0.13845546445E+03  0.45905186228E+03  0.43767419004E+03 0.  0.
      99925    2    3    3    0    0 -0.39596840832E+02 -0.49943147432E+02 -0.13231279258E+02  0.27092734916E+03  0.26299112912E+03 0.  0.
         25    1    4    4    0    0  0.20061996805E+01 -0.36858872927E+02  0.25531016675E+02  0.13289824026E+03  0.12509000000E+03 0.  0.
         25    1    4    4    0    0 -0.41603040512E+02 -0.13084274505E+02 -0.38762295933E+02  0.13802910891E+03  0.12509000000E+03 0.  0.
         25    1    3    3    0    0  0.39596840832E+02  0.49943147432E+02 -0.12522418519E+03  0.18812451312E+03  0.12509000000E+03 0.  0.
<mgrwt>
<rscale>  2 0.43767419E+03</rscale>
<asrwt>0</asrwt>
<pdfrwt beam="1">  1       21 0.23573265E-01 0.43767419E+03</pdfrwt>
<pdfrwt beam="2">  1       21 0.43934362E-01 0.43767419E+03</pdfrwt>
<totfact> 0.78507962E+04</totfact>
</mgrwt>
</event>
<event>
 7    0  0.4732500E-002  0.4635155E+03  0.7546771E-02  0.1023767E+00
         21   -1    0    0  502  501  0.00000000000E+00  0.00000000000E+00  0.43274339048E+03  0.43274339048E+03  0.00000000000E+00 0. -1.
         21   -1    0    0  501  502 -0.00000000000E+00 -0.00000000000E+00 -0.12411894286E+03  0.12411894286E+03  0.00000000000E+00 0. -1.
      99926    2    1    2    0    0  0.00000000000E+00 -0.71054273576E-14  0.30862444763E+03  0.55686233334E+03  0.46351548908E+03 0.  0.
      99925    2    3    3    0    0  0.87638199603E+02  0.40699867695E+02  0.10525954447E+03  0.29929345867E+03  0.26298302121E+03 0.  0.
         25    1    4    4    0    0  0.41648306424E+02  0.39963991990E+02  0.91330858322E+02  0.16528924909E+03  0.12509000000E+03 0.  0.
         25    1    3    3    0    0 -0.87638199603E+02 -0.40699867695E+02  0.20336490316E+03  0.25756887467E+03  0.12509000000E+03 0.  0.
         25    1    4    4    0    0  0.45989893178E+02  0.73587570575E+00  0.13928686143E+02  0.13400420958E+03  0.12509000000E+03 0.  0.
<mgrwt>
<rscale>  2 0.46351549E+03</rscale>
<asrwt>0</asrwt>
<pdfrwt beam="1">  1       21 0.63638733E-01 0.46351549E+03</pdfrwt>
<pdfrwt beam="2">  1       21 0.18252786E-01 0.46351549E+03</pdfrwt>
<totfact> 0.57446591E+04</totfact>
</mgrwt>
</event>
<event>
 7    0  0.4732500E-002  0.4616643E+03  0.7546771E-02  0.1024300E+00
         21   -1    0    0  502  501  0.00000000000E+00  0.00000000000E+00  0.73161274126E+03  0.73161274126E+03  0.00000000000E+00 0.  1.
         21   -1    0    0  501  502 -0.00000000000E+00 -0.00000000000E+00 -0.72830164689E+02  0.72830164689E+02  0.00000000000E+00 0.  1.
      99926    2    1    2    0    0  0.00000000000E+00  0.00000000000E+00  0.65878257658E+03  0.80444290595E+03  0.46166427817E+03 0.  0.
      99925    2    3    3    0    0 -0.87291780143E+02  0.76630010918E+02  0.36507486220E+03  0.46473164174E+03  0.26306620909E+03 0.  0.
         25    1    4    4    0    0 -0.65354569671E+02  0.70846854181E+02  0.23242996331E+03  0.28100123215E+03  0.12509000000E+03 0.  0.
         25    1    3    3    0    0  0.87291780143E+02 -0.76630010918E+02  0.29370771437E+03  0.33971126422E+03  0.12509000000E+03 0.  0.
         25    1    4    4    0    0 -0.21937210472E+02  0.57831567373E+01  0.13264489889E+03  0.18373040959E+03  0.12509000000E+03 0.  0.
<mgrwt>
<rscale>  2 0.46166428E+03</rscale>
<asrwt>0</asrwt>
<pdfrwt beam="1">  1       21 0.10759010E+00 0.46166428E+03</pdfrwt>
<pdfrwt beam="2">  1       21 0.10710319E-01 0.46166428E+03</pdfrwt>
<totfact> 0.45143057E+04</totfact>
</mgrwt>
</event>
<event>
 7    0  0.4732500E-002  0.4498388E+03  0.7546771E-02  0.1027770E+00
         21   -1    0    0  502  501  0.00000000000E+00  0.00000000000E+00  0.17555633676E+03  0.17555633676E+03  0.00000000000E+00 0. -1.
         21   -1    0    0  501  502 -0.00000000000E+00 -0.00000000000E+00 -0.28816245389E+03  0.28816245389E+03  0.00000000000E+00 0. -1.
      99926    2    1    2    0    0  0.14210854715E-13  0.00000000000E+00 -0.11260611713E+03  0.46371879064E+03  0.44983883689E+03 0.  0.
      99925    2    3    3    0    0 -0.78243795423E+02  0.41777092556E+02 -0.13506557478E+03  0.30873701003E+03  0.26307492257E+03 0.  0.
         25    1    4    4    0    0 -0.80253837538E+02  0.23507356032E+02 -0.84461152660E+02  0.17255279956E+03  0.12509000000E+03 0.  0.
         25    1    3    3    0    0  0.78243795423E+02 -0.41777092556E+02  0.22459457654E+02  0.15498178062E+03  0.12509000000E+03 0.  0.
         25    1    4    4    0    0  0.20100421148E+01  0.18269736524E+02 -0.50604422123E+02  0.13618421047E+03  0.12509000000E+03 0.  0.
<mgrwt>
<rscale>  2 0.44983884E+03</rscale>
<asrwt>0</asrwt>
<pdfrwt beam="1">  1       21 0.25817109E-01 0.44983884E+03</pdfrwt>
<pdfrwt beam="2">  1       21 0.42376830E-01 0.44983884E+03</pdfrwt>
<totfact> 0.70758651E+04</totfact>
</mgrwt>
</event>
<event>
 7    0  0.4732500E-002  0.4431262E+03  0.7546771E-02  0.1029792E+00
         21   -1    0    0  502  501  0.00000000000E+00  0.00000000000E+00  0.96380808500E+03  0.96380808500E+03  0.00000000000E+00 0.  1.
         21   -1    0    0  501  502 -0.00000000000E+00 -0.00000000000E+00 -0.50933601195E+02  0.50933601195E+02  0.00000000000E+00 0.  1.
      99926    2    1    2    0    0  0.14210854715E-13 -0.88817841970E-15  0.91287448381E+03  0.10147416862E+04  0.44312624219E+03 0.  0.
      99925    2    3    3    0    0 -0.79150372311E+02  0.43675821154E+01  0.43487823223E+03  0.51433007379E+03  0.26293058157E+03 0.  0.
         25    1    4    4    0    0 -0.32792623919E+02 -0.20190983555E+02  0.15182425985E+03  0.20045235339E+03  0.12509000000E+03 0.  0.
         25    1    3    3    0    0  0.79150372311E+02 -0.43675821154E+01  0.47799625157E+03  0.50041161240E+03  0.12509000000E+03 0.  0.
         25    1    4    4    0    0 -0.46357748392E+02  0.24558565670E+02  0.28305397239E+03  0.31387772041E+03  0.12509000000E+03 0.  0.
<mgrwt>
<rscale>  2 0.44312624E+03</rscale>
<asrwt>0</asrwt>
<pdfrwt beam="1">  1       21 0.14173647E+00 0.44312624E+03</pdfrwt>
<pdfrwt beam="2">  1       21 0.74902361E-02 0.44312624E+03</pdfrwt>
<totfact> 0.42394483E+04</totfact>
</mgrwt>
</event>
<event>
 7    0  0.4732500E-002  0.4536979E+03  0.7546771E-02  0.1026625E+00
         21   -1    0    0  502  501  0.00000000000E+00  0.00000000000E+00  0.52063132601E+03  0.52063132601E+03  0.00000000000E+00 0. -1.
         21   -1    0    0  501  502 -0.00000000000E+00 -0.00000000000E+00 -0.98842378313E+02  0.98842378313E+02  0.00000000000E+00 0. -1.
      99926    2    1    2    0    0  0.17763568394E-14  0.00000000000E+00  0.42178894770E+03  0.61947370433E+03  0.45369786637E+03 0.  0.
      99925    2    3    3    0    0 -0.13856522134E+02  0.51511582236E+02  0.40020657166E+03  0.48178291536E+03  0.26287645619E+03 0.  0.
         25    1    4    4    0    0 -0.38624708315E+02  0.29334520478E+02  0.15897729835E+03  0.20802324792E+03  0.12509000000E+03 0.  0.
         25    1    3    3    0    0  0.13856522134E+02 -0.51511582236E+02  0.21582376035E+02  0.13769078896E+03  0.12509000000E+03 0.  0.
         25    1    4    4    0    0  0.24768186181E+02  0.22177061757E+02  0.24122927331E+03  0.27375966744E+03  0.12509000000E+03 0.  0.
<mgrwt>
<rscale>  2 0.45369787E+03</rscale>
<asrwt>0</asrwt>
<pdfrwt beam="1">  1       21 0.76563429E-01 0.45369787E+03</pdfrwt>
<pdfrwt beam="2">  1       21 0.14535644E-01 0.45369787E+03</pdfrwt>
<totfact> 0.58090351E+04</totfact>
</mgrwt>
</event>
<event>
 7    0  0.4732500E-002  0.4540908E+03  0.7546771E-02  0.1026509E+00
         21   -1    0    0  502  501  0.00000000000E+00  0.00000000000E+00  0.21177283330E+03  0.21177283330E+03  0.00000000000E+00 0.  1.
         21   -1    0    0  501  502 -0.00000000000E+00 -0.00000000000E+00 -0.24341944225E+03  0.24341944225E+03  0.00000000000E+00 0.  1.
      99926    2    1    2    0    0  0.00000000000E+00  0.71054273576E-14 -0.31646608959E+02  0.45519227555E+03  0.45409084979E+03 0.  0.
      99925    2    3    3    0    0  0.71079826158E+02 -0.61620082398E+02  0.39757739022E+02  0.28315894956E+03  0.26410023980E+03 0.  0.
         25    1    4    4    0    0  0.45626249996E+02  0.10779205792E+02  0.17638813401E+02  0.13474636101E+03  0.12509000000E+03 0.  0.
         25    1    4    4    0    0  0.25453576162E+02 -0.72399288191E+02  0.22118925622E+02  0.14841258855E+03  0.12509000000E+03 0.  0.
         25    1    3    3    0    0 -0.71079826158E+02  0.61620082398E+02 -0.71404347981E+02  0.17203332599E+03  0.12509000000E+03 0.  0.
<mgrwt>
<rscale>  2 0.45409085E+03</rscale>
<asrwt>0</asrwt>
<pdfrwt beam="1">  1       21 0.31143064E-01 0.45409085E+03</pdfrwt>
<pdfrwt beam="2">  1       21 0.35796977E-01 0.45409085E+03</pdfrwt>
<totfact> 0.69031133E+04</totfact>
</mgrwt>
</event>
<event>
 7    0  0.4732500E-002  0.4531831E+03  0.7546771E-02  0.1026777E+00
         21   -1    0    0  502  501  0.00000000000E+00  0.00000000000E+00  0.95263414454E+02  0.95263414454E+02  0.00000000000E+00 0. -1.
         21   -1    0    0  501  502 -0.00000000000E+00 -0.00000000000E+00 -0.53896576667E+03  0.53896576667E+03  0.00000000000E+00 0. -1.
      99926    2    1    2    0    0  0.00000000000E+00 -0.71054273576E-14 -0.44370235222E+03  0.63422918113E+03  0.45318305002E+03 0.  0.
      99925    2    3    3    0    0  0.84562064401E+01 -0.47436386868E+02 -0.42016811897E+03  0.49812963498E+03  0.26319226209E+03 0.  0.
         25    1    4    4    0    0  0.28545264839E+01  0.27107272679E+01 -0.14402113395E+03  0.19080118314E+03  0.12509000000E+03 0.  0.
         25    1    4    4    0    0  0.56016799562E+01 -0.50147114136E+02 -0.27614698503E+03  0.30732845185E+03  0.12509000000E+03 0.  0.
         25    1    3    3    0    0 -0.84562064401E+01  0.47436386868E+02 -0.23534233248E+02  0.13609954615E+03  0.12509000000E+03 0.  0.
<mgrwt>
<rscale>  2 0.45318305E+03</rscale>
<asrwt>0</asrwt>
<pdfrwt beam="1">  1       21 0.14009326E-01 0.45318305E+03</pdfrwt>
<pdfrwt beam="2">  1       21 0.79259672E-01 0.45318305E+03</pdfrwt>
<totfact> 0.57438623E+04</totfact>
</mgrwt>
</event>
