<event>
 7    0  0.4752811E-002  0.4893284E+03  0.7546771E-02  0.1016602E+00
         21   -1    0    0  502  501  0.00000000000E+00  0.00000000000E+00  0.12651174486E+03  0.12651174486E+03  0.00000000000E+00 0.  1.
         21   -1    0    0  501  502 -0.00000000000E+00 -0.00000000000E+00 -0.47316224610E+03  0.47316224610E+03  0.00000000000E+00 0.  1.
      99926    2    1    2    0    0  0.00000000000E+00  0.00000000000E+00 -0.34665050124E+03  0.59967399097E+03  0.48932844331E+03 0.  0.
      99925    2    3    3    0    0  0.12174973244E+03 -0.57776601137E+02 -0.15373024239E+03  0.33316532814E+03  0.26306846154E+03 0.  0.
         25    1    4    4    0    0  0.46545870593E+02 -0.36276633950E+02 -0.11692727225E+03  0.18111324450E+03  0.12509000000E+03 0.  0.
         25    1    3    3    0    0 -0.12174973244E+03  0.57776601137E+02 -0.19292025885E+03  0.26650866283E+03  0.12509000000E+03 0.  0.
         25    1    4    4    0    0  0.75203861848E+02 -0.21499967187E+02 -0.36802970148E+02  0.15205208363E+03  0.12509000000E+03 0.  0.
<mgrwt>
<rscale>  2 0.48932844E+03</rscale>
<asrwt>0</asrwt>
<pdfrwt beam="1">  1       21 0.18604668E-01 0.48932844E+03</pdfrwt>
<pdfrwt beam="2">  1       21 0.69582683E-01 0.48932844E+03</pdfrwt>
<totfact> 0.45146192E+04</totfact>
</mgrwt>
</event>
<event>
 7    0  0.4752811E-002  0.4593654E+03  0.7546771E-02  0.1024965E+00
         21   -1    0    0  502  501  0.00000000000E+00  0.00000000000E+00  0.75647856322E+03  0.75647856322E+03  0.00000000000E+00 0. -1.
         21   -1    0    0  501  502 -0.00000000000E+00 -0.00000000000E+00 -0.69736469563E+02  0.69736469563E+02  0.00000000000E+00 0. -1.
      99926    2    1    2    0    0  0.00000000000E+00 -0.17763568394E-14  0.68674209366E+03  0.82621503278E+03  0.45936540705E+03 0.  0.
      99925    2    3    3    0    0 -0.10157897324E+03  0.13889966185E+02  0.53340349303E+03  0.60334409814E+03  0.26266631954E+03 0.  0.
         25    1    4    4    0    0 -0.94265885596E+01  0.11230934133E+02  0.21890488995E+03  0.25255069471E+03  0.12509000000E+03 0.  0.
         25    1    4    4    0    0 -0.92152384681E+02  0.26590320519E+01  0.31449860308E+03  0.35079340343E+03  0.12509000000E+03 0.  0.
         25    1    3    3    0    0  0.10157897324E+03 -0.13889966185E+02  0.15333860063E+03  0.22287093464E+03  0.12509000000E+03 0.  0.
<mgrwt>
<rscale>  2 0.45936541E+03</rscale>
<asrwt>0</asrwt>
<pdfrwt beam="1">  1       21 0.11124684E+00 0.45936541E+03</pdfrwt>
<pdfrwt beam="2">  1       21 0.10255364E-01 0.45936541E+03</pdfrwt>
<totfact> 0.44962838E+04</totfact>
</mgrwt>
</event>
<event>
 7    0  0.4752811E-002  0.4565969E+03  0.7546771E-02  0.1025773E+00
         21   -1    0    0  502  501  0.00000000000E+00  0.00000000000E+00  0.27287475805E+03  0.27287475805E+03  0.00000000000E+00 0.  1.
         21   -1    0    0  501  502 -0.00000000000E+00 -0.00000000000E+00 -0.19100402618E+03  0.19100402618E+03  0.00000000000E+00 0.  1.
      99926    2    1    2    0    0  0.44408920985E-15  0.00000000000E+00  0.81870731872E+02  0.46387878423E+03  0.45659687879E+03 0.  0.
      99925    2    3    3    0    0  0.12899679798E+01 -0.44762030753E+02 -0.57340735287E+02  0.27144010801E+03  0.26150806661E+03 0.  0.
         25    1    4    4    0    0  0.47683495630E+01 -0.59079121464E+02 -0.18623007286E+02  0.13966890939E+03  0.12509000000E+03 0.  0.
         25    1    3    3    0    0 -0.12899679798E+01  0.44762030753E+02  0.13921146716E+03  0.19243867621E+03  0.12509000000E+03 0.  0.
         25    1    4    4    0    0 -0.34783815832E+01  0.14317090711E+02 -0.38717728001E+02  0.13177119862E+03  0.12509000000E+03 0.  0.
<mgrwt>
<rscale>  2 0.45659688E+03</rscale>
<asrwt>0</asrwt>
<pdfrwt beam="1">  1       21 0.40128641E-01 0.45659688E+03</pdfrwt>
<pdfrwt beam="2">  1       21 0.28088827E-01 0.45659688E+03</pdfrwt>
<totfact> 0.67038390E+04</totfact>
</mgrwt>
</event>
<event>
 7    0  0.4752811E-002  0.4562377E+03  0.7546771E-02  0.1025878E+00
         21   -1    0    0  502  501  0.00000000000E+00  0.00000000000E+00  0.23045642903E+04  0.23045642903E+04  0.00000000000E+00 0.  1.
         21   -1    0    0  501  502 -0.00000000000E+00 -0.00000000000E+00 -0.22580501131E+02  0.22580501131E+02  0.00000000000E+00 0.  1.
      99926    2    1    2    0    0  0.00000000000E+00 -0.35527136788E-14  0.22819837892E+04  0.23271447914E+04  0.45623772998E+03 0.  0.
      99925    2    3    3    0    0  0.10152555390E+03  0.23595764894E+02  0.16769075304E+04  0.17005436542E+04  0.26261312979E+03 0.  0.
         25    1    4    4    0    0  0.77665368441E+02 -0.68130994126E+01  0.74045762119E+03  0.75498564533E+03  0.12509000000E+03 0.  0.
         25    1    4    4    0    0  0.23860185463E+02  0.30408864307E+02  0.93644990925E+03  0.94555800886E+03  0.12509000000E+03 0.  0.
         25    1    3    3    0    0 -0.10152555390E+03 -0.23595764894E+02  0.60507625872E+03  0.62660113723E+03  0.12509000000E+03 0.  0.
<mgrwt>
<rscale>  2 0.45623773E+03</rscale>
<asrwt>0</asrwt>
<pdfrwt beam="1">  1       21 0.33890635E+00 0.45623773E+03</pdfrwt>
<pdfrwt beam="2">  1       21 0.33206635E-02 0.45623773E+03</pdfrwt>
<totfact> 0.89796566E+03</totfact>
</mgrwt>
</event>
<event>
 7    0  0.4752811E-002  0.4817386E+03  0.7546771E-02  0.1018658E+00
         21   -1    0    0  502  501  0.00000000000E+00  0.00000000000E+00  0.10206754633E+04  0.10206754633E+04  0.00000000000E+00 0.  1.
         21   -1    0    0  501  502 -0.00000000000E+00 -0.00000000000E+00 -0.56842779878E+02  0.56842779878E+02  0.00000000000E+00 0.  1.
      99926    2    1    2    0    0  0.71054273576E-14 -0.14210854715E-13  0.96383268347E+03  0.10775182432E+04  0.48173864570E+03 0.  0.
      99925    2    3    3    0    0  0.54727652636E+02 -0.49476999209E+02  0.85053657234E+03  0.89332647818E+03  0.26301453632E+03 0.  0.
         25    1    4    4    0    0  0.37678340140E+02 -0.13192386654E+02  0.30252536395E+03  0.32979205618E+03  0.12509000000E+03 0.  0.
         25    1    3    3    0    0 -0.54727652636E+02  0.49476999209E+02  0.11329611113E+03  0.18419176505E+03  0.12509000000E+03 0.  0.
         25    1    4    4    0    0  0.17049312496E+02 -0.36284612556E+02  0.54801120839E+03  0.56353442200E+03  0.12509000000E+03 0.  0.
<mgrwt>
<rscale>  2 0.48173865E+03</rscale>
<asrwt>0</asrwt>
<pdfrwt beam="1">  1       21 0.15009932E+00 0.48173865E+03</pdfrwt>
<pdfrwt beam="2">  1       21 0.83592330E-02 0.48173865E+03</pdfrwt>
<totfact> 0.29606577E+04</totfact>
</mgrwt>
</event>
<event>
 7    0  0.4752811E-002  0.4602957E+03  0.7546771E-02  0.1024695E+00
         21   -1    0    0  502  501  0.00000000000E+00  0.00000000000E+00  0.10696807435E+03  0.10696807435E+03  0.00000000000E+00 0.  1.
         21   -1    0    0  501  502 -0.00000000000E+00 -0.00000000000E+00 -0.49517610043E+03  0.49517610043E+03  0.00000000000E+00 0.  1.
      99926    2    1    2    0    0  0.00000000000E+00  0.00000000000E+00 -0.38820802608E+03  0.60214417478E+03  0.46029570464E+03 0.  0.
      99925    2    3    3    0    0 -0.59597987499E+02 -0.84228458117E+02 -0.31813339735E+03  0.42549674354E+03  0.26304423010E+03 0.  0.
         25    1    4    4    0    0 -0.17661713575E+02 -0.38229613887E+02 -0.96519708890E+02  0.16351453088E+03  0.12509000000E+03 0.  0.
         25    1    4    4    0    0 -0.41936273924E+02 -0.45998844230E+02 -0.22161368846E+03  0.26198221267E+03  0.12509000000E+03 0.  0.
         25    1    3    3    0    0  0.59597987499E+02  0.84228458117E+02 -0.70074628730E+02  0.17664743124E+03  0.12509000000E+03 0.  0.
<mgrwt>
<rscale>  2 0.46029570E+03</rscale>
<asrwt>0</asrwt>
<pdfrwt beam="1">  1       21 0.15730599E-01 0.46029570E+03</pdfrwt>
<pdfrwt beam="2">  1       21 0.72820015E-01 0.46029570E+03</pdfrwt>
<totfact> 0.56159551E+04</totfact>
</mgrwt>
</event>
<event>
 7    0  0.4752811E-002  0.4563026E+03  0.7546771E-02  0.1025859E+00
         21   -1    0    0  502  501  0.00000000000E+00  0.00000000000E+00  0.17884346601E+03  0.17884346601E+03  0.00000000000E+00 0.  1.
         21   -1    0    0  501  502 -0.00000000000E+00 -0.00000000000E+00 -0.29105347683E+03  0.29105347683E+03  0.00000000000E+00 0.  1.
      99926    2    1    2    0    0 -0.71054273576E-14  0.00000000000E+00 -0.11221001082E+03  0.46989694284E+03  0.45630258641E+03 0.  0.
      99925    2    3    3    0    0 -0.49494484458E+02  0.34038155202E+02 -0.17063757319E+03  0.31933271021E+03  0.26314995426E+03 0.  0.
         25    1    4    4    0    0 -0.57304899807E+02  0.42138125084E+02 -0.82163788916E+02  0.16570416240E+03  0.12509000000E+03 0.  0.
         25    1    3    3    0    0  0.49494484458E+02 -0.34038155202E+02  0.58427562368E+02  0.15056423262E+03  0.12509000000E+03 0.  0.
         25    1    4    4    0    0  0.78104153488E+01 -0.80999698820E+01 -0.88473784273E+02  0.15362854781E+03  0.12509000000E+03 0.  0.
<mgrwt>
<rscale>  2 0.45630259E+03</rscale>
<asrwt>0</asrwt>
<pdfrwt beam="1">  1       21 0.26300510E-01 0.45630259E+03</pdfrwt>
<pdfrwt beam="2">  1       21 0.42801982E-01 0.45630259E+03</pdfrwt>
<totfact> 0.66751022E+04</totfact>
</mgrwt>
</event>
<event>
 7    0  0.4752811E-002  0.4560885E+03  0.7546771E-02  0.1025922E+00
         21   -1    0    0  502  501  0.00000000000E+00  0.00000000000E+00  0.42661094854E+03  0.42661094854E+03  0.00000000000E+00 0.  1.
         21   -1    0    0  501  502 -0.00000000000E+00 -0.00000000000E+00 -0.12190074116E+03  0.12190074116E+03  0.00000000000E+00 0.  1.
      99926    2    1    2    0    0  0.00000000000E+00  0.00000000000E+00  0.30471020739E+03  0.54851168970E+03  0.45608854760E+03 0.  0.
      99925    2    3    3    0    0 -0.81755295789E+02 -0.70110507173E+02  0.23729216627E+03  0.37020826300E+03  0.26295850284E+03 0.  0.
         25    1    4    4    0    0 -0.71493032889E+02 -0.64007739051E+02  0.11780289395E+03  0.19680770903E+03  0.12509000000E+03 0.  0.
         25    1    3    3    0    0  0.81755295789E+02  0.70110507173E+02  0.67418041120E+02  0.17830342670E+03  0.12509000000E+03 0.  0.
         25    1    4    4    0    0 -0.10262262900E+02 -0.61027681220E+01  0.11948927231E+03  0.17340055397E+03  0.12509000000E+03 0.  0.
<mgrwt>
<rscale>  2 0.45608855E+03</rscale>
<asrwt>0</asrwt>
<pdfrwt beam="1">  1       21 0.62736904E-01 0.45608855E+03</pdfrwt>
<pdfrwt beam="2">  1       21 0.17926580E-01 0.45608855E+03</pdfrwt>
<totfact> 0.61434134E+04</totfact>
</mgrwt>
</event>
<event>
 7    0  0.4752811E-002  0.4431346E+03  0.7546771E-02  0.1029789E+00
         21   -1    0    0  502  501  0.00000000000E+00  0.00000000000E+00  0.55379941539E+03  0.55379941539E+03  0.00000000000E+00 0. -1.
         21   -1    0    0  501  502 -0.00000000000E+00 -0.00000000000E+00 -0.88645920620E+02  0.88645920620E+02  0.00000000000E+00 0. -1.
      99926    2    1    2    0    0  0.17763568394E-14  0.00000000000E+00  0.46515349477E+03  0.64244533601E+03  0.44313455752E+03 0.  0.
      99925    2    3    3    0    0  0.11348185706E+02  0.73167024399E+02  0.19492262000E+03  0.33559939982E+03  0.26296375148E+03 0.  0.
         25    1    4    4    0    0  0.33447133686E+02  0.56552410649E+02  0.12990125558E+03  0.19193418196E+03  0.12509000000E+03 0.  0.
         25    1    3    3    0    0 -0.11348185706E+02 -0.73167024399E+02  0.27023087477E+03  0.30684593619E+03  0.12509000000E+03 0.  0.
         25    1    4    4    0    0 -0.22098947979E+02  0.16614613750E+02  0.65021364416E+02  0.14366521786E+03  0.12509000000E+03 0.  0.
<mgrwt>
<rscale>  2 0.44313456E+03</rscale>
<asrwt>0</asrwt>
<pdfrwt beam="1">  1       21 0.81441088E-01 0.44313456E+03</pdfrwt>
<pdfrwt beam="2">  1       21 0.13036165E-01 0.44313456E+03</pdfrwt>
<totfact> 0.61716985E+04</totfact>
</mgrwt>
</event>
<event>
 7    0  0.4752811E-002  0.4522083E+03  0.7546771E-02  0.1027066E+00
         21   -1    0    0  502  501  0.00000000000E+00  0.00000000000E+00  0.13629116540E+03  0.13629116540E+03  0.00000000000E+00 0.  1.
         21   -1    0    0  501  502 -0.00000000000E+00 -0.00000000000E+00 -0.37510194206E+03  0.37510194206E+03  0.00000000000E+00 0.  1.
      99926    2    1    2    0    0  0.00000000000E+00  0.71054273576E-14 -0.23881077666E+03  0.51139310746E+03  0.45220827426E+03 0.  0.
      99925    2    3    3    0    0  0.94127531524E+02 -0.54192535877E+02 -0.17379346513E+03  0.33342799280E+03  0.26300805069E+03 0.  0.
         25    1    4    4    0    0  0.60669571787E+02 -0.66650434636E+02 -0.10174580682E+03  0.18472356288E+03  0.12509000000E+03 0.  0.
         25    1    3    3    0    0 -0.94127531524E+02  0.54192535877E+02 -0.65017311539E+02  0.17796511466E+03  0.12509000000E+03 0.  0.
         25    1    4    4    0    0  0.33457959737E+02  0.12457898759E+02 -0.72047658311E+02  0.14870442992E+03  0.12509000000E+03 0.  0.
<mgrwt>
<rscale>  2 0.45220827E+03</rscale>
<asrwt>0</asrwt>
<pdfrwt beam="1">  1       21 0.20042818E-01 0.45220827E+03</pdfrwt>
<pdfrwt beam="2">  1       21 0.55162051E-01 0.45220827E+03</pdfrwt>
<totfact> 0.65925904E+04</totfact>
</mgrwt>
</event>
<event>
 7    0  0.4752811E-002  0.4540246E+03  0.7546771E-02  0.1026529E+00
         21   -1    0    0  502  501  0.00000000000E+00  0.00000000000E+00  0.17742341201E+03  0.17742341201E+03  0.00000000000E+00 0.  1.
         21   -1    0    0  501  502 -0.00000000000E+00 -0.00000000000E+00 -0.29046101113E+03  0.29046101113E+03  0.00000000000E+00 0.  1.
      99926    2    1    2    0    0 -0.88817841970E-15  0.00000000000E+00 -0.11303759913E+03  0.46788442314E+03  0.45402459691E+03 0.  0.
      99925    2    3    3    0    0 -0.26914556263E+01  0.87120770891E+02  0.15766884662E+01  0.27714581752E+03  0.26307802182E+03 0.  0.
         25    1    4    4    0    0 -0.30302624119E+02  0.40292723778E+02  0.29181396509E+02  0.13798845829E+03  0.12509000000E+03 0.  0.
         25    1    4    4    0    0  0.27611168493E+02  0.46828047113E+02 -0.27604708043E+02  0.13915735923E+03  0.12509000000E+03 0.  0.
         25    1    3    3    0    0  0.26914556263E+01 -0.87120770891E+02 -0.11461428759E+03  0.19073860562E+03  0.12509000000E+03 0.  0.
<mgrwt>
<rscale>  2 0.45402460E+03</rscale>
<asrwt>0</asrwt>
<pdfrwt beam="1">  1       21 0.26091678E-01 0.45402460E+03</pdfrwt>
<pdfrwt beam="2">  1       21 0.42714854E-01 0.45402460E+03</pdfrwt>
<totfact> 0.68118989E+04</totfact>
</mgrwt>
</event>
<event>
 7    0  0.4752811E-002  0.4725494E+03  0.7546771E-02  0.1021203E+00
         21   -1    0    0  502  501  0.00000000000E+00  0.00000000000E+00  0.26278118416E+03  0.26278118416E+03  0.00000000000E+00 0. -1.
         21   -1    0    0  501  502 -0.00000000000E+00 -0.00000000000E+00 -0.21244190588E+03  0.21244190588E+03  0.00000000000E+00 0. -1.
      99926    2    1    2    0    0  0.00000000000E+00  0.26645352591E-14  0.50339278281E+02  0.47522309004E+03  0.47254940733E+03 0.  0.
      99925    2    3    3    0    0 -0.12789676712E+03  0.61699059717E+01  0.46217220873E+02  0.29616960575E+03  0.26302994712E+03 0.  0.
         25    1    4    4    0    0 -0.55463110577E+02 -0.13189252203E+02  0.59365586555E+02  0.14973942025E+03  0.12509000000E+03 0.  0.
         25    1    4    4    0    0 -0.72433656545E+02  0.19359158175E+02 -0.13148365681E+02  0.14643018550E+03  0.12509000000E+03 0.  0.
         25    1    3    3    0    0  0.12789676712E+03 -0.61699059717E+01  0.41220574078E+01  0.17905348429E+03  0.12509000000E+03 0.  0.
<mgrwt>
<rscale>  2 0.47254941E+03</rscale>
<asrwt>0</asrwt>
<pdfrwt beam="1">  1       21 0.38644292E-01 0.47254941E+03</pdfrwt>
<pdfrwt beam="2">  1       21 0.31241457E-01 0.47254941E+03</pdfrwt>
<totfact> 0.58463926E+04</totfact>
</mgrwt>
</event>
<event>
 7    0  0.4752811E-002  0.4544099E+03  0.7546771E-02  0.1026415E+00
         21   -1    0    0  502  501  0.00000000000E+00  0.00000000000E+00  0.13449404292E+03  0.13449404292E+03  0.00000000000E+00 0. -1.
         21   -1    0    0  501  502 -0.00000000000E+00 -0.00000000000E+00 -0.38382441674E+03  0.38382441674E+03  0.00000000000E+00 0. -1.
      99926    2    1    2    0    0  0.00000000000E+00  0.00000000000E+00 -0.24933037382E+03  0.51831845966E+03  0.45440993642E+03 0.  0.
      99925    2    3    3    0    0 -0.35207757737E+02  0.37794282989E+02 -0.43374817672E+02  0.27187740537E+03  0.26337796930E+03 0.  0.
         25    1    4    4    0    0 -0.35025632088E+02 -0.17578448980E+02 -0.12835322879E+02  0.13171199788E+03  0.12509000000E+03 0.  0.
         25    1    3    3    0    0  0.35207757737E+02 -0.37794282989E+02 -0.20595555615E+03  0.24644105429E+03  0.12509000000E+03 0.  0.
         25    1    4    4    0    0 -0.18212564938E+00  0.55372731969E+02 -0.30539494793E+02  0.14016540749E+03  0.12509000000E+03 0.  0.
<mgrwt>
<rscale>  2 0.45440994E+03</rscale>
<asrwt>0</asrwt>
<pdfrwt beam="1">  1       21 0.19778536E-01 0.45440994E+03</pdfrwt>
<pdfrwt beam="2">  1       21 0.56444767E-01 0.45440994E+03</pdfrwt>
<totfact> 0.64302497E+04</totfact>
</mgrwt>
</event>
<event>
 7    0  0.4752811E-002  0.4527687E+03  0.7546771E-02  0.1026900E+00
         21   -1    0    0  502  501  0.00000000000E+00  0.00000000000E+00  0.17309110675E+03  0.17309110675E+03  0.00000000000E+00 0.  1.
         21   -1    0    0  501  502 -0.00000000000E+00 -0.00000000000E+00 -0.29608608179E+03  0.29608608179E+03  0.00000000000E+00 0.  1.
      99926    2    1    2    0    0  0.14210854715E-13  0.71054273576E-14 -0.12299497504E+03  0.46917718855E+03  0.45276867202E+03 0.  0.
      99925    2    3    3    0    0  0.64048040797E+02  0.48445153764E+02  0.20051605374E+01  0.27495662720E+03  0.26296015234E+03 0.  0.
         25    1    4    4    0    0  0.70018408844E+02  0.10916928106E+02  0.88744921342E+01  0.14404173564E+03  0.12509000000E+03 0.  0.
         25    1    4    4    0    0 -0.59703680473E+01  0.37528225658E+02 -0.68693315968E+01  0.13091489156E+03  0.12509000000E+03 0.  0.
         25    1    3    3    0    0 -0.64048040797E+02 -0.48445153764E+02 -0.12500013558E+03  0.19422056134E+03  0.12509000000E+03 0.  0.
<mgrwt>
<rscale>  2 0.45276867E+03</rscale>
<asrwt>0</asrwt>
<pdfrwt beam="1">  1       21 0.25454575E-01 0.45276867E+03</pdfrwt>
<pdfrwt beam="2">  1       21 0.43542070E-01 0.45276867E+03</pdfrwt>
<totfact> 0.68705128E+04</totfact>
</mgrwt>
</event>
<event>
 7    0  0.4752811E-002  0.4154785E+03  0.7546771E-02  0.1038548E+00
         21   -1    0    0  502  501  0.00000000000E+00  0.00000000000E+00  0.83033468315E+02  0.83033468315E+02  0.00000000000E+00 0. -1.
         21   -1    0    0  501  502 -0.00000000000E+00 -0.00000000000E+00 -0.51973732575E+03  0.51973732575E+03  0.00000000000E+00 0. -1.
      99926    2    1    2    0    0  0.35527136788E-14  0.00000000000E+00 -0.43670385743E+03  0.60277079406E+03  0.41547848449E+03 0.  0.
      99925    2    3    3    0    0 -0.22002994008E+02 -0.32564074664E+02 -0.37196083723E+03  0.45653906881E+03  0.26177949923E+03 0.  0.
         25    1    4    4    0    0 -0.43557533761E+02 -0.32042557915E+02 -0.16824498188E+03  0.21651297027E+03  0.12509000000E+03 0.  0.
         25    1    4    4    0    0  0.21554539752E+02 -0.52151674850E+00 -0.20371585535E+03  0.24002609855E+03  0.12509000000E+03 0.  0.
         25    1    3    3    0    0  0.22002994008E+02  0.32564074664E+02 -0.64743020202E+02  0.14623172525E+03  0.12509000000E+03 0.  0.
<mgrwt>
<rscale>  2 0.41547848E+03</rscale>
<asrwt>0</asrwt>
<pdfrwt beam="1">  1       21 0.12210805E-01 0.41547848E+03</pdfrwt>
<pdfrwt beam="2">  1       21 0.76431957E-01 0.41547848E+03</pdfrwt>
<totfact> 0.80973755E+04</totfact>
</mgrwt>
</event>
<event>
 7    0  0.4752811E-002  0.4514374E+03  0.7546771E-02  0.1027294E+00
         21   -1    0    0  502  501  0.00000000000E+00  0.00000000000E+00  0.53825452936E+03  0.53825452936E+03  0.00000000000E+00 0.  1.
         21   -1    0    0  501  502 -0.00000000000E+00 -0.00000000000E+00 -0.94655828614E+02  0.94655828614E+02  0.00000000000E+00 0.  1.
      99926    2    1    2    0    0  0.00000000000E+00  0.00000000000E+00  0.44359870074E+03  0.63291035797E+03  0.45143738650E+03 0.  0.
      99925    2    3    3    0    0  0.99184754614E+02 -0.46295468479E+02  0.26737225673E+03  0.39066223390E+03  0.26296039887E+03 0.  0.
         25    1    4    4    0    0  0.22193376819E+02 -0.47374050532E+02  0.10338605234E+03  0.17050815393E+03  0.12509000000E+03 0.  0.
         25    1    4    4    0    0  0.76991377794E+02  0.10785820529E+01  0.16398620440E+03  0.22015407997E+03  0.12509000000E+03 0.  0.
         25    1    3    3    0    0 -0.99184754614E+02  0.46295468479E+02  0.17622644401E+03  0.24224812407E+03  0.12509000000E+03 0.  0.
<mgrwt>
<rscale>  2 0.45143739E+03</rscale>
<asrwt>0</asrwt>
<pdfrwt beam="1">  1       21 0.79155077E-01 0.45143739E+03</pdfrwt>
<pdfrwt beam="2">  1       21 0.13919975E-01 0.45143739E+03</pdfrwt>
<totfact> 0.58319662E+04</totfact>
</mgrwt>
</event>
<event>
 7    0  0.4752811E-002  0.4535348E+03  0.7546771E-02  0.1026673E+00
         21   -1    0    0  502  501  0.00000000000E+00  0.00000000000E+00  0.21968557125E+03  0.21968557125E+03  0.00000000000E+00 0.  1.
         21   -1    0    0  501  502 -0.00000000000E+00 -0.00000000000E+00 -0.23407756151E+03  0.23407756151E+03  0.00000000000E+00 0.  1.
      99926    2    1    2    0    0 -0.88817841970E-15  0.00000000000E+00 -0.14391990257E+02  0.45376313276E+03  0.45353484019E+03 0.  0.
      99925    2    3    3    0    0 -0.59928112393E+01 -0.84398474617E+01 -0.12043368655E+03  0.28944790442E+03  0.26299937586E+03 0.  0.
         25    1    4    4    0    0  0.10669749116E+02 -0.40457695285E+02 -0.47343601783E+02  0.14014133360E+03  0.12509000000E+03 0.  0.
         25    1    3    3    0    0  0.59928112393E+01  0.84398474617E+01  0.10604169629E+03  0.16431522834E+03  0.12509000000E+03 0.  0.
         25    1    4    4    0    0 -0.16662560355E+02  0.32017847823E+02 -0.73090084768E+02  0.14930657081E+03  0.12509000000E+03 0.  0.
<mgrwt>
<rscale>  2 0.45353484E+03</rscale>
<asrwt>0</asrwt>
<pdfrwt beam="1">  1       21 0.32306702E-01 0.45353484E+03</pdfrwt>
<pdfrwt beam="2">  1       21 0.34423171E-01 0.45353484E+03</pdfrwt>
<totfact> 0.69444804E+04</totfact>
</mgrwt>
</event>
<event>
 7    0  0.4752811E-002  0.4566289E+03  0.7546771E-02  0.1025763E+00
         21   -1    0    0  502  501  0.00000000000E+00  0.00000000000E+00  0.35157408108E+03  0.35157408108E+03  0.00000000000E+00 0.  1.
         21   -1    0    0  501  502 -0.00000000000E+00 -0.00000000000E+00 -0.14826885936E+03  0.14826885936E+03  0.00000000000E+00 0.  1.
      99926    2    1    2    0    0  0.00000000000E+00  0.00000000000E+00  0.20330522171E+03  0.49984294044E+03  0.45662889958E+03 0.  0.
      99925    2    3    3    0    0  0.65881854593E+02 -0.39189821693E+02  0.34464325110E+02  0.27616679653E+03  0.26306662447E+03 0.  0.
         25    1    4    4    0    0  0.22746093263E+01 -0.16376730963E+02  0.44106833883E+02  0.13366484975E+03  0.12509000000E+03 0.  0.
         25    1    4    4    0    0  0.63607245267E+02 -0.22813090730E+02 -0.96425087731E+01  0.14250194677E+03  0.12509000000E+03 0.  0.
         25    1    3    3    0    0 -0.65881854593E+02  0.39189821693E+02  0.16884089660E+03  0.22367614391E+03  0.12509000000E+03 0.  0.
<mgrwt>
<rscale>  2 0.45662890E+03</rscale>
<asrwt>0</asrwt>
<pdfrwt beam="1">  1       21 0.51702071E-01 0.45662890E+03</pdfrwt>
<pdfrwt beam="2">  1       21 0.21804244E-01 0.45662890E+03</pdfrwt>
<totfact> 0.64444358E+04</totfact>
</mgrwt>
</event>
<event>
 7    0  0.4752811E-002  0.4786696E+03  0.7546771E-02  0.1019501E+00
         21   -1    0    0  502  501  0.00000000000E+00  0.00000000000E+00  0.28132182499E+03  0.28132182499E+03  0.00000000000E+00 0.  1.
         21   -1    0    0  501  502 -0.00000000000E+00 -0.00000000000E+00 -0.20361426170E+03  0.20361426170E+03  0.00000000000E+00 0.  1.
      99926    2    1    2    0    0 -0.71054273576E-14 -0.71054273576E-14  0.77707563293E+02  0.48493608669E+03  0.47866955490E+03 0.  0.
      99925    2    3    3    0    0 -0.55064098664E+02 -0.58295675965E+02 -0.61084784333E+02  0.28161057266E+03  0.26295003890E+03 0.  0.
         25    1    3    3    0    0  0.55064098664E+02  0.58295675965E+02  0.13879234763E+03  0.20332551403E+03  0.12509000000E+03 0.  0.
         25    1    4    4    0    0 -0.36720194728E+02  0.55013205884E+01 -0.92574895312E+01  0.13081225647E+03  0.12509000000E+03 0.  0.
         25    1    4    4    0    0 -0.18343903936E+02 -0.63796996553E+02 -0.51827294802E+02  0.15079831620E+03  0.12509000000E+03 0.  0.
<mgrwt>
<rscale>  2 0.47866955E+03</rscale>
<asrwt>0</asrwt>
<pdfrwt beam="1">  1       21 0.41370857E-01 0.47866955E+03</pdfrwt>
<pdfrwt beam="2">  1       21 0.29943274E-01 0.47866955E+03</pdfrwt>
<totfact> 0.55212203E+04</totfact>
</mgrwt>
</event>
<event>
 7    0  0.4752811E-002  0.4548349E+03  0.7546771E-02  0.1026290E+00
         21   -1    0    0  502  501  0.00000000000E+00  0.00000000000E+00  0.17174875110E+03  0.17174875110E+03  0.00000000000E+00 0.  1.
         21   -1    0    0  501  502 -0.00000000000E+00 -0.00000000000E+00 -0.30112998000E+03  0.30112998000E+03  0.00000000000E+00 0.  1.
      99926    2    1    2    0    0  0.00000000000E+00  0.00000000000E+00 -0.12938122891E+03  0.47287873110E+03  0.45483490624E+03 0.  0.
      99925    2    3    3    0    0  0.73656707256E+02  0.85740712573E+02 -0.80007304477E+02  0.29720268598E+03  0.26296670410E+03 0.  0.
         25    1    4    4    0    0  0.62489127006E+02  0.12041782302E+02 -0.32832867687E+02  0.14413674346E+03  0.12509000000E+03 0.  0.
         25    1    3    3    0    0 -0.73656707256E+02 -0.85740712573E+02 -0.49373924430E+02  0.17567604512E+03  0.12509000000E+03 0.  0.
         25    1    4    4    0    0  0.11167580251E+02  0.73698930271E+02 -0.47174436789E+02  0.15306594252E+03  0.12509000000E+03 0.  0.
<mgrwt>
<rscale>  2 0.45483491E+03</rscale>
<asrwt>0</asrwt>
<pdfrwt beam="1">  1       21 0.25257170E-01 0.45483491E+03</pdfrwt>
<pdfrwt beam="2">  1       21 0.44283820E-01 0.45483491E+03</pdfrwt>
<totfact> 0.67310417E+04</totfact>
</mgrwt>
</event>
<event>
 7    0  0.4752811E-002  0.4625351E+03  0.7546771E-02  0.1024049E+00
         21   -1    0    0  502  501  0.00000000000E+00  0.00000000000E+00  0.35474473014E+03  0.35474473014E+03  0.00000000000E+00 0.  1.
         21   -1    0    0  501  502 -0.00000000000E+00 -0.00000000000E+00 -0.15076947634E+03  0.15076947634E+03  0.00000000000E+00 0.  1.
      99926    2    1    2    0    0  0.71054273576E-14  0.00000000000E+00  0.20397525380E+03  0.50551420647E+03  0.46253508925E+03 0.  0.
      99925    2    3    3    0    0 -0.56520679141E+02 -0.17560288794E+02  0.24251054074E+03  0.36186384152E+03  0.26197543112E+03 0.  0.
         25    1    4    4    0    0 -0.41685742217E+02  0.89731383013E+01  0.16573847361E+03  0.21197869716E+03  0.12509000000E+03 0.  0.
         25    1    3    3    0    0  0.56520679141E+02  0.17560288794E+02 -0.38535286943E+02  0.14365036496E+03  0.12509000000E+03 0.  0.
         25    1    4    4    0    0 -0.14834936924E+02 -0.26533427095E+02  0.76772067135E+02  0.14988514436E+03  0.12509000000E+03 0.  0.
<mgrwt>
<rscale>  2 0.46253509E+03</rscale>
<asrwt>0</asrwt>
<pdfrwt beam="1">  1       21 0.52168343E-01 0.46253509E+03</pdfrwt>
<pdfrwt beam="2">  1       21 0.22171982E-01 0.46253509E+03</pdfrwt>
<totfact> 0.61145080E+04</totfact>
</mgrwt>
</event>
<event>
 7    0  0.4752811E-002  0.4552605E+03  0.7546771E-02  0.1026165E+00
         21   -1    0    0  502  501  0.00000000000E+00  0.00000000000E+00  0.52519442659E+03  0.52519442659E+03  0.00000000000E+00 0. -1.
         21   -1    0    0  501  502 -0.00000000000E+00 -0.00000000000E+00 -0.98659704793E+02  0.98659704793E+02  0.00000000000E+00 0. -1.
      99926    2    1    2    0    0  0.00000000000E+00  0.00000000000E+00  0.42653472180E+03  0.62385413139E+03  0.45526048406E+03 0.  0.
      99925    2    3    3    0    0 -0.68305743782E+02  0.56433684310E+02  0.36577498493E+03  0.45896116888E+03  0.26268532427E+03 0.  0.
         25    1    4    4    0    0 -0.46838070939E+02  0.55391562209E+02  0.14810401527E+03  0.20698873760E+03  0.12509000000E+03 0.  0.
         25    1    3    3    0    0  0.68305743782E+02 -0.56433684310E+02  0.60759736871E+02  0.16489296250E+03  0.12509000000E+03 0.  0.
         25    1    4    4    0    0 -0.21467672843E+02  0.10421221011E+01  0.21767096966E+03  0.25197243129E+03  0.12509000000E+03 0.  0.
<mgrwt>
<rscale>  2 0.45526048E+03</rscale>
<asrwt>0</asrwt>
<pdfrwt beam="1">  1       21 0.77234473E-01 0.45526048E+03</pdfrwt>
<pdfrwt beam="2">  1       21 0.14508780E-01 0.45526048E+03</pdfrwt>
<totfact> 0.57115933E+04</totfact>
</mgrwt>
</event>
<event>
 7    0  0.4752811E-002  0.4490354E+03  0.7546771E-02  0.1028010E+00
         21   -1    0    0  502  501  0.00000000000E+00  0.00000000000E+00  0.97859882379E+03  0.97859882379E+03  0.00000000000E+00 0.  1.
         21   -1    0    0  501  502 -0.00000000000E+00 -0.00000000000E+00 -0.51510591594E+02  0.51510591594E+02  0.00000000000E+00 0.  1.
      99926    2    1    2    0    0  0.00000000000E+00  0.00000000000E+00  0.92708823219E+03  0.10301094154E+04  0.44903542999E+03 0.  0.
      99925    2    3    3    0    0 -0.15420178239E+02 -0.79030583694E+02  0.75000601332E+03  0.79883201614E+03  0.26294477547E+03 0.  0.
         25    1    3    3    0    0  0.15420178239E+02  0.79030583694E+02  0.17708221888E+03  0.23127739924E+03  0.12509000000E+03 0.  0.
         25    1    4    4    0    0 -0.43784333565E+02 -0.36542287468E+02  0.43085170357E+03  0.45225336395E+03  0.12509000000E+03 0.  0.
         25    1    4    4    0    0  0.28364155326E+02 -0.42488296227E+02  0.31915430975E+03  0.34657865219E+03  0.12509000000E+03 0.  0.
<mgrwt>
<rscale>  2 0.44903543E+03</rscale>
<asrwt>0</asrwt>
<pdfrwt beam="1">  1       21 0.14391158E+00 0.44903543E+03</pdfrwt>
<pdfrwt beam="2">  1       21 0.75750876E-02 0.44903543E+03</pdfrwt>
<totfact> 0.39838817E+04</totfact>
</mgrwt>
</event>
<event>
 7    0  0.4752811E-002  0.4525983E+03  0.7546771E-02  0.1026950E+00
         21   -1    0    0  502  501  0.00000000000E+00  0.00000000000E+00  0.14806290850E+03  0.14806290850E+03  0.00000000000E+00 0. -1.
         21   -1    0    0  501  502 -0.00000000000E+00 -0.00000000000E+00 -0.34587533596E+03  0.34587533596E+03  0.00000000000E+00 0. -1.
      99926    2    1    2    0    0  0.00000000000E+00  0.00000000000E+00 -0.19781242746E+03  0.49393824446E+03  0.45259831295E+03 0.  0.
      99925    2    3    3    0    0  0.65709426836E+02 -0.55514160458E+02 -0.20118157723E+03  0.34208828543E+03  0.26296542972E+03 0.  0.
         25    1    4    4    0    0  0.51439444874E+02 -0.24737384662E+02 -0.14794241952E+03  0.20197134025E+03  0.12509000000E+03 0.  0.
         25    1    3    3    0    0 -0.65709426836E+02  0.55514160458E+02  0.33691497714E+01  0.15184995903E+03  0.12509000000E+03 0.  0.
         25    1    4    4    0    0  0.14269981962E+02 -0.30776775795E+02 -0.53239157708E+02  0.14011694518E+03  0.12509000000E+03 0.  0.
<mgrwt>
<rscale>  2 0.45259831E+03</rscale>
<asrwt>0</asrwt>
<pdfrwt beam="1">  1       21 0.21773957E-01 0.45259831E+03</pdfrwt>
<pdfrwt beam="2">  1       21 0.50864020E-01 0.45259831E+03</pdfrwt>
<totfact> 0.66966335E+04</totfact>
</mgrwt>
</event>
<event>
 7    0  0.4752811E-002  0.4522173E+03  0.7546771E-02  0.1027063E+00
         21   -1    0    0  502  501  0.00000000000E+00  0.00000000000E+00  0.49709475216E+03  0.49709475216E+03  0.00000000000E+00 0. -1.
         21   -1    0    0  501  502 -0.00000000000E+00 -0.00000000000E+00 -0.10284782951E+03  0.10284782951E+03  0.00000000000E+00 0. -1.
      99926    2    1    2    0    0  0.00000000000E+00  0.00000000000E+00  0.39424692264E+03  0.59994258167E+03  0.45221727664E+03 0.  0.
      99925    2    3    3    0    0 -0.46247192983E+02  0.54907166104E+02  0.36023985450E+03  0.45176164993E+03  0.26298714005E+03 0.  0.
         25    1    4    4    0    0 -0.15898306530E+02 -0.79311094110E+01  0.13558690589E+03  0.18532937111E+03  0.12509000000E+03 0.  0.
         25    1    3    3    0    0  0.46247192983E+02 -0.54907166104E+02  0.34007068147E+02  0.14818093174E+03  0.12509000000E+03 0.  0.
         25    1    4    4    0    0 -0.30348886453E+02  0.62838275515E+02  0.22465294861E+03  0.26643227882E+03  0.12509000000E+03 0.  0.
<mgrwt>
<rscale>  2 0.45221728E+03</rscale>
<asrwt>0</asrwt>
<pdfrwt beam="1">  1       21 0.73102169E-01 0.45221728E+03</pdfrwt>
<pdfrwt beam="2">  1       21 0.15124681E-01 0.45221728E+03</pdfrwt>
<totfact> 0.59989946E+04</totfact>
</mgrwt>
</event>
<event>
 7    0  0.4752811E-002  0.4573227E+03  0.7546771E-02  0.1025561E+00
         21   -1    0    0  502  501  0.00000000000E+00  0.00000000000E+00  0.25972448243E+03  0.25972448243E+03  0.00000000000E+00 0. -1.
         21   -1    0    0  501  502 -0.00000000000E+00 -0.00000000000E+00 -0.20131339847E+03  0.20131339847E+03  0.00000000000E+00 0. -1.
      99926    2    1    2    0    0  0.71054273576E-14  0.00000000000E+00  0.58411083963E+02  0.46103788090E+03  0.45732272292E+03 0.  0.
      99925    2    3    3    0    0  0.41796595858E+02  0.58141833841E+02 -0.54337532172E+02  0.27804283504E+03  0.26311180598E+03 0.  0.
         25    1    3    3    0    0 -0.41796595858E+02 -0.58141833841E+02  0.11274861614E+03  0.18299504586E+03  0.12509000000E+03 0.  0.
         25    1    4    4    0    0  0.43114846973E+02  0.64953732646E+02 -0.30120813236E+02  0.15044151323E+03  0.12509000000E+03 0.  0.
         25    1    4    4    0    0 -0.13182511152E+01 -0.68118988058E+01 -0.24216718936E+02  0.12760132181E+03  0.12509000000E+03 0.  0.
<mgrwt>
<rscale>  2 0.45732272E+03</rscale>
<asrwt>0</asrwt>
<pdfrwt beam="1">  1       21 0.38194777E-01 0.45732272E+03</pdfrwt>
<pdfrwt beam="2">  1       21 0.29604911E-01 0.45732272E+03</pdfrwt>
<totfact> 0.66857928E+04</totfact>
</mgrwt>
</event>
<event>
 7    0  0.4752811E-002  0.4474443E+03  0.7546771E-02  0.1028487E+00
         21   -1    0    0  502  501  0.00000000000E+00  0.00000000000E+00  0.30875106516E+02  0.30875106516E+02  0.00000000000E+00 0.  1.
         21   -1    0    0  501  502 -0.00000000000E+00 -0.00000000000E+00 -0.16210990166E+04  0.16210990166E+04  0.00000000000E+00 0.  1.
      99926    2    1    2    0    0  0.00000000000E+00  0.00000000000E+00 -0.15902239101E+04  0.16519741231E+04  0.44744431971E+03 0.  0.
      99925    2    3    3    0    0  0.79233295084E+02  0.66308444876E+02 -0.10941457763E+04  0.11300395028E+04  0.26298207791E+03 0.  0.
         25    1    3    3    0    0 -0.79233295084E+02 -0.66308444876E+02 -0.49607813378E+03  0.52193462026E+03  0.12509000000E+03 0.  0.
         25    1    4    4    0    0  0.20191945810E+02 -0.56997437994E+00 -0.56532474252E+03  0.57935102671E+03  0.12509000000E+03 0.  0.
         25    1    4    4    0    0  0.59041349273E+02  0.66878419256E+02 -0.52882103377E+03  0.55068847613E+03  0.12509000000E+03 0.  0.
<mgrwt>
<rscale>  2 0.44744432E+03</rscale>
<asrwt>0</asrwt>
<pdfrwt beam="1">  1       21 0.45404558E-02 0.44744432E+03</pdfrwt>
<pdfrwt beam="2">  1       21 0.23839697E+00 0.44744432E+03</pdfrwt>
<totfact> 0.21515166E+04</totfact>
</mgrwt>
</event>
<event>
 7    0  0.4752811E-002  0.4481984E+03  0.7546771E-02  0.1028261E+00
         21   -1    0    0  502  501  0.00000000000E+00  0.00000000000E+00  0.54304214988E+02  0.54304214988E+02  0.00000000000E+00 0.  1.
         21   -1    0    0  501  502 -0.00000000000E+00 -0.00000000000E+00 -0.92479824640E+03  0.92479824640E+03  0.00000000000E+00 0.  1.
      99926    2    1    2    0    0  0.00000000000E+00  0.00000000000E+00 -0.87049403141E+03  0.97910246139E+03  0.44819836141E+03 0.  0.
      99925    2    3    3    0    0  0.90556428151E+02  0.43660135822E+02 -0.62986895525E+03  0.68987139543E+03  0.26283258417E+03 0.  0.
         25    1    3    3    0    0 -0.90556428151E+02 -0.43660135822E+02 -0.24062507616E+03  0.28923106596E+03  0.12509000000E+03 0.  0.
         25    1    4    4    0    0  0.14014386021E+02  0.17232646178E+02 -0.35751913733E+03  0.37942167672E+03  0.12509000000E+03 0.  0.
         25    1    4    4    0    0  0.76542042130E+02  0.26427489644E+02 -0.27234981792E+03  0.31044971871E+03  0.12509000000E+03 0.  0.
<mgrwt>
<rscale>  2 0.44819836E+03</rscale>
<asrwt>0</asrwt>
<pdfrwt beam="1">  1       21 0.79859146E-02 0.44819836E+03</pdfrwt>
<pdfrwt beam="2">  1       21 0.13599973E+00 0.44819836E+03</pdfrwt>
<totfact> 0.42182688E+04</totfact>
</mgrwt>
</event>
<event>
 7    0  0.4752811E-002  0.4557758E+03  0.7546771E-02  0.1026013E+00
         21   -1    0    0  502  501  0.00000000000E+00  0.00000000000E+00  0.22033593606E+03  0.22033593606E+03  0.00000000000E+00 0. -1.
         21   -1    0    0  501  502 -0.00000000000E+00 -0.00000000000E+00 -0.23569875326E+03  0.23569875326E+03  0.00000000000E+00 0. -1.
      99926    2    1    2    0    0  0.00000000000E+00 -0.14210854715E-13 -0.15362817205E+02  0.45603468932E+03  0.45577584590E+03 0.  0.
      99925    2    3    3    0    0  0.26371012010E+02 -0.11055331547E+03 -0.29926308923E+01  0.28657084230E+03  0.26305213549E+03 0.  0.
         25    1    3    3    0    0 -0.26371012010E+02  0.11055331547E+03 -0.12370186313E+02  0.16946384701E+03  0.12509000000E+03 0.  0.
         25    1    4    4    0    0 -0.30218087281E+01 -0.94904420145E+02  0.13458247853E+01  0.15705190109E+03  0.12509000000E+03 0.  0.
         25    1    4    4    0    0  0.29392820738E+02 -0.15648895322E+02 -0.43384556776E+01  0.12951894121E+03  0.12509000000E+03 0.  0.
<mgrwt>
<rscale>  2 0.45577585E+03</rscale>
<asrwt>0</asrwt>
<pdfrwt beam="1">  1       21 0.32402344E-01 0.45577585E+03</pdfrwt>
<pdfrwt beam="2">  1       21 0.34661581E-01 0.45577585E+03</pdfrwt>
<totfact> 0.68047851E+04</totfact>
</mgrwt>
</event>
<event>
 7    0  0.4752811E-002  0.4519507E+03  0.7546771E-02  0.1027142E+00
         21   -1    0    0  502  501  0.00000000000E+00  0.00000000000E+00  0.36941662260E+02  0.36941662260E+02  0.00000000000E+00 0. -1.
         21   -1    0    0  501  502 -0.00000000000E+00 -0.00000000000E+00 -0.13823106559E+04  0.13823106559E+04  0.00000000000E+00 0. -1.
      99926    2    1    2    0    0  0.00000000000E+00 -0.17763568394E-14 -0.13453689936E+04  0.14192523182E+04  0.45195067602E+03 0.  0.
      99925    2    3    3    0    0  0.93084268809E+02 -0.65203186646E+01 -0.66660925861E+03  0.72278302117E+03  0.26332526724E+03 0.  0.
         25    1    4    4    0    0  0.78716462770E+02 -0.18246510657E+02 -0.29902702762E+03  0.33405671376E+03  0.12509000000E+03 0.  0.
         25    1    4    4    0    0  0.14367806039E+02  0.11726191992E+02 -0.36758223099E+03  0.38872630740E+03  0.12509000000E+03 0.  0.
         25    1    3    3    0    0 -0.93084268809E+02  0.65203186646E+01 -0.67875973503E+03  0.69646929699E+03  0.12509000000E+03 0.  0.
<mgrwt>
<rscale>  2 0.45195068E+03</rscale>
<asrwt>0</asrwt>
<pdfrwt beam="1">  1       21 0.54325961E-02 0.45195068E+03</pdfrwt>
<pdfrwt beam="2">  1       21 0.20328103E+00 0.45195068E+03</pdfrwt>
<totfact> 0.26444527E+04</totfact>
</mgrwt>
</event>
<event>
 7    0  0.4752811E-002  0.4520124E+03  0.7546771E-02  0.1027124E+00
         21   -1    0    0  502  501  0.00000000000E+00  0.00000000000E+00  0.78719726154E+03  0.78719726154E+03  0.00000000000E+00 0.  1.
         21   -1    0    0  501  502 -0.00000000000E+00 -0.00000000000E+00 -0.64886906653E+02  0.64886906653E+02  0.00000000000E+00 0.  1.
      99926    2    1    2    0    0  0.00000000000E+00  0.00000000000E+00  0.72231035489E+03  0.85208416819E+03  0.45201236809E+03 0.  0.
      99925    2    3    3    0    0  0.35900643556E+02  0.17711007789E+02  0.64961751187E+03  0.70196989995E+03  0.26297584053E+03 0.  0.
         25    1    4    4    0    0  0.13541194342E+02  0.45045423956E+02  0.28235110175E+03  0.31238134855E+03  0.12509000000E+03 0.  0.
         25    1    4    4    0    0  0.22359449214E+02 -0.27334416167E+02  0.36726641013E+03  0.38958855140E+03  0.12509000000E+03 0.  0.
         25    1    3    3    0    0 -0.35900643556E+02 -0.17711007789E+02  0.72692843017E+02  0.15011426824E+03  0.12509000000E+03 0.  0.
<mgrwt>
<rscale>  2 0.45201237E+03</rscale>
<asrwt>0</asrwt>
<pdfrwt beam="1">  1       21 0.11576430E+00 0.45201237E+03</pdfrwt>
<pdfrwt beam="2">  1       21 0.95421926E-02 0.45201237E+03</pdfrwt>
<totfact> 0.46424765E+04</totfact>
</mgrwt>
</event>
<event>
 7    0  0.4752811E-002  0.4572310E+03  0.7546771E-02  0.1025587E+00
         21   -1    0    0  502  501  0.00000000000E+00  0.00000000000E+00  0.14906342680E+03  0.14906342680E+03  0.00000000000E+00 0.  1.
         21   -1    0    0  501  502 -0.00000000000E+00 -0.00000000000E+00 -0.35062282984E+03  0.35062282984E+03  0.00000000000E+00 0.  1.
      99926    2    1    2    0    0 -0.71054273576E-14  0.00000000000E+00 -0.20155940304E+03  0.49968625664E+03  0.45723097239E+03 0.  0.
      99925    2    3    3    0    0  0.55927864564E+02  0.64946173626E+02 -0.21078262069E+03  0.34777013719E+03  0.26299966470E+03 0.  0.
         25    1    4    4    0    0  0.17972727362E+01  0.15322870534E+02 -0.63798758274E+02  0.14126503533E+03  0.12509000000E+03 0.  0.
         25    1    4    4    0    0  0.54130591828E+02  0.49623303092E+02 -0.14698386242E+03  0.20650510186E+03  0.12509000000E+03 0.  0.
         25    1    3    3    0    0 -0.55927864564E+02 -0.64946173626E+02  0.92232176494E+01  0.15191611944E+03  0.12509000000E+03 0.  0.
<mgrwt>
<rscale>  2 0.45723097E+03</rscale>
<asrwt>0</asrwt>
<pdfrwt beam="1">  1       21 0.21921092E-01 0.45723097E+03</pdfrwt>
<pdfrwt beam="2">  1       21 0.51562181E-01 0.45723097E+03</pdfrwt>
<totfact> 0.64149079E+04</totfact>
</mgrwt>
</event>
<event>
 7    0  0.4752811E-002  0.4579997E+03  0.7546771E-02  0.1025363E+00
         21   -1    0    0  502  501  0.00000000000E+00  0.00000000000E+00  0.13674899060E+04  0.13674899060E+04  0.00000000000E+00 0.  1.
         21   -1    0    0  501  502 -0.00000000000E+00 -0.00000000000E+00 -0.38348313172E+02  0.38348313172E+02  0.00000000000E+00 0.  1.
      99926    2    1    2    0    0 -0.17763568394E-14  0.88817841970E-15  0.13291415928E+04  0.14058382192E+04  0.45799969945E+03 0.  0.
      99925    2    3    3    0    0 -0.14100685430E+02  0.33670439750E+01  0.48114386499E+03  0.54854140894E+03  0.26303629443E+03 0.  0.
         25    1    3    3    0    0  0.14100685430E+02 -0.33670439750E+01  0.84799772784E+03  0.85729681023E+03  0.12509000000E+03 0.  0.
         25    1    4    4    0    0 -0.15586058675E+01 -0.26949111806E+02  0.29826054192E+03  0.32455437579E+03  0.12509000000E+03 0.  0.
         25    1    4    4    0    0 -0.12542079562E+02  0.30316155781E+02  0.18288332307E+03  0.22398703314E+03  0.12509000000E+03 0.  0.
<mgrwt>
<rscale>  2 0.45799970E+03</rscale>
<asrwt>0</asrwt>
<pdfrwt beam="1">  1       21 0.20110142E+00 0.45799970E+03</pdfrwt>
<pdfrwt beam="2">  1       21 0.56394587E-02 0.45799970E+03</pdfrwt>
<totfact> 0.25575451E+04</totfact>
</mgrwt>
</event>
<event>
 7    0  0.4752811E-002  0.4576087E+03  0.7546771E-02  0.1025477E+00
         21   -1    0    0  502  501  0.00000000000E+00  0.00000000000E+00  0.20618196840E+03  0.20618196840E+03  0.00000000000E+00 0.  1.
         21   -1    0    0  501  502 -0.00000000000E+00 -0.00000000000E+00 -0.25390891254E+03  0.25390891254E+03  0.00000000000E+00 0.  1.
      99926    2    1    2    0    0  0.00000000000E+00  0.00000000000E+00 -0.47726944142E+02  0.46009088095E+03  0.45760873848E+03 0.  0.
      99925    2    3    3    0    0  0.84245105525E+02  0.78501953203E+02 -0.20291578015E+02  0.28787008698E+03  0.26305445135E+03 0.  0.
         25    1    4    4    0    0  0.25048302204E+02  0.76094370232E+02 -0.15862086456E+02  0.14938836806E+03  0.12509000000E+03 0.  0.
         25    1    4    4    0    0  0.59196803321E+02  0.24075829711E+01 -0.44294915583E+01  0.13848171892E+03  0.12509000000E+03 0.  0.
         25    1    3    3    0    0 -0.84245105525E+02 -0.78501953203E+02 -0.27435366127E+02  0.17222079397E+03  0.12509000000E+03 0.  0.
<mgrwt>
<rscale>  2 0.45760874E+03</rscale>
<asrwt>0</asrwt>
<pdfrwt beam="1">  1       21 0.30320878E-01 0.45760874E+03</pdfrwt>
<pdfrwt beam="2">  1       21 0.37339546E-01 0.45760874E+03</pdfrwt>
<totfact> 0.66773728E+04</totfact>
</mgrwt>
</event>
<event>
 7    0  0.4752811E-002  0.4545927E+03  0.7546771E-02  0.1026361E+00
         21   -1    0    0  502  501  0.00000000000E+00  0.00000000000E+00  0.28639876946E+03  0.28639876946E+03  0.00000000000E+00 0. -1.
         21   -1    0    0  501  502 -0.00000000000E+00 -0.00000000000E+00 -0.18039057293E+03  0.18039057293E+03  0.00000000000E+00 0. -1.
      99926    2    1    2    0    0 -0.35527136788E-14  0.17763568394E-14  0.10600819653E+03  0.46678934239E+03  0.45459273249E+03 0.  0.
      99925    2    3    3    0    0 -0.74008761480E+01 -0.34281261617E+01 -0.48810498464E+02  0.26758376657E+03  0.26296783521E+03 0.  0.
         25    1    3    3    0    0  0.74008761480E+01  0.34281261617E+01  0.15481869499E+03  0.19920557582E+03  0.12509000000E+03 0.  0.
         25    1    4    4    0    0  0.29624601324E+02 -0.24616871607E+02 -0.21832232238E+02  0.13269424191E+03  0.12509000000E+03 0.  0.
         25    1    4    4    0    0 -0.37025477472E+02  0.21188745445E+02 -0.26978266226E+02  0.13488952466E+03  0.12509000000E+03 0.  0.
<mgrwt>
<rscale>  2 0.45459273E+03</rscale>
<asrwt>0</asrwt>
<pdfrwt beam="1">  1       21 0.42117466E-01 0.45459273E+03</pdfrwt>
<pdfrwt beam="2">  1       21 0.26528025E-01 0.45459273E+03</pdfrwt>
<totfact> 0.67894554E+04</totfact>
</mgrwt>
</event>
<event>
 7    0  0.4752811E-002  0.4565069E+03  0.7546771E-02  0.1025799E+00
         21   -1    0    0  502  501  0.00000000000E+00  0.00000000000E+00  0.10005935710E+03  0.10005935710E+03  0.00000000000E+00 0. -1.
         21   -1    0    0  501  502 -0.00000000000E+00 -0.00000000000E+00 -0.52068723116E+03  0.52068723116E+03  0.00000000000E+00 0. -1.
      99926    2    1    2    0    0  0.00000000000E+00 -0.71054273576E-14 -0.42062787406E+03  0.62074658826E+03  0.45650686567E+03 0.  0.
      99925    2    3    3    0    0  0.22411904619E+02  0.59869015913E+02 -0.13536542253E+03  0.30277054059E+03  0.26317220617E+03 0.  0.
         25    1    4    4    0    0  0.12555528312E+02  0.44232269846E+02 -0.11220845877E+03  0.17421934825E+03  0.12509000000E+03 0.  0.
         25    1    3    3    0    0 -0.22411904619E+02 -0.59869015913E+02 -0.28526245154E+03  0.31797604767E+03  0.12509000000E+03 0.  0.
         25    1    4    4    0    0  0.98563763066E+01  0.15636746067E+02 -0.23156963756E+02  0.12855119234E+03  0.12509000000E+03 0.  0.
<mgrwt>
<rscale>  2 0.45650687E+03</rscale>
<asrwt>0</asrwt>
<pdfrwt beam="1">  1       21 0.14714611E-01 0.45650687E+03</pdfrwt>
<pdfrwt beam="2">  1       21 0.76571651E-01 0.45650687E+03</pdfrwt>
<totfact> 0.56740924E+04</totfact>
</mgrwt>
</event>
<event>
 7    0  0.4752811E-002  0.4578416E+03  0.7546771E-02  0.1025409E+00
         21   -1    0    0  502  501  0.00000000000E+00  0.00000000000E+00  0.11260669510E+03  0.11260669510E+03  0.00000000000E+00 0.  1.
         21   -1    0    0  501  502 -0.00000000000E+00 -0.00000000000E+00 -0.46537844040E+03  0.46537844040E+03  0.00000000000E+00 0.  1.
      99926    2    1    2    0    0 -0.71054273576E-14  0.00000000000E+00 -0.35277174529E+03  0.57798513550E+03  0.45784158022E+03 0.  0.
      99925    2    3    3    0    0 -0.49589304970E+02  0.10439859705E+03 -0.23083383348E+03  0.36852265993E+03  0.26299529648E+03 0.  0.
         25    1    3    3    0    0  0.49589304970E+02 -0.10439859705E+03 -0.12193791182E+03  0.20946247557E+03  0.12509000000E+03 0.  0.
         25    1    4    4    0    0 -0.32854599208E+02  0.38146666575E+02 -0.16035334728E+03  0.20951204487E+03  0.12509000000E+03 0.  0.
         25    1    4    4    0    0 -0.16734705762E+02  0.66251930476E+02 -0.70480486195E+02  0.15901061506E+03  0.12509000000E+03 0.  0.
<mgrwt>
<rscale>  2 0.45784158E+03</rscale>
<asrwt>0</asrwt>
<pdfrwt beam="1">  1       21 0.16559809E-01 0.45784158E+03</pdfrwt>
<pdfrwt beam="2">  1       21 0.68438004E-01 0.45784158E+03</pdfrwt>
<totfact> 0.58723765E+04</totfact>
</mgrwt>
</event>
<event>
 7    0  0.4752811E-002  0.4590346E+03  0.7546771E-02  0.1025062E+00
         21   -1    0    0  502  501  0.00000000000E+00  0.00000000000E+00  0.41781658152E+03  0.41781658152E+03  0.00000000000E+00 0. -1.
         21   -1    0    0  501  502 -0.00000000000E+00 -0.00000000000E+00 -0.12607968491E+03  0.12607968491E+03  0.00000000000E+00 0. -1.
      99926    2    1    2    0    0  0.00000000000E+00  0.00000000000E+00  0.29173689662E+03  0.54389626643E+03  0.45903456492E+03 0.  0.
      99925    2    3    3    0    0  0.10485182110E+03  0.51832653411E+02  0.18274451104E+03  0.34090026509E+03  0.26293897785E+03 0.  0.
         25    1    4    4    0    0  0.22365257561E+02  0.10367721758E+02  0.51738217336E+02  0.13759377033E+03  0.12509000000E+03 0.  0.
         25    1    4    4    0    0  0.82486563536E+02  0.41464931653E+02  0.13100629371E+03  0.20330649476E+03  0.12509000000E+03 0.  0.
         25    1    3    3    0    0 -0.10485182110E+03 -0.51832653411E+02  0.10899238557E+03  0.20299600134E+03  0.12509000000E+03 0.  0.
<mgrwt>
<rscale>  2 0.45903456E+03</rscale>
<asrwt>0</asrwt>
<pdfrwt beam="1">  1       21 0.61443615E-01 0.45903456E+03</pdfrwt>
<pdfrwt beam="2">  1       21 0.18541130E-01 0.45903456E+03</pdfrwt>
<totfact> 0.60322588E+04</totfact>
</mgrwt>
</event>
<event>
 7    0  0.4752811E-002  0.4555730E+03  0.7546771E-02  0.1026073E+00
         21   -1    0    0  502  501  0.00000000000E+00  0.00000000000E+00  0.58061457757E+03  0.58061457757E+03  0.00000000000E+00 0. -1.
         21   -1    0    0  501  502 -0.00000000000E+00 -0.00000000000E+00 -0.89365134081E+02  0.89365134081E+02  0.00000000000E+00 0. -1.
      99926    2    1    2    0    0  0.14210854715E-13  0.00000000000E+00  0.49124944349E+03  0.66997971166E+03  0.45557304387E+03 0.  0.
      99925    2    3    3    0    0  0.86606708900E+02 -0.50192290336E+01  0.41713258771E+03  0.50066718673E+03  0.26294889513E+03 0.  0.
         25    1    4    4    0    0  0.79851142826E+02  0.94787921354E+01  0.19497135704E+03  0.24520887153E+03  0.12509000000E+03 0.  0.
         25    1    4    4    0    0  0.67555660748E+01 -0.14498021169E+02  0.22216123066E+03  0.25545831519E+03  0.12509000000E+03 0.  0.
         25    1    3    3    0    0 -0.86606708900E+02  0.50192290336E+01  0.74116855785E+02  0.16931252493E+03  0.12509000000E+03 0.  0.
<mgrwt>
<rscale>  2 0.45557304E+03</rscale>
<asrwt>0</asrwt>
<pdfrwt beam="1">  1       21 0.85384495E-01 0.45557304E+03</pdfrwt>
<pdfrwt beam="2">  1       21 0.13141932E-01 0.45557304E+03</pdfrwt>
<totfact> 0.54317653E+04</totfact>
</mgrwt>
</event>
<event>
 7    0  0.4752811E-002  0.4075026E+03  0.7546771E-02  0.1041212E+00
         21   -1    0    0  502  501  0.00000000000E+00  0.00000000000E+00  0.21211196722E+03  0.21211196722E+03  0.00000000000E+00 0.  1.
         21   -1    0    0  501  502 -0.00000000000E+00 -0.00000000000E+00 -0.19572018489E+03  0.19572018489E+03  0.00000000000E+00 0.  1.
      99926    2    1    2    0    0  0.17763568394E-14  0.00000000000E+00  0.16391782331E+02  0.40783215212E+03  0.40750260585E+03 0.  0.
      99925    2    3    3    0    0  0.66170713178E+01  0.29898737985E+02 -0.38950597200E+02  0.26766080255E+03  0.26303504716E+03 0.  0.
         25    1    4    4    0    0 -0.16562924079E+02  0.13491269300E+02 -0.55153612085E+02  0.13836825441E+03  0.12509000000E+03 0.  0.
         25    1    3    3    0    0 -0.66170713178E+01 -0.29898737985E+02  0.55342379531E+02  0.14017134956E+03  0.12509000000E+03 0.  0.
         25    1    4    4    0    0  0.23179995397E+02  0.16407468685E+02  0.16203014885E+02  0.12929254815E+03  0.12509000000E+03 0.  0.
<mgrwt>
<rscale>  2 0.40750261E+03</rscale>
<asrwt>0</asrwt>
<pdfrwt beam="1">  1       21 0.31192936E-01 0.40750261E+03</pdfrwt>
<pdfrwt beam="2">  1       21 0.28782380E-01 0.40750261E+03</pdfrwt>
<totfact> 0.10745441E+05</totfact>
</mgrwt>
</event>
<event>
 7    0  0.4752811E-002  0.4287261E+03  0.7546771E-02  0.1034263E+00
         21   -1    0    0  502  501  0.00000000000E+00  0.00000000000E+00  0.50572221713E+03  0.50572221713E+03  0.00000000000E+00 0. -1.
         21   -1    0    0  501  502 -0.00000000000E+00 -0.00000000000E+00 -0.90863152162E+02  0.90863152162E+02  0.00000000000E+00 0. -1.
      99926    2    1    2    0    0  0.00000000000E+00  0.35527136788E-14  0.41485906496E+03  0.59658536929E+03  0.42872608862E+03 0.  0.
      99925    2    3    3    0    0 -0.30429770951E+02 -0.22444446239E+02  0.15990654102E+03  0.31009274863E+03  0.26297849107E+03 0.  0.
         25    1    4    4    0    0  0.15823599499E+02 -0.33023769038E+02  0.95680195199E+02  0.16168847663E+03  0.12509000000E+03 0.  0.
         25    1    3    3    0    0  0.30429770951E+02  0.22444446239E+02  0.25495252395E+03  0.28649262066E+03  0.12509000000E+03 0.  0.
         25    1    4    4    0    0 -0.46253370450E+02  0.10579322799E+02  0.64226345819E+02  0.14840427199E+03  0.12509000000E+03 0.  0.
<mgrwt>
<rscale>  2 0.42872609E+03</rscale>
<asrwt>0</asrwt>
<pdfrwt beam="1">  1       21 0.74370913E-01 0.42872609E+03</pdfrwt>
<pdfrwt beam="2">  1       21 0.13362229E-01 0.42872609E+03</pdfrwt>
<totfact> 0.72880468E+04</totfact>
</mgrwt>
</event>
<event>
 7    0  0.4752811E-002  0.4513900E+03  0.7546771E-02  0.1027308E+00
         21   -1    0    0  502  501  0.00000000000E+00  0.00000000000E+00  0.23717889984E+04  0.23717889984E+04  0.00000000000E+00 0.  1.
         21   -1    0    0  501  502 -0.00000000000E+00 -0.00000000000E+00 -0.21476717003E+02  0.21476717003E+02  0.00000000000E+00 0.  1.
      99926    2    1    2    0    0  0.35527136788E-14  0.11102230246E-15  0.23503122814E+04  0.23932657154E+04  0.45139003582E+03 0.  0.
      99925    2    3    3    0    0  0.31641127314E+02  0.74849141189E+00  0.20433231818E+04  0.20602619068E+04  0.26173990553E+03 0.  0.
         25    1    4    4    0    0  0.47806336765E+02 -0.17095640008E+01  0.88254947774E+03  0.89265304414E+03  0.12509000000E+03 0.  0.
         25    1    3    3    0    0 -0.31641127314E+02 -0.74849141189E+00  0.30698909966E+03  0.33300380867E+03  0.12509000000E+03 0.  0.
         25    1    4    4    0    0 -0.16165209452E+02  0.24580554127E+01  0.11607737040E+04  0.11676088626E+04  0.12509000000E+03 0.  0.
<mgrwt>
<rscale>  2 0.45139004E+03</rscale>
<asrwt>0</asrwt>
<pdfrwt beam="1">  1       21 0.34879232E+00 0.45139004E+03</pdfrwt>
<pdfrwt beam="2">  1       21 0.31583424E-02 0.45139004E+03</pdfrwt>
<totfact> 0.85229736E+03</totfact>
</mgrwt>
</event>
<event>
 7    0  0.4752811E-002  0.4540653E+03  0.7546771E-02  0.1026517E+00
         21   -1    0    0  502  501  0.00000000000E+00  0.00000000000E+00  0.52659677774E+03  0.52659677774E+03  0.00000000000E+00 0.  1.
         21   -1    0    0  501  502 -0.00000000000E+00 -0.00000000000E+00 -0.97880989111E+02  0.97880989111E+02  0.00000000000E+00 0.  1.
      99926    2    1    2    0    0  0.00000000000E+00  0.14210854715E-13  0.42871578863E+03  0.62447776685E+03  0.45406525288E+03 0.  0.
      99925    2    3    3    0    0  0.31611702419E+02 -0.10029957805E+03  0.32402528572E+03  0.43039810643E+03  0.26304151602E+03 0.  0.
         25    1    4    4    0    0  0.47319525301E+02 -0.53301047747E+02  0.12802530253E+03  0.19266064817E+03  0.12509000000E+03 0.  0.
         25    1    4    4    0    0 -0.15707822882E+02 -0.46998530308E+02  0.19599998319E+03  0.23773745827E+03  0.12509000000E+03 0.  0.
         25    1    3    3    0    0 -0.31611702419E+02  0.10029957805E+03  0.10469050291E+03  0.19407966042E+03  0.12509000000E+03 0.  0.
<mgrwt>
<rscale>  2 0.45406525E+03</rscale>
<asrwt>0</asrwt>
<pdfrwt beam="1">  1       21 0.77440701E-01 0.45406525E+03</pdfrwt>
<pdfrwt beam="2">  1       21 0.14394263E-01 0.45406525E+03</pdfrwt>
<totfact> 0.57620410E+04</totfact>
</mgrwt>
</event>
<event>
 7    0  0.4752811E-002  0.4518328E+03  0.7546771E-02  0.1027177E+00
         21   -1    0    0  502  501  0.00000000000E+00  0.00000000000E+00  0.33678120540E+03  0.33678120540E+03  0.00000000000E+00 0. -1.
         21   -1    0    0  501  502 -0.00000000000E+00 -0.00000000000E+00 -0.15154714532E+03  0.15154714532E+03  0.00000000000E+00 0. -1.
      99926    2    1    2    0    0  0.00000000000E+00  0.00000000000E+00  0.18523406008E+03  0.48832835073E+03  0.45183284642E+03 0.  0.
      99925    2    3    3    0    0  0.15569984787E+02  0.10553441448E+02 -0.44542748446E+00  0.26365485484E+03  0.26298266962E+03 0.  0.
         25    1    4    4    0    0  0.26662215660E+02 -0.94054561383E+01 -0.32947113189E+02  0.13240980597E+03  0.12509000000E+03 0.  0.
         25    1    4    4    0    0 -0.11092230873E+02  0.19958897587E+02  0.32501685704E+02  0.13124504887E+03  0.12509000000E+03 0.  0.
         25    1    3    3    0    0 -0.15569984787E+02 -0.10553441448E+02  0.18567948757E+03  0.22467349589E+03  0.12509000000E+03 0.  0.
<mgrwt>
<rscale>  2 0.45183285E+03</rscale>
<asrwt>0</asrwt>
<pdfrwt beam="1">  1       21 0.49526648E-01 0.45183285E+03</pdfrwt>
<pdfrwt beam="2">  1       21 0.22286345E-01 0.45183285E+03</pdfrwt>
<totfact> 0.67787078E+04</totfact>
</mgrwt>
</event>
<event>
 7    0  0.4752811E-002  0.4625513E+03  0.7546771E-02  0.1024044E+00
         21   -1    0    0  502  501  0.00000000000E+00  0.00000000000E+00  0.94267536238E+03  0.94267536238E+03  0.00000000000E+00 0.  1.
         21   -1    0    0  501  502 -0.00000000000E+00 -0.00000000000E+00 -0.56741088423E+02  0.56741088423E+02  0.00000000000E+00 0.  1.
      99926    2    1    2    0    0  0.00000000000E+00  0.00000000000E+00  0.88593427396E+03  0.99941645080E+03  0.46255129917E+03 0.  0.
      99925    2    3    3    0    0 -0.87703821278E+02  0.39372587369E+02  0.70694968570E+03  0.76082652680E+03  0.26426688190E+03 0.  0.
         25    1    3    3    0    0  0.87703821278E+02 -0.39372587369E+02  0.17898458826E+03  0.23858992401E+03  0.12509000000E+03 0.  0.
         25    1    4    4    0    0 -0.36563649686E+02  0.90577249421E+01  0.45424499708E+03  0.47265734770E+03  0.12509000000E+03 0.  0.
         25    1    4    4    0    0 -0.51140171591E+02  0.30314862427E+02  0.25270468862E+03  0.28816917910E+03  0.12509000000E+03 0.  0.
<mgrwt>
<rscale>  2 0.46255130E+03</rscale>
<asrwt>0</asrwt>
<pdfrwt beam="1">  1       21 0.13862872E+00 0.46255130E+03</pdfrwt>
<pdfrwt beam="2">  1       21 0.83442783E-02 0.46255130E+03</pdfrwt>
<totfact> 0.36961120E+04</totfact>
</mgrwt>
</event>
<event>
 7    0  0.4752811E-002  0.4514648E+03  0.7546771E-02  0.1027286E+00
         21   -1    0    0  502  501  0.00000000000E+00  0.00000000000E+00  0.19566297619E+03  0.19566297619E+03  0.00000000000E+00 0.  1.
         21   -1    0    0  501  502 -0.00000000000E+00 -0.00000000000E+00 -0.26042289359E+03  0.26042289359E+03  0.00000000000E+00 0.  1.
      99926    2    1    2    0    0  0.00000000000E+00 -0.71054273576E-14 -0.64759917406E+02  0.45608586978E+03  0.45146480894E+03 0.  0.
      99925    2    3    3    0    0  0.90850511341E+02 -0.48148881470E+02 -0.17021733343E+01  0.28231614461E+03  0.26292085866E+03 0.  0.
         25    1    3    3    0    0 -0.90850511341E+02  0.48148881470E+02 -0.63057744071E+02  0.17376972517E+03  0.12509000000E+03 0.  0.
         25    1    4    4    0    0  0.29345199831E+02 -0.39341826321E+02 -0.34737297961E+02  0.13879159925E+03  0.12509000000E+03 0.  0.
         25    1    4    4    0    0  0.61505311510E+02 -0.88070551483E+01  0.33035124627E+02  0.14352454537E+03  0.12509000000E+03 0.  0.
<mgrwt>
<rscale>  2 0.45146481E+03</rscale>
<asrwt>0</asrwt>
<pdfrwt beam="1">  1       21 0.28773967E-01 0.45146481E+03</pdfrwt>
<pdfrwt beam="2">  1       21 0.38297484E-01 0.45146481E+03</pdfrwt>
<totfact> 0.70431542E+04</totfact>
</mgrwt>
</event>
<event>
 7    0  0.4752811E-002  0.4649544E+03  0.7546771E-02  0.1023354E+00
         21   -1    0    0  502  501  0.00000000000E+00  0.00000000000E+00  0.10813251328E+03  0.10813251328E+03  0.00000000000E+00 0.  1.
         21   -1    0    0  501  502 -0.00000000000E+00 -0.00000000000E+00 -0.49980941304E+03  0.49980941304E+03  0.00000000000E+00 0.  1.
      99926    2    1    2    0    0  0.00000000000E+00  0.17763568394E-14 -0.39167689977E+03  0.60794192632E+03  0.46495439773E+03 0.  0.
      99925    2    3    3    0    0  0.12126888947E+03 -0.74293826280E+01 -0.26243540009E+03  0.39088844762E+03  0.26298307927E+03 0.  0.
         25    1    3    3    0    0 -0.12126888947E+03  0.74293826280E+01 -0.12924149968E+03  0.21705347870E+03  0.12509000000E+03 0.  0.
         25    1    4    4    0    0  0.86952711387E+02  0.28601258794E+02 -0.14457314844E+03  0.21196157523E+03  0.12509000000E+03 0.  0.
         25    1    4    4    0    0  0.34316178081E+02 -0.36030641422E+02 -0.11786225165E+03  0.17892687239E+03  0.12509000000E+03 0.  0.
<mgrwt>
<rscale>  2 0.46495440E+03</rscale>
<asrwt>0</asrwt>
<pdfrwt beam="1">  1       21 0.15901840E-01 0.46495440E+03</pdfrwt>
<pdfrwt beam="2">  1       21 0.73501386E-01 0.46495440E+03</pdfrwt>
<totfact> 0.53832245E+04</totfact>
</mgrwt>
</event>
<event>
 7    0  0.4752811E-002  0.4609126E+03  0.7546771E-02  0.1024517E+00
         21   -1    0    0  502  501  0.00000000000E+00  0.00000000000E+00  0.60613315268E+02  0.60613315268E+02  0.00000000000E+00 0.  1.
         21   -1    0    0  501  502 -0.00000000000E+00 -0.00000000000E+00 -0.87621185847E+03  0.87621185847E+03  0.00000000000E+00 0.  1.
      99926    2    1    2    0    0  0.00000000000E+00 -0.17763568394E-14 -0.81559854320E+03  0.93682517374E+03  0.46091259744E+03 0.  0.
      99925    2    3    3    0    0 -0.10527162551E+03 -0.11933289297E+02 -0.62035107325E+03  0.68188674754E+03  0.26250631203E+03 0.  0.
         25    1    4    4    0    0 -0.55978100957E+02  0.29810774301E+02 -0.26866143408E+03  0.30306551159E+03  0.12509000000E+03 0.  0.
         25    1    4    4    0    0 -0.49293524553E+02 -0.41744063598E+02 -0.35168963917E+03  0.37882123595E+03  0.12509000000E+03 0.  0.
         25    1    3    3    0    0  0.10527162551E+03  0.11933289297E+02 -0.19524746995E+03  0.25493842620E+03  0.12509000000E+03 0.  0.
<mgrwt>
<rscale>  2 0.46091260E+03</rscale>
<asrwt>0</asrwt>
<pdfrwt beam="1">  1       21 0.89137228E-02 0.46091260E+03</pdfrwt>
<pdfrwt beam="2">  1       21 0.12885468E+00 0.46091260E+03</pdfrwt>
<totfact> 0.39806027E+04</totfact>
</mgrwt>
</event>
<event>
 7    0  0.4752811E-002  0.4522983E+03  0.7546771E-02  0.1027039E+00
         21   -1    0    0  502  501  0.00000000000E+00  0.00000000000E+00  0.53307403126E+03  0.53307403126E+03  0.00000000000E+00 0. -1.
         21   -1    0    0  501  502 -0.00000000000E+00 -0.00000000000E+00 -0.95940604889E+02  0.95940604889E+02  0.00000000000E+00 0. -1.
      99926    2    1    2    0    0  0.00000000000E+00 -0.71054273576E-14  0.43713342637E+03  0.62901463615E+03  0.45229833079E+03 0.  0.
      99925    2    3    3    0    0  0.67598920371E+02 -0.49320076704E+02  0.37646974415E+03  0.46675042432E+03  0.26291520750E+03 0.  0.
         25    1    4    4    0    0  0.71721210381E+02 -0.25711759571E+02  0.22969115705E+03  0.27241615651E+03  0.12509000000E+03 0.  0.
         25    1    4    4    0    0 -0.41222900101E+01 -0.23608317133E+02  0.14677858710E+03  0.19433426781E+03  0.12509000000E+03 0.  0.
         25    1    3    3    0    0 -0.67598920371E+02  0.49320076704E+02  0.60663682217E+02  0.16226421183E+03  0.12509000000E+03 0.  0.
<mgrwt>
<rscale>  2 0.45229833E+03</rscale>
<asrwt>0</asrwt>
<pdfrwt beam="1">  1       21 0.78393238E-01 0.45229833E+03</pdfrwt>
<pdfrwt beam="2">  1       21 0.14108913E-01 0.45229833E+03</pdfrwt>
<totfact> 0.58157413E+04</totfact>
</mgrwt>
</event>
<event>
 7    0  0.4752811E-002  0.4298847E+03  0.7546771E-02  0.1033896E+00
         21   -1    0    0  502  501  0.00000000000E+00  0.00000000000E+00  0.59791156151E+02  0.59791156151E+02  0.00000000000E+00 0. -1.
         21   -1    0    0  501  502 -0.00000000000E+00 -0.00000000000E+00 -0.77269314878E+03  0.77269314878E+03  0.00000000000E+00 0. -1.
      99926    2    1    2    0    0  0.00000000000E+00  0.00000000000E+00 -0.71290199263E+03  0.83248430493E+03  0.42988471346E+03 0.  0.
      99925    2    3    3    0    0 -0.56564196575E+02  0.16217379387E+02 -0.58512021639E+03  0.64423393397E+03  0.26307638116E+03 0.  0.
         25    1    3    3    0    0  0.56564196575E+02 -0.16217379387E+02 -0.12778177624E+03  0.18825037096E+03  0.12509000000E+03 0.  0.
         25    1    4    4    0    0  0.84743108762E+01  0.21835833190E+02 -0.30809959153E+03  0.33334889224E+03  0.12509000000E+03 0.  0.
         25    1    4    4    0    0 -0.65038507451E+02 -0.56184538037E+01 -0.27702062486E+03  0.31088504173E+03  0.12509000000E+03 0.  0.
<mgrwt>
<rscale>  2 0.42988471E+03</rscale>
<asrwt>0</asrwt>
<pdfrwt beam="1">  1       21 0.87928170E-02 0.42988471E+03</pdfrwt>
<pdfrwt beam="2">  1       21 0.11363135E+00 0.42988471E+03</pdfrwt>
<totfact> 0.56585712E+04</totfact>
</mgrwt>
</event>
<event>
 7    0  0.4752811E-002  0.4585051E+03  0.7546771E-02  0.1025216E+00
         21   -1    0    0  502  501  0.00000000000E+00  0.00000000000E+00  0.84011856205E+02  0.84011856205E+02  0.00000000000E+00 0. -1.
         21   -1    0    0  501  502 -0.00000000000E+00 -0.00000000000E+00 -0.62558716721E+03  0.62558716721E+03  0.00000000000E+00 0. -1.
      99926    2    1    2    0    0 -0.71054273576E-14  0.35527136788E-14 -0.54157531101E+03  0.70959902342E+03  0.45850513251E+03 0.  0.
      99925    2    3    3    0    0  0.57374668739E+02 -0.23253046285E+02 -0.18688551675E+03  0.32843643996E+03  0.26289112186E+03 0.  0.
         25    1    4    4    0    0  0.70107449652E+01 -0.27104428748E+02 -0.12829717171E+03  0.18136006443E+03  0.12509000000E+03 0.  0.
         25    1    3    3    0    0 -0.57374668739E+02  0.23253046285E+02 -0.35468979426E+03  0.38116258345E+03  0.12509000000E+03 0.  0.
         25    1    4    4    0    0  0.50363923774E+02  0.38513824627E+01 -0.58588345041E+02  0.14707637553E+03  0.12509000000E+03 0.  0.
<mgrwt>
<rscale>  2 0.45850513E+03</rscale>
<asrwt>0</asrwt>
<pdfrwt beam="1">  1       21 0.12354685E-01 0.45850513E+03</pdfrwt>
<pdfrwt beam="2">  1       21 0.91998111E-01 0.45850513E+03</pdfrwt>
<totfact> 0.50964793E+04</totfact>
</mgrwt>
</event>
<event>
 7    0  0.4752811E-002  0.4572101E+03  0.7546771E-02  0.1025593E+00
         21   -1    0    0  502  501  0.00000000000E+00  0.00000000000E+00  0.35088400983E+02  0.35088400983E+02  0.00000000000E+00 0.  1.
         21   -1    0    0  501  502 -0.00000000000E+00 -0.00000000000E+00 -0.14893884271E+04  0.14893884271E+04  0.00000000000E+00 0.  1.
      99926    2    1    2    0    0  0.00000000000E+00  0.00000000000E+00 -0.14543000262E+04  0.15244768281E+04  0.45721005392E+03 0.  0.
      99925    2    3    3    0    0  0.64145242863E+02  0.87252139966E+02 -0.79096879163E+03  0.84082239575E+03  0.26386194069E+03 0.  0.
         25    1    4    4    0    0 -0.10690544876E+02  0.45884977351E+02 -0.37674314456E+03  0.39975320382E+03  0.12509000000E+03 0.  0.
         25    1    3    3    0    0 -0.64145242863E+02 -0.87252139966E+02 -0.66333123453E+03  0.68365443238E+03  0.12509000000E+03 0.  0.
         25    1    4    4    0    0  0.74835787739E+02  0.41367162615E+02 -0.41422564707E+03  0.44106919192E+03  0.12509000000E+03 0.  0.
<mgrwt>
<rscale>  2 0.45721005E+03</rscale>
<asrwt>0</asrwt>
<pdfrwt beam="1">  1       21 0.51600569E-02 0.45721005E+03</pdfrwt>
<pdfrwt beam="2">  1       21 0.21902780E+00 0.45721005E+03</pdfrwt>
<totfact> 0.22791805E+04</totfact>
</mgrwt>
</event>
<event>
 7    0  0.4752811E-002  0.4508626E+03  0.7546771E-02  0.1027465E+00
         21   -1    0    0  502  501  0.00000000000E+00  0.00000000000E+00  0.76801595510E+03  0.76801595510E+03  0.00000000000E+00 0.  1.
         21   -1    0    0  501  502 -0.00000000000E+00 -0.00000000000E+00 -0.66169556242E+02  0.66169556242E+02  0.00000000000E+00 0.  1.
      99926    2    1    2    0    0  0.00000000000E+00  0.00000000000E+00  0.70184639885E+03  0.83418551134E+03  0.45086261737E+03 0.  0.
      99925    2    3    3    0    0  0.41302761350E+02  0.18490339926E+02  0.62728411037E+03  0.68169008934E+03  0.26299850193E+03 0.  0.
         25    1    4    4    0    0 -0.18612822235E+02  0.11947238286E+01  0.32118901797E+03  0.34519234911E+03  0.12509000000E+03 0.  0.
         25    1    3    3    0    0 -0.41302761350E+02 -0.18490339926E+02  0.74562288483E+02  0.15249542200E+03  0.12509000000E+03 0.  0.
         25    1    4    4    0    0  0.59915583585E+02  0.17295616098E+02  0.30609509240E+03  0.33649774023E+03  0.12509000000E+03 0.  0.
<mgrwt>
<rscale>  2 0.45086262E+03</rscale>
<asrwt>0</asrwt>
<pdfrwt beam="1">  1       21 0.11294352E+00 0.45086262E+03</pdfrwt>
<pdfrwt beam="2">  1       21 0.97308176E-02 0.45086262E+03</pdfrwt>
<totfact> 0.47684451E+04</totfact>
</mgrwt>
</event>
<event>
 7    0  0.4752811E-002  0.4487001E+03  0.7546771E-02  0.1028110E+00
         21   -1    0    0  502  501  0.00000000000E+00  0.00000000000E+00  0.26034023469E+02  0.26034023469E+02  0.00000000000E+00 0. -1.
         21   -1    0    0  501  502 -0.00000000000E+00 -0.00000000000E+00 -0.19333524403E+04  0.19333524403E+04  0.00000000000E+00 0. -1.
      99926    2    1    2    0    0  0.00000000000E+00  0.00000000000E+00 -0.19073184168E+04  0.19593864638E+04  0.44870009050E+03 0.  0.
      99925    2    3    3    0    0  0.59527958817E+02  0.73941109935E+02 -0.99132108231E+03  0.10300267430E+04  0.26310974414E+03 0.  0.
         25    1    3    3    0    0 -0.59527958817E+02 -0.73941109935E+02 -0.91599733452E+03  0.92935972076E+03  0.12509000000E+03 0.  0.
         25    1    4    4    0    0  0.63278546783E+02  0.20344177615E+02 -0.44518915652E+03  0.46718192734E+03  0.12509000000E+03 0.  0.
         25    1    4    4    0    0 -0.37505879657E+01  0.53596932319E+02 -0.54613192579E+03  0.56284481567E+03  0.12509000000E+03 0.  0.
<mgrwt>
<rscale>  2 0.44870009E+03</rscale>
<asrwt>0</asrwt>
<pdfrwt beam="1">  1       21 0.38285336E-02 0.44870009E+03</pdfrwt>
<pdfrwt beam="2">  1       21 0.28431648E+00 0.44870009E+03</pdfrwt>
<totfact> 0.15109917E+04</totfact>
</mgrwt>
</event>
<event>
 7    0  0.4752811E-002  0.4522881E+03  0.7546771E-02  0.1027042E+00
         21   -1    0    0  502  501  0.00000000000E+00  0.00000000000E+00  0.17443458575E+03  0.17443458575E+03  0.00000000000E+00 0. -1.
         21   -1    0    0  501  502 -0.00000000000E+00 -0.00000000000E+00 -0.29318233186E+03  0.29318233186E+03  0.00000000000E+00 0. -1.
      99926    2    1    2    0    0  0.14210854715E-13 -0.71054273576E-14 -0.11874774611E+03  0.46761691761E+03  0.45228813209E+03 0.  0.
      99925    2    3    3    0    0 -0.87557646069E+02  0.53144653106E+02 -0.32146178154E+02  0.28421016961E+03  0.26315650895E+03 0.  0.
         25    1    4    4    0    0 -0.72926470084E+02  0.18517160235E+02  0.11669556620E+02  0.14644057468E+03  0.12509000000E+03 0.  0.
         25    1    3    3    0    0  0.87557646069E+02 -0.53144653106E+02 -0.86601567952E+02  0.18340674800E+03  0.12509000000E+03 0.  0.
         25    1    4    4    0    0 -0.14631175985E+02  0.34627492872E+02 -0.43815734775E+02  0.13776959493E+03  0.12509000000E+03 0.  0.
<mgrwt>
<rscale>  2 0.45228813E+03</rscale>
<asrwt>0</asrwt>
<pdfrwt beam="1">  1       21 0.25652145E-01 0.45228813E+03</pdfrwt>
<pdfrwt beam="2">  1       21 0.43115048E-01 0.45228813E+03</pdfrwt>
<totfact> 0.69087738E+04</totfact>
</mgrwt>
</event>
<event>
 7    0  0.4752811E-002  0.4418701E+03  0.7546771E-02  0.1030175E+00
         21   -1    0    0  502  501  0.00000000000E+00  0.00000000000E+00  0.17907282800E+04  0.17907282800E+04  0.00000000000E+00 0.  1.
         21   -1    0    0  501  502 -0.00000000000E+00 -0.00000000000E+00 -0.27258348294E+02  0.27258348294E+02  0.00000000000E+00 0.  1.
      99926    2    1    2    0    0  0.00000000000E+00  0.00000000000E+00  0.17634699317E+04  0.18179866283E+04  0.44187009474E+03 0.  0.
      99925    2    3    3    0    0 -0.82183952381E+02  0.56322107967E+02  0.11734536830E+04  0.12066822330E+04  0.26298685025E+03 0.  0.
         25    1    4    4    0    0 -0.41644840741E+01  0.23850126107E+02  0.62354832850E+03  0.63643239823E+03  0.12509000000E+03 0.  0.
         25    1    3    3    0    0  0.82183952381E+02 -0.56322107967E+02  0.59001624871E+03  0.61130439530E+03  0.12509000000E+03 0.  0.
         25    1    4    4    0    0 -0.78019468307E+02  0.32471981860E+02  0.54990535451E+03  0.57024983478E+03  0.12509000000E+03 0.  0.
<mgrwt>
<rscale>  2 0.44187009E+03</rscale>
<asrwt>0</asrwt>
<pdfrwt beam="1">  1       21 0.26334231E+00 0.44187009E+03</pdfrwt>
<pdfrwt beam="2">  1       21 0.40085819E-02 0.44187009E+03</pdfrwt>
<totfact> 0.18756066E+04</totfact>
</mgrwt>
</event>
<event>
 7    0  0.4752811E-002  0.4614894E+03  0.7546771E-02  0.1024350E+00
         21   -1    0    0  502  501  0.00000000000E+00  0.00000000000E+00  0.16789718900E+03  0.16789718900E+03  0.00000000000E+00 0. -1.
         21   -1    0    0  501  502 -0.00000000000E+00 -0.00000000000E+00 -0.31711731988E+03  0.31711731988E+03  0.00000000000E+00 0. -1.
      99926    2    1    2    0    0  0.00000000000E+00  0.00000000000E+00 -0.14922013088E+03  0.48501450888E+03  0.46148935672E+03 0.  0.
      99925    2    3    3    0    0 -0.33463807934E+02  0.97564511855E+02 -0.30653352707E+02  0.28415572914E+03  0.26299465765E+03 0.  0.
         25    1    4    4    0    0  0.55717113329E+01  0.83099899170E+02 -0.23697964539E+02  0.15213723684E+03  0.12509000000E+03 0.  0.
         25    1    4    4    0    0 -0.39035519267E+02  0.14464612685E+02 -0.69553881689E+01  0.13201849230E+03  0.12509000000E+03 0.  0.
         25    1    3    3    0    0  0.33463807934E+02 -0.97564511855E+02 -0.11856677817E+03  0.20085877975E+03  0.12509000000E+03 0.  0.
<mgrwt>
<rscale>  2 0.46148936E+03</rscale>
<asrwt>0</asrwt>
<pdfrwt beam="1">  1       21 0.24690763E-01 0.46148936E+03</pdfrwt>
<pdfrwt beam="2">  1       21 0.46634899E-01 0.46148936E+03</pdfrwt>
<totfact> 0.63027180E+04</totfact>
</mgrwt>
</event>
<event>
 7    0  0.4752811E-002  0.4562979E+03  0.7546771E-02  0.1025860E+00
         21   -1    0    0  502  501  0.00000000000E+00  0.00000000000E+00  0.23048328715E+03  0.23048328715E+03  0.00000000000E+00 0.  1.
         21   -1    0    0  501  502 -0.00000000000E+00 -0.00000000000E+00 -0.22583829756E+03  0.22583829756E+03  0.00000000000E+00 0.  1.
      99926    2    1    2    0    0  0.00000000000E+00  0.71054273576E-14  0.46449895895E+01  0.45632158471E+03  0.45629794295E+03 0.  0.
      99925    2    3    3    0    0  0.94813210015E+02  0.63787455894E+02  0.31889666564E+01  0.28688719497E+03  0.26312679227E+03 0.  0.
         25    1    4    4    0    0  0.46547660898E+02  0.59825096639E+02  0.31921906011E+02  0.14970719123E+03  0.12509000000E+03 0.  0.
         25    1    4    4    0    0  0.48265549116E+02  0.39623592553E+01 -0.28732939355E+02  0.13718000374E+03  0.12509000000E+03 0.  0.
         25    1    3    3    0    0 -0.94813210015E+02 -0.63787455894E+02  0.14560229331E+01  0.16943438974E+03  0.12509000000E+03 0.  0.
<mgrwt>
<rscale>  2 0.45629794E+03</rscale>
<asrwt>0</asrwt>
<pdfrwt beam="1">  1       21 0.33894601E-01 0.45629794E+03</pdfrwt>
<pdfrwt beam="2">  1       21 0.33211515E-01 0.45629794E+03</pdfrwt>
<totfact> 0.67744777E+04</totfact>
</mgrwt>
</event>
<event>
 7    0  0.4752811E-002  0.4232323E+03  0.7546771E-02  0.1036019E+00
         21   -1    0    0  502  501  0.00000000000E+00  0.00000000000E+00  0.15110375853E+03  0.15110375853E+03  0.00000000000E+00 0. -1.
         21   -1    0    0  501  502 -0.00000000000E+00 -0.00000000000E+00 -0.29636183742E+03  0.29636183742E+03  0.00000000000E+00 0. -1.
      99926    2    1    2    0    0 -0.88817841970E-15 -0.14210854715E-13 -0.14525807889E+03  0.44746559595E+03  0.42323226493E+03 0.  0.
      99925    2    3    3    0    0  0.64446833726E+01  0.78426065133E+02 -0.10815290022E+03  0.29509603200E+03  0.26304455257E+03 0.  0.
         25    1    3    3    0    0 -0.64446833726E+01 -0.78426065133E+02 -0.37105178668E+02  0.15236956396E+03  0.12509000000E+03 0.  0.
         25    1    4    4    0    0 -0.20903526504E+02  0.73116233865E+02 -0.59280600725E+02  0.15793871849E+03  0.12509000000E+03 0.  0.
         25    1    4    4    0    0  0.27348209876E+02  0.53098312680E+01 -0.48872299496E+02  0.13715731351E+03  0.12509000000E+03 0.  0.
<mgrwt>
<rscale>  2 0.42323226E+03</rscale>
<asrwt>0</asrwt>
<pdfrwt beam="1">  1       21 0.22221141E-01 0.42323226E+03</pdfrwt>
<pdfrwt beam="2">  1       21 0.43582622E-01 0.42323226E+03</pdfrwt>
<totfact> 0.89717376E+04</totfact>
</mgrwt>
</event>
<event>
 7    0  0.4752811E-002  0.4759212E+03  0.7546771E-02  0.1020262E+00
         21   -1    0    0  502  501  0.00000000000E+00  0.00000000000E+00  0.56889432376E+02  0.56889432376E+02  0.00000000000E+00 0.  1.
         21   -1    0    0  501  502 -0.00000000000E+00 -0.00000000000E+00 -0.99535635802E+03  0.99535635802E+03  0.00000000000E+00 0.  1.
      99926    2    1    2    0    0  0.53290705182E-14  0.14210854715E-13 -0.93846692564E+03  0.10522457904E+04  0.47592124651E+03 0.  0.
      99925    2    3    3    0    0 -0.15948192515E+02 -0.11351451205E+03 -0.72420014905E+03  0.77893708409E+03  0.26293960484E+03 0.  0.
         25    1    4    4    0    0  0.17324570336E+02 -0.85483575521E+02 -0.43193915770E+03  0.45806825526E+03  0.12509000000E+03 0.  0.
         25    1    4    4    0    0 -0.33272762851E+02 -0.28030936531E+02 -0.29226099134E+03  0.32086882882E+03  0.12509000000E+03 0.  0.
         25    1    3    3    0    0  0.15948192515E+02  0.11351451205E+03 -0.21426677660E+03  0.27330870631E+03  0.12509000000E+03 0.  0.
<mgrwt>
<rscale>  2 0.47592125E+03</rscale>
<asrwt>0</asrwt>
<pdfrwt beam="1">  1       21 0.83660929E-02 0.47592125E+03</pdfrwt>
<pdfrwt beam="2">  1       21 0.14637594E+00 0.47592125E+03</pdfrwt>
<totfact> 0.31694390E+04</totfact>
</mgrwt>
</event>
<event>
 6    0  0.4752811E-002  0.4574744E+03  0.7546771E-02  0.1025516E+00
         21   -1    0    0  502  501  0.00000000000E+00  0.00000000000E+00  0.33946042597E+03  0.33946042597E+03  0.00000000000E+00 0.  1.
         21   -1    0    0  501  502 -0.00000000000E+00 -0.00000000000E+00 -0.15412901245E+03  0.15412901245E+03  0.00000000000E+00 0.  1.
      99926    2    1    2    0    0  0.00000000000E+00 -0.14210854715E-13  0.18533141352E+03  0.49358943842E+03  0.45747437183E+03 0.  0.
         25    1    3    3    0    0  0.37534829979E+02  0.74780712798E+02  0.56121646984E+02  0.16061807441E+03  0.12509000000E+03 0.  0.
         25    1    3    3    0    0 -0.62836626474E+02 -0.98452812663E+02  0.40841391122E+02  0.17594580210E+03  0.12509000000E+03 0.  0.
         25    1    3    3    0    0  0.25301796495E+02  0.23672099865E+02  0.88368375415E+02  0.15702556190E+03  0.12509000000E+03 0.  0.
<mgrwt>
<rscale>  2 0.45747437E+03</rscale>
<asrwt>0</asrwt>
<pdfrwt beam="1">  1       21 0.49920651E-01 0.45747437E+03</pdfrwt>
<pdfrwt beam="2">  1       21 0.22666031E-01 0.45747437E+03</pdfrwt>
<totfact> 0.64448105E+04</totfact>
</mgrwt>
</event>
<event>
 7    0  0.4752811E-002  0.4507666E+03  0.7546771E-02  0.1027494E+00
         21   -1    0    0  502  501  0.00000000000E+00  0.00000000000E+00  0.12204826867E+03  0.12204826867E+03  0.00000000000E+00 0.  1.
         21   -1    0    0  501  502 -0.00000000000E+00 -0.00000000000E+00 -0.41620930322E+03  0.41620930322E+03  0.00000000000E+00 0.  1.
      99926    2    1    2    0    0  0.00000000000E+00  0.00000000000E+00 -0.29416103455E+03  0.53825757189E+03  0.45076656870E+03 0.  0.
      99925    2    3    3    0    0 -0.48221197403E+02  0.80413510755E+02 -0.11890254740E+03  0.30340727488E+03  0.26291926913E+03 0.  0.
         25    1    4    4    0    0 -0.24179964528E+02  0.71522637963E+02 -0.33830379730E+02  0.14997386812E+03  0.12509000000E+03 0.  0.
         25    1    4    4    0    0 -0.24041232874E+02  0.88908727920E+01 -0.85072167671E+02  0.15343340676E+03  0.12509000000E+03 0.  0.
         25    1    3    3    0    0  0.48221197403E+02 -0.80413510755E+02 -0.17525848715E+03  0.23485029702E+03  0.12509000000E+03 0.  0.
<mgrwt>
<rscale>  2 0.45076657E+03</rscale>
<asrwt>0</asrwt>
<pdfrwt beam="1">  1       21 0.17948275E-01 0.45076657E+03</pdfrwt>
<pdfrwt beam="2">  1       21 0.61207250E-01 0.45076657E+03</pdfrwt>
<totfact> 0.64792897E+04</totfact>
</mgrwt>
</event>
<event>
 7    0  0.4752811E-002  0.4555999E+03  0.7546771E-02  0.1026065E+00
         21   -1    0    0  502  501  0.00000000000E+00  0.00000000000E+00  0.14118005596E+03  0.14118005596E+03  0.00000000000E+00 0.  1.
         21   -1    0    0  501  502 -0.00000000000E+00 -0.00000000000E+00 -0.36756478941E+03  0.36756478941E+03  0.00000000000E+00 0.  1.
      99926    2    1    2    0    0  0.00000000000E+00  0.71054273576E-14 -0.22638473346E+03  0.50874484537E+03  0.45559990139E+03 0.  0.
      99925    2    3    3    0    0  0.30232660906E+02 -0.52253920627E+02 -0.25000515077E+03  0.36785510756E+03  0.26300250709E+03 0.  0.
         25    1    3    3    0    0 -0.30232660906E+02  0.52253920627E+02  0.23620417315E+02  0.14088973781E+03  0.12509000000E+03 0.  0.
         25    1    4    4    0    0 -0.90299593290E+01 -0.58873209221E+02 -0.12603728087E+03  0.18729788893E+03  0.12509000000E+03 0.  0.
         25    1    4    4    0    0  0.39262620235E+02  0.66192885935E+01 -0.12396786990E+03  0.18055721862E+03  0.12509000000E+03 0.  0.
<mgrwt>
<rscale>  2 0.45559990E+03</rscale>
<asrwt>0</asrwt>
<pdfrwt beam="1">  1       21 0.20761773E-01 0.45559990E+03</pdfrwt>
<pdfrwt beam="2">  1       21 0.54053646E-01 0.45559990E+03</pdfrwt>
<totfact> 0.64353626E+04</totfact>
</mgrwt>
</event>
<event>
 7    0  0.4752811E-002  0.4482909E+03  0.7546771E-02  0.1028233E+00
         21   -1    0    0  502  501  0.00000000000E+00  0.00000000000E+00  0.15193353040E+04  0.15193353040E+04  0.00000000000E+00 0. -1.
         21   -1    0    0  501  502 -0.00000000000E+00 -0.00000000000E+00 -0.33067871047E+02  0.33067871047E+02  0.00000000000E+00 0. -1.
      99926    2    1    2    0    0  0.00000000000E+00  0.00000000000E+00  0.14862674330E+04  0.15524031751E+04  0.44829090515E+03 0.  0.
      99925    2    3    3    0    0  0.70023892557E+02 -0.76600459448E+02  0.85575873905E+03  0.90128129928E+03  0.26308550901E+03 0.  0.
         25    1    3    3    0    0 -0.70023892557E+02  0.76600459448E+02  0.63050869391E+03  0.65112187578E+03  0.12509000000E+03 0.  0.
         25    1    4    4    0    0  0.11175868781E+02 -0.47808430904E+02  0.31661154889E+03  0.34394901817E+03  0.12509000000E+03 0.  0.
         25    1    4    4    0    0  0.58848023776E+02 -0.28792028543E+02  0.53914719016E+03  0.55733228111E+03  0.12509000000E+03 0.  0.
<mgrwt>
<rscale>  2 0.44829091E+03</rscale>
<asrwt>0</asrwt>
<pdfrwt beam="1">  1       21 0.22343162E+00 0.44829091E+03</pdfrwt>
<pdfrwt beam="2">  1       21 0.48629232E-02 0.44829091E+03</pdfrwt>
<totfact> 0.23736495E+04</totfact>
</mgrwt>
</event>
<event>
 7    0  0.4752811E-002  0.4513729E+03  0.7546771E-02  0.1027313E+00
         21   -1    0    0  502  501  0.00000000000E+00  0.00000000000E+00  0.57230970963E+03  0.57230970963E+03  0.00000000000E+00 0.  1.
         21   -1    0    0  501  502 -0.00000000000E+00 -0.00000000000E+00 -0.88997916282E+02  0.88997916282E+02  0.00000000000E+00 0.  1.
      99926    2    1    2    0    0 -0.35527136788E-14  0.35527136788E-14  0.48331179335E+03  0.66130762592E+03  0.45137289075E+03 0.  0.
      99925    2    3    3    0    0 -0.28863384658E+02 -0.16740360595E+02  0.15187597409E+03  0.30548387033E+03  0.26294628516E+03 0.  0.
         25    1    4    4    0    0  0.77808406789E+01  0.22075289974E+01  0.36966830407E+02  0.13068844370E+03  0.12509000000E+03 0.  0.
         25    1    3    3    0    0  0.28863384658E+02  0.16740360595E+02  0.33143581926E+03  0.35582375558E+03  0.12509000000E+03 0.  0.
         25    1    4    4    0    0 -0.36644225337E+02 -0.18947889592E+02  0.11490914368E+03  0.17479542664E+03  0.12509000000E+03 0.  0.
<mgrwt>
<rscale>  2 0.45137289E+03</rscale>
<asrwt>0</asrwt>
<pdfrwt beam="1">  1       21 0.84163191E-01 0.45137289E+03</pdfrwt>
<pdfrwt beam="2">  1       21 0.13087929E-01 0.45137289E+03</pdfrwt>
<totfact> 0.56657221E+04</totfact>
</mgrwt>
</event>
<event>
 7    0  0.4752811E-002  0.4533917E+03  0.7546771E-02  0.1026715E+00
         21   -1    0    0  502  501  0.00000000000E+00  0.00000000000E+00  0.37825685455E+03  0.37825685455E+03  0.00000000000E+00 0. -1.
         21   -1    0    0  501  502 -0.00000000000E+00 -0.00000000000E+00 -0.13586275126E+03  0.13586275126E+03  0.00000000000E+00 0. -1.
      99926    2    1    2    0    0  0.71054273576E-14 -0.14210854715E-13  0.24239410329E+03  0.51411960581E+03  0.45339173765E+03 0.  0.
      99925    2    3    3    0    0 -0.56399211289E+02  0.91752742273E+02  0.18532860241E+03  0.33946733345E+03  0.26323362791E+03 0.  0.
         25    1    3    3    0    0  0.56399211289E+02 -0.91752742273E+02  0.57065500886E+02  0.17465227236E+03  0.12509000000E+03 0.  0.
         25    1    4    4    0    0 -0.14771455751E+02  0.14195528542E+02  0.11487373005E+03  0.17106487334E+03  0.12509000000E+03 0.  0.
         25    1    4    4    0    0 -0.41627755538E+02  0.77557213731E+02  0.70454872355E+02  0.16840246011E+03  0.12509000000E+03 0.  0.
<mgrwt>
<rscale>  2 0.45339174E+03</rscale>
<asrwt>0</asrwt>
<pdfrwt beam="1">  1       21 0.55626008E-01 0.45339174E+03</pdfrwt>
<pdfrwt beam="2">  1       21 0.19979816E-01 0.45339174E+03</pdfrwt>
<totfact> 0.65116712E+04</totfact>
</mgrwt>
</event>
<event>
 7    0  0.4752811E-002  0.4593485E+03  0.7546771E-02  0.1024970E+00
         21   -1    0    0  502  501  0.00000000000E+00  0.00000000000E+00  0.38109191519E+03  0.38109191519E+03  0.00000000000E+00 0. -1.
         21   -1    0    0  501  502 -0.00000000000E+00 -0.00000000000E+00 -0.13841875517E+03  0.13841875517E+03  0.00000000000E+00 0. -1.
      99926    2    1    2    0    0  0.00000000000E+00 -0.71054273576E-14  0.24267316002E+03  0.51951067036E+03  0.45934853219E+03 0.  0.
      99925    2    3    3    0    0 -0.10185019529E+03  0.40218247078E+02  0.10407050430E+03  0.30306397034E+03  0.26272824472E+03 0.  0.
         25    1    4    4    0    0 -0.40323917324E+02  0.36005681685E+02  0.89058728132E+02  0.16279248318E+03  0.12509000000E+03 0.  0.
         25    1    4    4    0    0 -0.61526277964E+02  0.42125653930E+01  0.15011776172E+02  0.14027148716E+03  0.12509000000E+03 0.  0.
         25    1    3    3    0    0  0.10185019529E+03 -0.40218247078E+02  0.13860265571E+03  0.21644670002E+03  0.12509000000E+03 0.  0.
<mgrwt>
<rscale>  2 0.45934853E+03</rscale>
<asrwt>0</asrwt>
<pdfrwt beam="1">  1       21 0.56042928E-01 0.45934853E+03</pdfrwt>
<pdfrwt beam="2">  1       21 0.20355699E-01 0.45934853E+03</pdfrwt>
<totfact> 0.61761933E+04</totfact>
</mgrwt>
</event>
<event>
 7    0  0.4752811E-002  0.4576353E+03  0.7546771E-02  0.1025469E+00
         21   -1    0    0  502  501  0.00000000000E+00  0.00000000000E+00  0.44615756769E+03  0.44615756769E+03  0.00000000000E+00 0.  1.
         21   -1    0    0  501  502 -0.00000000000E+00 -0.00000000000E+00 -0.11735208122E+03  0.11735208122E+03  0.00000000000E+00 0.  1.
      99926    2    1    2    0    0  0.71054273576E-14  0.00000000000E+00  0.32880548647E+03  0.56350964890E+03  0.45763530947E+03 0.  0.
      99925    2    3    3    0    0  0.35847873739E+02 -0.10521997005E+03  0.24539279671E+03  0.37652971131E+03  0.26306023393E+03 0.  0.
         25    1    4    4    0    0 -0.13047237603E+02 -0.72103615189E+02  0.14927077725E+03  0.20808275943E+03  0.12509000000E+03 0.  0.
         25    1    4    4    0    0  0.48895111342E+02 -0.33116354857E+02  0.96122019466E+02  0.16844695188E+03  0.12509000000E+03 0.  0.
         25    1    3    3    0    0 -0.35847873739E+02  0.10521997005E+03  0.83412689756E+02  0.18697993759E+03  0.12509000000E+03 0.  0.
<mgrwt>
<rscale>  2 0.45763531E+03</rscale>
<asrwt>0</asrwt>
<pdfrwt beam="1">  1       21 0.65611406E-01 0.45763531E+03</pdfrwt>
<pdfrwt beam="2">  1       21 0.17257659E-01 0.45763531E+03</pdfrwt>
<totfact> 0.59727823E+04</totfact>
</mgrwt>
</event>
<event>
 7    0  0.4752811E-002  0.4456606E+03  0.7546771E-02  0.1029024E+00
         21   -1    0    0  502  501  0.00000000000E+00  0.00000000000E+00  0.17879462940E+02  0.17879462940E+02  0.00000000000E+00 0.  1.
         21   -1    0    0  501  502 -0.00000000000E+00 -0.00000000000E+00 -0.27771164633E+04  0.27771164633E+04  0.00000000000E+00 0.  1.
      99926    2    1    2    0    0  0.14210854715E-13 -0.35527136788E-14 -0.27592370003E+04  0.27949959262E+04  0.44566063719E+03 0.  0.
      99925    2    3    3    0    0  0.10004165389E+03 -0.29873941680E+02 -0.17550479366E+04  0.17776739670E+04  0.26273691829E+03 0.  0.
         25    1    4    4    0    0  0.45291244789E+02 -0.28153011801E+02 -0.11121759874E+04  0.11204583098E+04  0.12509000000E+03 0.  0.
         25    1    3    3    0    0 -0.10004165389E+03  0.29873941680E+02 -0.10041890637E+04  0.10173219592E+04  0.12509000000E+03 0.  0.
         25    1    4    4    0    0  0.54750409101E+02 -0.17209298784E+01 -0.64287194928E+03  0.65721565727E+03  0.12509000000E+03 0.  0.
<mgrwt>
<rscale>  2 0.44566064E+03</rscale>
<asrwt>0</asrwt>
<pdfrwt beam="1">  1       21 0.26293330E-02 0.44566064E+03</pdfrwt>
<pdfrwt beam="2">  1       21 0.40839945E+00 0.44566064E+03</pdfrwt>
<totfact> 0.49069423E+03</totfact>
</mgrwt>
</event>
<event>
 7    0  0.4752811E-002  0.4411869E+03  0.7546771E-02  0.1030383E+00
         21   -1    0    0  502  501  0.00000000000E+00  0.00000000000E+00  0.26506391224E+03  0.26506391224E+03  0.00000000000E+00 0.  1.
         21   -1    0    0  501  502 -0.00000000000E+00 -0.00000000000E+00 -0.18358392962E+03  0.18358392962E+03  0.00000000000E+00 0.  1.
      99926    2    1    2    0    0 -0.35527136788E-14  0.00000000000E+00  0.81479982618E+02  0.44864784186E+03  0.44118692007E+03 0.  0.
      99925    2    3    3    0    0  0.24804310761E+02  0.23048710871E+02 -0.43433990280E+02  0.26865477080E+03  0.26294938192E+03 0.  0.
         25    1    4    4    0    0  0.47709456356E+02  0.31777926540E+02 -0.19881252756E+02  0.13902805887E+03  0.12509000000E+03 0.  0.
         25    1    4    4    0    0 -0.22905145595E+02 -0.87292156681E+01 -0.23552737524E+02  0.12962671193E+03  0.12509000000E+03 0.  0.
         25    1    3    3    0    0 -0.24804310761E+02 -0.23048710871E+02  0.12491397290E+03  0.17999307106E+03  0.12509000000E+03 0.  0.
<mgrwt>
<rscale>  2 0.44118692E+03</rscale>
<asrwt>0</asrwt>
<pdfrwt beam="1">  1       21 0.38979987E-01 0.44118692E+03</pdfrwt>
<pdfrwt beam="2">  1       21 0.26997637E-01 0.44118692E+03</pdfrwt>
<totfact> 0.77171138E+04</totfact>
</mgrwt>
</event>
<event>
 7    0  0.4752811E-002  0.4536468E+03  0.7546771E-02  0.1026640E+00
         21   -1    0    0  502  501  0.00000000000E+00  0.00000000000E+00  0.43843835569E+02  0.43843835569E+02  0.00000000000E+00 0.  1.
         21   -1    0    0  501  502 -0.00000000000E+00 -0.00000000000E+00 -0.11734571273E+04  0.11734571273E+04  0.00000000000E+00 0.  1.
      99926    2    1    2    0    0  0.00000000000E+00  0.00000000000E+00 -0.11296132917E+04  0.12173009628E+04  0.45364682886E+03 0.  0.
      99925    2    3    3    0    0  0.57108034790E+02  0.78359521594E+02 -0.56205736177E+03  0.62809065746E+03  0.26303584130E+03 0.  0.
         25    1    4    4    0    0  0.23669853783E+02  0.22312012135E+02 -0.18654171477E+03  0.22694362144E+03  0.12509000000E+03 0.  0.
         25    1    3    3    0    0 -0.57108034790E+02 -0.78359521594E+02 -0.56755592992E+03  0.58921030536E+03  0.12509000000E+03 0.  0.
         25    1    4    4    0    0  0.33438181007E+02  0.56047509459E+02 -0.37551564700E+03  0.40114703602E+03  0.12509000000E+03 0.  0.
<mgrwt>
<rscale>  2 0.45364683E+03</rscale>
<asrwt>0</asrwt>
<pdfrwt beam="1">  1       21 0.64476231E-02 0.45364683E+03</pdfrwt>
<pdfrwt beam="2">  1       21 0.17256722E+00 0.45364683E+03</pdfrwt>
<totfact> 0.31947738E+04</totfact>
</mgrwt>
</event>
<event>
 7    0  0.4752811E-002  0.4754975E+03  0.7546771E-02  0.1020380E+00
         21   -1    0    0  502  501  0.00000000000E+00  0.00000000000E+00  0.95546354420E+02  0.95546354420E+02  0.00000000000E+00 0.  1.
         21   -1    0    0  501  502 -0.00000000000E+00 -0.00000000000E+00 -0.59159204507E+03  0.59159204507E+03  0.00000000000E+00 0.  1.
      99926    2    1    2    0    0 -0.22204460493E-14  0.00000000000E+00 -0.49604569065E+03  0.68713839949E+03  0.47549747932E+03 0.  0.
      99925    2    3    3    0    0 -0.35896112768E+01 -0.47342454897E+02 -0.48386986716E+03  0.55278828925E+03  0.26304115845E+03 0.  0.
         25    1    4    4    0    0 -0.36696230406E+02 -0.36207700209E+02 -0.28153948522E+03  0.31236133038E+03  0.12509000000E+03 0.  0.
         25    1    4    4    0    0  0.33106619129E+02 -0.11134754688E+02 -0.20233038194E+03  0.24042695886E+03  0.12509000000E+03 0.  0.
         25    1    3    3    0    0  0.35896112768E+01  0.47342454897E+02 -0.12175823489E+02  0.13435011024E+03  0.12509000000E+03 0.  0.
<mgrwt>
<rscale>  2 0.47549748E+03</rscale>
<asrwt>0</asrwt>
<pdfrwt beam="1">  1       21 0.14050934E-01 0.47549748E+03</pdfrwt>
<pdfrwt beam="2">  1       21 0.86998830E-01 0.47549748E+03</pdfrwt>
<totfact> 0.45757169E+04</totfact>
</mgrwt>
</event>
<event>
 7    0  0.4752811E-002  0.4546887E+03  0.7546771E-02  0.1026333E+00
         21   -1    0    0  502  501  0.00000000000E+00  0.00000000000E+00  0.55586964274E+02  0.55586964274E+02  0.00000000000E+00 0.  1.
         21   -1    0    0  501  502 -0.00000000000E+00 -0.00000000000E+00 -0.92981232107E+03  0.92981232107E+03  0.00000000000E+00 0.  1.
      99926    2    1    2    0    0  0.00000000000E+00  0.00000000000E+00 -0.87422535680E+03  0.98539928535E+03  0.45468865952E+03 0.  0.
      99925    2    3    3    0    0  0.66147937694E+02  0.83535977240E+02 -0.63062007275E+03  0.69155434040E+03  0.26308158509E+03 0.  0.
         25    1    4    4    0    0  0.63457408496E+02  0.18699770979E+02 -0.28147938030E+03  0.31504709769E+03  0.12509000000E+03 0.  0.
         25    1    3    3    0    0 -0.66147937694E+02 -0.83535977240E+02 -0.24360528404E+03  0.29384494494E+03  0.12509000000E+03 0.  0.
         25    1    4    4    0    0  0.26905291979E+01  0.64836206261E+02 -0.34914069246E+03  0.37650724272E+03  0.12509000000E+03 0.  0.
<mgrwt>
<rscale>  2 0.45468866E+03</rscale>
<asrwt>0</asrwt>
<pdfrwt beam="1">  1       21 0.81745542E-02 0.45468866E+03</pdfrwt>
<pdfrwt beam="2">  1       21 0.13673710E+00 0.45468866E+03</pdfrwt>
<totfact> 0.39836193E+04</totfact>
</mgrwt>
</event>
<event>
 7    0  0.4752811E-002  0.4318513E+03  0.7546771E-02  0.1033277E+00
         21   -1    0    0  502  501  0.00000000000E+00  0.00000000000E+00  0.14079198084E+04  0.14079198084E+04  0.00000000000E+00 0.  1.
         21   -1    0    0  501  502 -0.00000000000E+00 -0.00000000000E+00 -0.33115443534E+02  0.33115443534E+02  0.00000000000E+00 0.  1.
      99926    2    1    2    0    0  0.00000000000E+00  0.00000000000E+00  0.13748043649E+04  0.14410352520E+04  0.43185131199E+03 0.  0.
      99925    2    3    3    0    0 -0.65890873456E+02  0.28408730688E+02  0.70514059813E+03  0.75602011943E+03  0.26304846448E+03 0.  0.
         25    1    4    4    0    0 -0.54009078239E+02 -0.19982769819E+02  0.33876521274E+03  0.36568520491E+03  0.12509000000E+03 0.  0.
         25    1    3    3    0    0  0.65890873456E+02 -0.28408730688E+02  0.66966376678E+03  0.68501513255E+03  0.12509000000E+03 0.  0.
         25    1    4    4    0    0 -0.11881795217E+02  0.48391500507E+02  0.36637538539E+03  0.39033491452E+03  0.12509000000E+03 0.  0.
<mgrwt>
<rscale>  2 0.43185131E+03</rscale>
<asrwt>0</asrwt>
<pdfrwt beam="1">  1       21 0.20704699E+00 0.43185131E+03</pdfrwt>
<pdfrwt beam="2">  1       21 0.48699191E-02 0.43185131E+03</pdfrwt>
<totfact> 0.30364005E+04</totfact>
</mgrwt>
</event>
<event>
 7    0  0.4752811E-002  0.4510645E+03  0.7546771E-02  0.1027405E+00
         21   -1    0    0  502  501  0.00000000000E+00  0.00000000000E+00  0.44738091847E+03  0.44738091847E+03  0.00000000000E+00 0.  1.
         21   -1    0    0  501  502 -0.00000000000E+00 -0.00000000000E+00 -0.11369461915E+03  0.11369461915E+03  0.00000000000E+00 0.  1.
      99926    2    1    2    0    0 -0.71054273576E-14  0.71054273576E-14  0.33368629932E+03  0.56107553761E+03  0.45106453258E+03 0.  0.
      99925    2    3    3    0    0  0.61861532559E+02 -0.48724423977E+02  0.30518062741E+03  0.41053982712E+03  0.26307188296E+03 0.  0.
         25    1    4    4    0    0  0.10645442959E+02 -0.50541431905E+02  0.11737900482E+03  0.17914547348E+03  0.12509000000E+03 0.  0.
         25    1    4    4    0    0  0.51216089600E+02  0.18170079286E+01  0.18780162259E+03  0.23139435365E+03  0.12509000000E+03 0.  0.
         25    1    3    3    0    0 -0.61861532559E+02  0.48724423977E+02  0.28505671916E+02  0.15053571049E+03  0.12509000000E+03 0.  0.
<mgrwt>
<rscale>  2 0.45106453E+03</rscale>
<asrwt>0</asrwt>
<pdfrwt beam="1">  1       21 0.65791311E-01 0.45106453E+03</pdfrwt>
<pdfrwt beam="2">  1       21 0.16719797E-01 0.45106453E+03</pdfrwt>
<totfact> 0.63081291E+04</totfact>
</mgrwt>
</event>
<event>
 7    0  0.4752811E-002  0.4527437E+03  0.7546771E-02  0.1026907E+00
         21   -1    0    0  502  501  0.00000000000E+00  0.00000000000E+00  0.11811425567E+04  0.11811425567E+04  0.00000000000E+00 0. -1.
         21   -1    0    0  501  502 -0.00000000000E+00 -0.00000000000E+00 -0.43385283776E+02  0.43385283776E+02  0.00000000000E+00 0. -1.
      99926    2    1    2    0    0 -0.14210854715E-13  0.71054273576E-14  0.11377572729E+04  0.12245278404E+04  0.45274365816E+03 0.  0.
      99925    2    3    3    0    0 -0.94779958660E+02  0.57608755119E+02  0.70941007504E+03  0.76471174760E+03  0.26309578697E+03 0.  0.
         25    1    4    4    0    0 -0.15070496671E+02  0.42081324485E+02  0.39467187184E+03  0.41642688706E+03  0.12509000000E+03 0.  0.
         25    1    4    4    0    0 -0.79709461989E+02  0.15527430633E+02  0.31473820320E+03  0.34828486054E+03  0.12509000000E+03 0.  0.
         25    1    3    3    0    0  0.94779958660E+02 -0.57608755119E+02  0.42834719785E+03  0.45981609284E+03  0.12509000000E+03 0.  0.
<mgrwt>
<rscale>  2 0.45274366E+03</rscale>
<asrwt>0</asrwt>
<pdfrwt beam="1">  1       21 0.17369741E+00 0.45274366E+03</pdfrwt>
<pdfrwt beam="2">  1       21 0.63801896E-02 0.45274366E+03</pdfrwt>
<totfact> 0.31945276E+04</totfact>
</mgrwt>
</event>
<event>
 7    0  0.4752811E-002  0.4541568E+03  0.7546771E-02  0.1026490E+00
         21   -1    0    0  502  501  0.00000000000E+00  0.00000000000E+00  0.12735006278E+03  0.12735006278E+03  0.00000000000E+00 0.  1.
         21   -1    0    0  501  502 -0.00000000000E+00 -0.00000000000E+00 -0.40490442003E+03  0.40490442003E+03  0.00000000000E+00 0.  1.
      99926    2    1    2    0    0  0.00000000000E+00  0.00000000000E+00 -0.27755435724E+03  0.53225448281E+03  0.45415681570E+03 0.  0.
      99925    2    3    3    0    0 -0.67806342399E+02  0.85722719134E+02 -0.14423239211E+03  0.31925603415E+03  0.26301206771E+03 0.  0.
         25    1    4    4    0    0 -0.25844516667E+02  0.42236340948E+01 -0.46767632072E+02  0.13609003504E+03  0.12509000000E+03 0.  0.
         25    1    4    4    0    0 -0.41961825732E+02  0.81499085040E+02 -0.97464760039E+02  0.18316599911E+03  0.12509000000E+03 0.  0.
         25    1    3    3    0    0  0.67806342399E+02 -0.85722719134E+02 -0.13332196513E+03  0.21299844866E+03  0.12509000000E+03 0.  0.
<mgrwt>
<rscale>  2 0.45415682E+03</rscale>
<asrwt>0</asrwt>
<pdfrwt beam="1">  1       21 0.18727951E-01 0.45415682E+03</pdfrwt>
<pdfrwt beam="2">  1       21 0.59544767E-01 0.45415682E+03</pdfrwt>
<totfact> 0.63477198E+04</totfact>
</mgrwt>
</event>
<event>
 7    0  0.4752811E-002  0.4572164E+03  0.7546771E-02  0.1025592E+00
         21   -1    0    0  502  501  0.00000000000E+00  0.00000000000E+00  0.69308303807E+03  0.69308303807E+03  0.00000000000E+00 0. -1.
         21   -1    0    0  501  502 -0.00000000000E+00 -0.00000000000E+00 -0.75404673874E+02  0.75404673874E+02  0.00000000000E+00 0. -1.
      99926    2    1    2    0    0  0.71054273576E-14  0.00000000000E+00  0.61767836419E+03  0.76848771194E+03  0.45721636214E+03 0.  0.
      99925    2    3    3    0    0  0.61380321582E+02  0.49446486115E+02  0.52913830011E+03  0.59615271864E+03  0.26305555390E+03 0.  0.
         25    1    4    4    0    0  0.49410775899E+02  0.59652374448E+02  0.25472921790E+03  0.29416715164E+03  0.12509000000E+03 0.  0.
         25    1    4    4    0    0  0.11969545683E+02 -0.10205888332E+02  0.27440908221E+03  0.30198556701E+03  0.12509000000E+03 0.  0.
         25    1    3    3    0    0 -0.61380321582E+02 -0.49446486115E+02  0.88540064086E+02  0.17233499330E+03  0.12509000000E+03 0.  0.
<mgrwt>
<rscale>  2 0.45721636E+03</rscale>
<asrwt>0</asrwt>
<pdfrwt beam="1">  1       21 0.10192397E+00 0.45721636E+03</pdfrwt>
<pdfrwt beam="2">  1       21 0.11088923E-01 0.45721636E+03</pdfrwt>
<totfact> 0.48477716E+04</totfact>
</mgrwt>
</event>
<event>
 7    0  0.4752811E-002  0.4572968E+03  0.7546771E-02  0.1025568E+00
         21   -1    0    0  502  501  0.00000000000E+00  0.00000000000E+00  0.23829745871E+03  0.23829745871E+03  0.00000000000E+00 0. -1.
         21   -1    0    0  501  502 -0.00000000000E+00 -0.00000000000E+00 -0.21939005920E+03  0.21939005920E+03  0.00000000000E+00 0. -1.
      99926    2    1    2    0    0  0.35527136788E-14  0.00000000000E+00  0.18907399510E+02  0.45768751791E+03  0.45729681203E+03 0.  0.
      99925    2    3    3    0    0 -0.25217038574E+02 -0.11206259484E+03  0.17151672558E+01  0.28699186727E+03  0.26299708342E+03 0.  0.
         25    1    4    4    0    0  0.19945443486E+01 -0.21595623944E+02  0.22270032195E+02  0.12889457558E+03  0.12509000000E+03 0.  0.
         25    1    3    3    0    0  0.25217038574E+02  0.11206259484E+03  0.17192232254E+02  0.17069565063E+03  0.12509000000E+03 0.  0.
         25    1    4    4    0    0 -0.27211582923E+02 -0.90466970891E+02 -0.20554864939E+02  0.15809729169E+03  0.12509000000E+03 0.  0.
<mgrwt>
<rscale>  2 0.45729681E+03</rscale>
<asrwt>0</asrwt>
<pdfrwt beam="1">  1       21 0.35043744E-01 0.45729681E+03</pdfrwt>
<pdfrwt beam="2">  1       21 0.32263244E-01 0.45729681E+03</pdfrwt>
<totfact> 0.67111038E+04</totfact>
</mgrwt>
</event>
<event>
 7    0  0.4752811E-002  0.4502028E+03  0.7546771E-02  0.1027662E+00
         21   -1    0    0  502  501  0.00000000000E+00  0.00000000000E+00  0.50717426064E+02  0.50717426064E+02  0.00000000000E+00 0.  1.
         21   -1    0    0  501  502 -0.00000000000E+00 -0.00000000000E+00 -0.99907739681E+03  0.99907739681E+03  0.00000000000E+00 0.  1.
      99926    2    1    2    0    0  0.17763568394E-14  0.00000000000E+00 -0.94835997074E+03  0.10497948229E+04  0.45020277211E+03 0.  0.
      99925    2    3    3    0    0 -0.14140045963E+02  0.24418693814E+02 -0.84395390689E+03  0.88443355843E+03  0.26299868597E+03 0.  0.
         25    1    3    3    0    0  0.14140045963E+02 -0.24418693814E+02 -0.10440606386E+03  0.16536126444E+03  0.12509000000E+03 0.  0.
         25    1    4    4    0    0 -0.19834959621E+02  0.49613246784E+02 -0.40178902433E+03  0.42418961332E+03  0.12509000000E+03 0.  0.
         25    1    4    4    0    0  0.56949136582E+01 -0.25194552970E+02 -0.44216488256E+03  0.46024394511E+03  0.12509000000E+03 0.  0.
<mgrwt>
<rscale>  2 0.45020277E+03</rscale>
<asrwt>0</asrwt>
<pdfrwt beam="1">  1       21 0.74584449E-02 0.45020277E+03</pdfrwt>
<pdfrwt beam="2">  1       21 0.14692315E+00 0.45020277E+03</pdfrwt>
<totfact> 0.38714323E+04</totfact>
</mgrwt>
</event>
<event>
 7    0  0.4752811E-002  0.4531649E+03  0.7546771E-02  0.1026782E+00
         21   -1    0    0  502  501  0.00000000000E+00  0.00000000000E+00  0.14076642646E+03  0.14076642646E+03  0.00000000000E+00 0. -1.
         21   -1    0    0  501  502 -0.00000000000E+00 -0.00000000000E+00 -0.36471486383E+03  0.36471486383E+03  0.00000000000E+00 0. -1.
      99926    2    1    2    0    0  0.00000000000E+00  0.00000000000E+00 -0.22394843737E+03  0.50548129030E+03  0.45316490623E+03 0.  0.
      99925    2    3    3    0    0 -0.76275034769E+02  0.81270132156E+02 -0.14016295934E+03  0.31815742706E+03  0.26297486175E+03 0.  0.
         25    1    3    3    0    0  0.76275034769E+02 -0.81270132156E+02 -0.83785478031E+02  0.18732386324E+03  0.12509000000E+03 0.  0.
         25    1    4    4    0    0 -0.23606551246E+02  0.59909329771E+02 -0.34578586365E+02  0.14487782367E+03  0.12509000000E+03 0.  0.
         25    1    4    4    0    0 -0.52668483523E+02  0.21360802386E+02 -0.10558437298E+03  0.17327960339E+03  0.12509000000E+03 0.  0.
<mgrwt>
<rscale>  2 0.45316491E+03</rscale>
<asrwt>0</asrwt>
<pdfrwt beam="1">  1       21 0.20700946E-01 0.45316491E+03</pdfrwt>
<pdfrwt beam="2">  1       21 0.53634538E-01 0.45316491E+03</pdfrwt>
<totfact> 0.65841047E+04</totfact>
</mgrwt>
</event>
<event>
 7    0  0.4752811E-002  0.4471327E+03  0.7546771E-02  0.1028581E+00
         21   -1    0    0  502  501  0.00000000000E+00  0.00000000000E+00  0.56466351958E+03  0.56466351958E+03  0.00000000000E+00 0.  1.
         21   -1    0    0  501  502 -0.00000000000E+00 -0.00000000000E+00 -0.88516276244E+02  0.88516276244E+02  0.00000000000E+00 0.  1.
      99926    2    1    2    0    0  0.00000000000E+00 -0.12212453271E-14  0.47614724334E+03  0.65317979582E+03  0.44713269656E+03 0.  0.
      99925    2    3    3    0    0 -0.10540435404E+03 -0.40413933976E+00  0.29108268880E+03  0.40618457598E+03  0.26295729096E+03 0.  0.
         25    1    3    3    0    0  0.10540435404E+03  0.40413933976E+00  0.18506455454E+03  0.24699521984E+03  0.12509000000E+03 0.  0.
         25    1    4    4    0    0 -0.42507064696E+02 -0.31918574833E+02  0.10827075825E+03  0.17376913178E+03  0.12509000000E+03 0.  0.
         25    1    4    4    0    0 -0.62897289342E+02  0.31514435493E+02  0.18281193055E+03  0.23241544420E+03  0.12509000000E+03 0.  0.
<mgrwt>
<rscale>  2 0.44713270E+03</rscale>
<asrwt>0</asrwt>
<pdfrwt beam="1">  1       21 0.83038751E-01 0.44713270E+03</pdfrwt>
<pdfrwt beam="2">  1       21 0.13017100E-01 0.44713270E+03</pdfrwt>
<totfact> 0.59101655E+04</totfact>
</mgrwt>
</event>
<event>
 7    0  0.4752811E-002  0.4963513E+03  0.7546771E-02  0.1014736E+00
         21   -1    0    0  502  501  0.00000000000E+00  0.00000000000E+00  0.65021696423E+02  0.65021696423E+02  0.00000000000E+00 0.  1.
         21   -1    0    0  501  502 -0.00000000000E+00 -0.00000000000E+00 -0.94723991348E+03  0.94723991348E+03  0.00000000000E+00 0.  1.
      99926    2    1    2    0    0  0.71054273576E-14  0.00000000000E+00 -0.88221821706E+03  0.10122616099E+04  0.49635127115E+03 0.  0.
      99925    2    3    3    0    0  0.37966298598E+02 -0.63812948774E+02 -0.27450680662E+03  0.38738226256E+03  0.26305417352E+03 0.  0.
         25    1    4    4    0    0  0.17700052813E+02 -0.72133969137E+02 -0.13118590236E+03  0.19589244613E+03  0.12509000000E+03 0.  0.
         25    1    3    3    0    0 -0.37966298598E+02  0.63812948774E+02 -0.60771141044E+03  0.62487934734E+03  0.12509000000E+03 0.  0.
         25    1    4    4    0    0  0.20266245785E+02  0.83210203636E+01 -0.14332090426E+03  0.19148981643E+03  0.12509000000E+03 0.  0.
<mgrwt>
<rscale>  2 0.49635127E+03</rscale>
<asrwt>0</asrwt>
<pdfrwt beam="1">  1       21 0.95620148E-02 0.49635127E+03</pdfrwt>
<pdfrwt beam="2">  1       21 0.13929998E+00 0.49635127E+03</pdfrwt>
<totfact> 0.28362910E+04</totfact>
</mgrwt>
</event>
<event>
 7    0  0.4752811E-002  0.4558799E+03  0.7546771E-02  0.1025983E+00
         21   -1    0    0  502  501  0.00000000000E+00  0.00000000000E+00  0.97660700854E+03  0.97660700854E+03  0.00000000000E+00 0.  1.
         21   -1    0    0  501  502 -0.00000000000E+00 -0.00000000000E+00 -0.53201152641E+02  0.53201152641E+02  0.00000000000E+00 0.  1.
      99926    2    1    2    0    0  0.00000000000E+00  0.00000000000E+00  0.92340585590E+03  0.10298081612E+04  0.45587989002E+03 0.  0.
      99925    2    3    3    0    0 -0.89219173414E+02 -0.69766494220E+02  0.59943153014E+03  0.66452156620E+03  0.26352102004E+03 0.  0.
         25    1    3    3    0    0  0.89219173414E+02  0.69766494220E+02  0.32397432576E+03  0.36528659498E+03  0.12509000000E+03 0.  0.
         25    1    4    4    0    0 -0.80518936741E+02 -0.22475832244E+02  0.35924154583E+03  0.38947459296E+03  0.12509000000E+03 0.  0.
         25    1    4    4    0    0 -0.87002366728E+01 -0.47290661977E+02  0.24018998431E+03  0.27504697324E+03  0.12509000000E+03 0.  0.
<mgrwt>
<rscale>  2 0.45587989E+03</rscale>
<asrwt>0</asrwt>
<pdfrwt beam="1">  1       21 0.14361867E+00 0.45587989E+03</pdfrwt>
<pdfrwt beam="2">  1       21 0.78236995E-02 0.45587989E+03</pdfrwt>
<totfact> 0.37767033E+04</totfact>
</mgrwt>
</event>
<event>
 7    0  0.4752811E-002  0.4540292E+03  0.7546771E-02  0.1026527E+00
         21   -1    0    0  502  501  0.00000000000E+00  0.00000000000E+00  0.14144532443E+03  0.14144532443E+03  0.00000000000E+00 0. -1.
         21   -1    0    0  501  502 -0.00000000000E+00 -0.00000000000E+00 -0.36435025257E+03  0.36435025257E+03  0.00000000000E+00 0. -1.
      99926    2    1    2    0    0  0.00000000000E+00  0.00000000000E+00 -0.22290492814E+03  0.50579557700E+03  0.45402924876E+03 0.  0.
      99925    2    3    3    0    0  0.21313342174E+02  0.96820930819E+02 -0.19934510282E+03  0.34445393740E+03  0.26283358571E+03 0.  0.
         25    1    4    4    0    0 -0.47302093403E+01  0.82910701396E+02 -0.12890152089E+03  0.19788802256E+03  0.12509000000E+03 0.  0.
         25    1    4    4    0    0  0.26043551514E+02  0.13910229423E+02 -0.70443581927E+02  0.14656591484E+03  0.12509000000E+03 0.  0.
         25    1    3    3    0    0 -0.21313342174E+02 -0.96820930819E+02 -0.23559825320E+02  0.16134163960E+03  0.12509000000E+03 0.  0.
<mgrwt>
<rscale>  2 0.45402925E+03</rscale>
<asrwt>0</asrwt>
<pdfrwt beam="1">  1       21 0.20800783E-01 0.45402925E+03</pdfrwt>
<pdfrwt beam="2">  1       21 0.53580919E-01 0.45402925E+03</pdfrwt>
<totfact> 0.65367594E+04</totfact>
</mgrwt>
</event>
<event>
 7    0  0.4752811E-002  0.4671287E+03  0.7546771E-02  0.1022734E+00
         21   -1    0    0  502  501  0.00000000000E+00  0.00000000000E+00  0.26511517495E+03  0.26511517495E+03  0.00000000000E+00 0. -1.
         21   -1    0    0  501  502 -0.00000000000E+00 -0.00000000000E+00 -0.20576828635E+03  0.20576828635E+03  0.00000000000E+00 0. -1.
      99926    2    1    2    0    0  0.00000000000E+00  0.00000000000E+00  0.59346888608E+02  0.47088346130E+03  0.46712865566E+03 0.  0.
      99925    2    3    3    0    0 -0.61783245586E+02  0.83442416192E+02 -0.31402177646E+02  0.28470422674E+03  0.26323106524E+03 0.  0.
         25    1    4    4    0    0 -0.92386465353E+01  0.74940453742E+02 -0.48600895057E+01  0.14619354557E+03  0.12509000000E+03 0.  0.
         25    1    3    3    0    0  0.61783245586E+02 -0.83442416192E+02  0.90749066254E+02  0.18617923456E+03  0.12509000000E+03 0.  0.
         25    1    4    4    0    0 -0.52544599050E+02  0.85019624496E+01 -0.26542088140E+02  0.13851068117E+03  0.12509000000E+03 0.  0.
<mgrwt>
<rscale>  2 0.46712866E+03</rscale>
<asrwt>0</asrwt>
<pdfrwt beam="1">  1       21 0.38987525E-01 0.46712866E+03</pdfrwt>
<pdfrwt beam="2">  1       21 0.30260042E-01 0.46712866E+03</pdfrwt>
<totfact> 0.61252076E+04</totfact>
</mgrwt>
</event>
<event>
 7    0  0.4752811E-002  0.4542024E+03  0.7546771E-02  0.1026476E+00
         21   -1    0    0  502  501  0.00000000000E+00  0.00000000000E+00  0.43603658031E+03  0.43603658031E+03  0.00000000000E+00 0. -1.
         21   -1    0    0  501  502 -0.00000000000E+00 -0.00000000000E+00 -0.11828124962E+03  0.11828124962E+03  0.00000000000E+00 0. -1.
      99926    2    1    2    0    0  0.71054273576E-14 -0.35527136788E-14  0.31775533069E+03  0.55431782994E+03  0.45420238485E+03 0.  0.
      99925    2    3    3    0    0  0.63962477932E+02  0.23983428229E+02  0.30944765650E+03  0.41154903445E+03  0.26258018249E+03 0.  0.
         25    1    4    4    0    0  0.32908535104E+02 -0.27516663364E+02  0.14157517851E+03  0.19372965110E+03  0.12509000000E+03 0.  0.
         25    1    3    3    0    0 -0.63962477932E+02 -0.23983428229E+02  0.83076741901E+01  0.14276879548E+03  0.12509000000E+03 0.  0.
         25    1    4    4    0    0  0.31053942828E+02  0.51500091594E+02  0.16787247799E+03  0.21781938336E+03  0.12509000000E+03 0.  0.
<mgrwt>
<rscale>  2 0.45420238E+03</rscale>
<asrwt>0</asrwt>
<pdfrwt beam="1">  1       21 0.64123026E-01 0.45420238E+03</pdfrwt>
<pdfrwt beam="2">  1       21 0.17394301E-01 0.45420238E+03</pdfrwt>
<totfact> 0.61972202E+04</totfact>
</mgrwt>
</event>
<event>
 7    0  0.4752811E-002  0.4440718E+03  0.7546771E-02  0.1029505E+00
         21   -1    0    0  502  501  0.00000000000E+00  0.00000000000E+00  0.22122080950E+03  0.22122080950E+03  0.00000000000E+00 0.  1.
         21   -1    0    0  501  502 -0.00000000000E+00 -0.00000000000E+00 -0.22285402877E+03  0.22285402877E+03  0.00000000000E+00 0.  1.
      99926    2    1    2    0    0  0.00000000000E+00  0.00000000000E+00 -0.16332192714E+01  0.44407483827E+03  0.44407183493E+03 0.  0.
      99925    2    3    3    0    0  0.16734519030E+02  0.10077392299E+03 -0.10589525143E+02  0.28232456409E+03  0.26298211681E+03 0.  0.
         25    1    4    4    0    0 -0.10213765525E+02  0.53963028641E+02 -0.41164799285E+02  0.14268278896E+03  0.12509000000E+03 0.  0.
         25    1    4    4    0    0  0.26948284555E+02  0.46810894351E+02  0.30575274142E+02  0.13964177512E+03  0.12509000000E+03 0.  0.
         25    1    3    3    0    0 -0.16734519030E+02 -0.10077392299E+03  0.89563058712E+01  0.16175027418E+03  0.12509000000E+03 0.  0.
<mgrwt>
<rscale>  2 0.44407183E+03</rscale>
<asrwt>0</asrwt>
<pdfrwt beam="1">  1       21 0.32532472E-01 0.44407183E+03</pdfrwt>
<pdfrwt beam="2">  1       21 0.32772651E-01 0.44407183E+03</pdfrwt>
<totfact> 0.75746048E+04</totfact>
</mgrwt>
</event>
<event>
 7    0  0.4752811E-002  0.4573667E+03  0.7546771E-02  0.1025548E+00
         21   -1    0    0  502  501  0.00000000000E+00  0.00000000000E+00  0.40027792768E+02  0.40027792768E+02  0.00000000000E+00 0. -1.
         21   -1    0    0  501  502 -0.00000000000E+00 -0.00000000000E+00 -0.13064939490E+04  0.13064939490E+04  0.00000000000E+00 0. -1.
      99926    2    1    2    0    0  0.71054273576E-14  0.00000000000E+00 -0.12664661562E+04  0.13465217417E+04  0.45736667584E+03 0.  0.
      99925    2    3    3    0    0 -0.63342196884E+02 -0.40053492589E+02 -0.53652823934E+03  0.60216068234E+03  0.26290382191E+03 0.  0.
         25    1    4    4    0    0 -0.27189588004E+02 -0.23277639736E+02 -0.35531647565E+03  0.37838925483E+03  0.12509000000E+03 0.  0.
         25    1    4    4    0    0 -0.36152608880E+02 -0.16775852853E+02 -0.18121176369E+03  0.22377142751E+03  0.12509000000E+03 0.  0.
         25    1    3    3    0    0  0.63342196884E+02  0.40053492589E+02 -0.72993791687E+03  0.74436105940E+03  0.12509000000E+03 0.  0.
<mgrwt>
<rscale>  2 0.45736668E+03</rscale>
<asrwt>0</asrwt>
<pdfrwt beam="1">  1       21 0.58864416E-02 0.45736668E+03</pdfrwt>
<pdfrwt beam="2">  1       21 0.19213142E+00 0.45736668E+03</pdfrwt>
<totfact> 0.27287104E+04</totfact>
</mgrwt>
</event>
<event>
 7    0  0.4752811E-002  0.4505586E+03  0.7546771E-02  0.1027556E+00
         21   -1    0    0  502  501  0.00000000000E+00  0.00000000000E+00  0.96659912239E+02  0.96659912239E+02  0.00000000000E+00 0.  1.
         21   -1    0    0  501  502 -0.00000000000E+00 -0.00000000000E+00 -0.52504447460E+03  0.52504447460E+03  0.00000000000E+00 0.  1.
      99926    2    1    2    0    0  0.00000000000E+00  0.00000000000E+00 -0.42838456236E+03  0.62170438684E+03  0.45055855485E+03 0.  0.
      99925    2    3    3    0    0 -0.61632973482E+02  0.67916708227E+02 -0.35200212395E+03  0.44880821084E+03  0.26289163581E+03 0.  0.
         25    1    4    4    0    0 -0.64339788746E+02  0.15953383073E+02 -0.15751343717E+03  0.21178316703E+03  0.12509000000E+03 0.  0.
         25    1    4    4    0    0  0.27068152634E+01  0.51963325153E+02 -0.19448868678E+03  0.23702504382E+03  0.12509000000E+03 0.  0.
         25    1    3    3    0    0  0.61632973482E+02 -0.67916708227E+02 -0.76382438409E+02  0.17289617600E+03  0.12509000000E+03 0.  0.
<mgrwt>
<rscale>  2 0.45055855E+03</rscale>
<asrwt>0</asrwt>
<pdfrwt beam="1">  1       21 0.14214693E-01 0.45055855E+03</pdfrwt>
<pdfrwt beam="2">  1       21 0.77212423E-01 0.45055855E+03</pdfrwt>
<totfact> 0.59418299E+04</totfact>
</mgrwt>
</event>
<event>
 7    0  0.4752811E-002  0.4356170E+03  0.7546771E-02  0.1032100E+00
         21   -1    0    0  502  501  0.00000000000E+00  0.00000000000E+00  0.21555859628E+04  0.21555859628E+04  0.00000000000E+00 0. -1.
         21   -1    0    0  501  502 -0.00000000000E+00 -0.00000000000E+00 -0.22008184412E+02  0.22008184412E+02  0.00000000000E+00 0. -1.
      99926    2    1    2    0    0  0.00000000000E+00 -0.71054273576E-14  0.21335777784E+04  0.21775941472E+04  0.43561695736E+03 0.  0.
      99925    2    3    3    0    0 -0.65381147470E+02 -0.54331185852E+02  0.11679296982E+04  0.12001739228E+04  0.26292792330E+03 0.  0.
         25    1    4    4    0    0 -0.42994641425E+02  0.11682518064E+02  0.59174831401E+03  0.60646401018E+03  0.12509000000E+03 0.  0.
         25    1    4    4    0    0 -0.22386506045E+02 -0.66013703916E+02  0.57618138422E+03  0.59370991265E+03  0.12509000000E+03 0.  0.
         25    1    3    3    0    0  0.65381147470E+02  0.54331185852E+02  0.96564808020E+03  0.97742022442E+03  0.12509000000E+03 0.  0.
<mgrwt>
<rscale>  2 0.43561696E+03</rscale>
<asrwt>0</asrwt>
<pdfrwt beam="1">  1       21 0.31699779E+00 0.43561696E+03</pdfrwt>
<pdfrwt beam="2">  1       21 0.32364992E-02 0.43561696E+03</pdfrwt>
<totfact> 0.12849316E+04</totfact>
</mgrwt>
</event>
<event>
 7    0  0.4752811E-002  0.4493195E+03  0.7546771E-02  0.1027925E+00
         21   -1    0    0  502  501  0.00000000000E+00  0.00000000000E+00  0.74921941838E+03  0.74921941838E+03  0.00000000000E+00 0. -1.
         21   -1    0    0  501  502 -0.00000000000E+00 -0.00000000000E+00 -0.67366129065E+02  0.67366129065E+02  0.00000000000E+00 0. -1.
      99926    2    1    2    0    0  0.71054273576E-14  0.00000000000E+00  0.68185328931E+03  0.81658554744E+03  0.44931953902E+03 0.  0.
      99925    2    3    3    0    0 -0.60746768462E+02 -0.48660205191E+02  0.29594631483E+03  0.40351208363E+03  0.26302052188E+03 0.  0.
         25    1    4    4    0    0 -0.60480169493E+02 -0.47559324346E+02  0.13338753017E+03  0.19839224163E+03  0.12509000000E+03 0.  0.
         25    1    3    3    0    0  0.60746768462E+02  0.48660205191E+02  0.38590697449E+03  0.41307346381E+03  0.12509000000E+03 0.  0.
         25    1    4    4    0    0 -0.26659896890E+00 -0.11008808450E+01  0.16255878466E+03  0.20511984200E+03  0.12509000000E+03 0.  0.
<mgrwt>
<rscale>  2 0.44931954E+03</rscale>
<asrwt>0</asrwt>
<pdfrwt beam="1">  1       21 0.11017932E+00 0.44931954E+03</pdfrwt>
<pdfrwt beam="2">  1       21 0.99067841E-02 0.44931954E+03</pdfrwt>
<totfact> 0.49126454E+04</totfact>
</mgrwt>
</event>
<event>
 7    0  0.4752811E-002  0.4486791E+03  0.7546771E-02  0.1028117E+00
         21   -1    0    0  502  501  0.00000000000E+00  0.00000000000E+00  0.84333879161E+02  0.84333879161E+02  0.00000000000E+00 0.  1.
         21   -1    0    0  501  502 -0.00000000000E+00 -0.00000000000E+00 -0.59677365153E+03  0.59677365153E+03  0.00000000000E+00 0.  1.
      99926    2    1    2    0    0  0.00000000000E+00  0.00000000000E+00 -0.51243977237E+03  0.68110753069E+03  0.44867911480E+03 0.  0.
      99925    2    3    3    0    0  0.33615131895E+02  0.32788451113E+02 -0.47054077454E+03  0.54107862747E+03  0.26296844103E+03 0.  0.
         25    1    4    4    0    0  0.43352611725E+02  0.20713244498E+02 -0.30393457114E+03  0.33216294055E+03  0.12509000000E+03 0.  0.
         25    1    3    3    0    0 -0.33615131895E+02 -0.32788451113E+02 -0.41898997826E+02  0.14002890322E+03  0.12509000000E+03 0.  0.
         25    1    4    4    0    0 -0.97374798299E+01  0.12075206615E+02 -0.16660620340E+03  0.20891568692E+03  0.12509000000E+03 0.  0.
<mgrwt>
<rscale>  2 0.44867911E+03</rscale>
<asrwt>0</asrwt>
<pdfrwt beam="1">  1       21 0.12402041E-01 0.44867911E+03</pdfrwt>
<pdfrwt beam="2">  1       21 0.87760830E-01 0.44867911E+03</pdfrwt>
<totfact> 0.56711333E+04</totfact>
</mgrwt>
</event>
<event>
 7    0  0.4752811E-002  0.4454395E+03  0.7546771E-02  0.1029091E+00
         21   -1    0    0  502  501  0.00000000000E+00  0.00000000000E+00  0.34612782010E+02  0.34612782010E+02  0.00000000000E+00 0. -1.
         21   -1    0    0  501  502 -0.00000000000E+00 -0.00000000000E+00 -0.14331147629E+04  0.14331147629E+04  0.00000000000E+00 0. -1.
      99926    2    1    2    0    0 -0.14210854715E-13  0.00000000000E+00 -0.13985019809E+04  0.14677275449E+04  0.44543950827E+03 0.  0.
      99925    2    3    3    0    0  0.88608764578E+02 -0.51584076456E+02 -0.94377623525E+03  0.98509368581E+03  0.26302767438E+03 0.  0.
         25    1    4    4    0    0  0.16215792439E+02 -0.44603395901E+02 -0.37323303163E+03  0.39648810682E+03  0.12509000000E+03 0.  0.
         25    1    3    3    0    0 -0.88608764578E+02  0.51584076456E+02 -0.45472574561E+03  0.48263385907E+03  0.12509000000E+03 0.  0.
         25    1    4    4    0    0  0.72392972139E+02 -0.69806805549E+01 -0.57054320362E+03  0.58860557899E+03  0.12509000000E+03 0.  0.
<mgrwt>
<rscale>  2 0.44543951E+03</rscale>
<asrwt>0</asrwt>
<pdfrwt beam="1">  1       21 0.50901160E-02 0.44543951E+03</pdfrwt>
<pdfrwt beam="2">  1       21 0.21075213E+00 0.44543951E+03</pdfrwt>
<totfact> 0.26495063E+04</totfact>
</mgrwt>
</event>
<event>
 7    0  0.4752811E-002  0.4495242E+03  0.7546771E-02  0.1027864E+00
         21   -1    0    0  502  501  0.00000000000E+00  0.00000000000E+00  0.86624030192E+02  0.86624030192E+02  0.00000000000E+00 0. -1.
         21   -1    0    0  501  502 -0.00000000000E+00 -0.00000000000E+00 -0.58318689447E+03  0.58318689447E+03  0.00000000000E+00 0. -1.
      99926    2    1    2    0    0 -0.26645352591E-14  0.00000000000E+00 -0.49656286428E+03  0.66981092466E+03  0.44952418913E+03 0.  0.
      99925    2    3    3    0    0 -0.73651433602E+01  0.10281210584E+03 -0.26095284619E+03  0.38383161918E+03  0.26192699269E+03 0.  0.
         25    1    3    3    0    0  0.73651433602E+01 -0.10281210584E+03 -0.23561001809E+03  0.28597930549E+03  0.12509000000E+03 0.  0.
         25    1    4    4    0    0  0.24875296635E+02  0.23925316815E+02 -0.11088434523E+03  0.17068698628E+03  0.12509000000E+03 0.  0.
         25    1    4    4    0    0 -0.32240439995E+02  0.78886789021E+02 -0.15006850096E+03  0.21314463290E+03  0.12509000000E+03 0.  0.
<mgrwt>
<rscale>  2 0.44952419E+03</rscale>
<asrwt>0</asrwt>
<pdfrwt beam="1">  1       21 0.12738828E-01 0.44952419E+03</pdfrwt>
<pdfrwt beam="2">  1       21 0.85762780E-01 0.44952419E+03</pdfrwt>
<totfact> 0.56992498E+04</totfact>
</mgrwt>
</event>
<event>
 7    0  0.4752811E-002  0.4630295E+03  0.7546771E-02  0.1023906E+00
         21   -1    0    0  502  501  0.00000000000E+00  0.00000000000E+00  0.38095812545E+03  0.38095812545E+03  0.00000000000E+00 0. -1.
         21   -1    0    0  501  502 -0.00000000000E+00 -0.00000000000E+00 -0.14069545066E+03  0.14069545066E+03  0.00000000000E+00 0. -1.
      99926    2    1    2    0    0  0.17763568394E-14  0.00000000000E+00  0.24026267479E+03  0.52165357611E+03  0.46302948132E+03 0.  0.
      99925    2    3    3    0    0 -0.83240605557E+01 -0.11205729108E+03  0.10088180746E+03  0.30324876676E+03  0.26297632783E+03 0.  0.
         25    1    4    4    0    0 -0.64161891484E+01 -0.21573235957E+02  0.19088117756E+02  0.12852406908E+03  0.12509000000E+03 0.  0.
         25    1    4    4    0    0 -0.19078714073E+01 -0.90484055126E+02  0.81793689702E+02  0.17472469768E+03  0.12509000000E+03 0.  0.
         25    1    3    3    0    0  0.83240605557E+01  0.11205729108E+03  0.13938086733E+03  0.21840480935E+03  0.12509000000E+03 0.  0.
<mgrwt>
<rscale>  2 0.46302948E+03</rscale>
<asrwt>0</asrwt>
<pdfrwt beam="1">  1       21 0.56023254E-01 0.46302948E+03</pdfrwt>
<pdfrwt beam="2">  1       21 0.20690507E-01 0.46302948E+03</pdfrwt>
<totfact> 0.59868584E+04</totfact>
</mgrwt>
</event>
<event>
 7    0  0.4752811E-002  0.4457312E+03  0.7546771E-02  0.1029003E+00
         21   -1    0    0  502  501  0.00000000000E+00  0.00000000000E+00  0.64915479847E+03  0.64915479847E+03  0.00000000000E+00 0.  1.
         21   -1    0    0  501  502 -0.00000000000E+00 -0.00000000000E+00 -0.76513461574E+02  0.76513461574E+02  0.00000000000E+00 0.  1.
      99926    2    1    2    0    0 -0.14210854715E-13 -0.14210854715E-13  0.57264133690E+03  0.72566826005E+03  0.44573122273E+03 0.  0.
      99925    2    3    3    0    0  0.71645113091E+02  0.67828277103E+02  0.30927597443E+03  0.41786553158E+03  0.26310886856E+03 0.  0.
         25    1    4    4    0    0  0.40969006440E+02  0.68097814135E+02  0.13011458163E+03  0.19721329628E+03  0.12509000000E+03 0.  0.
         25    1    3    3    0    0 -0.71645113091E+02 -0.67828277103E+02  0.26336536247E+03  0.30780272847E+03  0.12509000000E+03 0.  0.
         25    1    4    4    0    0  0.30676106651E+02 -0.26953703183E+00  0.17916139280E+03  0.22065223529E+03  0.12509000000E+03 0.  0.
<mgrwt>
<rscale>  2 0.44573122E+03</rscale>
<asrwt>0</asrwt>
<pdfrwt beam="1">  1       21 0.95463938E-01 0.44573122E+03</pdfrwt>
<pdfrwt beam="2">  1       21 0.11251980E-01 0.44573122E+03</pdfrwt>
<totfact> 0.55465219E+04</totfact>
</mgrwt>
</event>
<event>
 7    0  0.4752811E-002  0.4470050E+03  0.7546771E-02  0.1028619E+00
         21   -1    0    0  502  501  0.00000000000E+00  0.00000000000E+00  0.21134161553E+03  0.21134161553E+03  0.00000000000E+00 0.  1.
         21   -1    0    0  501  502 -0.00000000000E+00 -0.00000000000E+00 -0.23636312107E+03  0.23636312107E+03  0.00000000000E+00 0.  1.
      99926    2    1    2    0    0  0.17763568394E-14  0.14210854715E-13 -0.25021505537E+02  0.44770473660E+03  0.44700498368E+03 0.  0.
      99925    2    3    3    0    0 -0.12384627800E+02 -0.10306468067E+03  0.29204404800E+01  0.28276848269E+03  0.26300908430E+03 0.  0.
         25    1    4    4    0    0  0.12232214714E+02 -0.55223605771E+02 -0.34496360959E+02  0.14155133603E+03  0.12509000000E+03 0.  0.
         25    1    4    4    0    0 -0.24616842514E+02 -0.47841074894E+02  0.37416801440E+02  0.14121714667E+03  0.12509000000E+03 0.  0.
         25    1    3    3    0    0  0.12384627800E+02  0.10306468067E+03 -0.27941946017E+02  0.16493625391E+03  0.12509000000E+03 0.  0.
<mgrwt>
<rscale>  2 0.44700498E+03</rscale>
<asrwt>0</asrwt>
<pdfrwt beam="1">  1       21 0.31079649E-01 0.44700498E+03</pdfrwt>
<pdfrwt beam="2">  1       21 0.34759283E-01 0.44700498E+03</pdfrwt>
<totfact> 0.73672252E+04</totfact>
</mgrwt>
</event>
<event>
 7    0  0.4752811E-002  0.4482557E+03  0.7546771E-02  0.1028244E+00
         21   -1    0    0  502  501  0.00000000000E+00  0.00000000000E+00  0.41815377397E+03  0.41815377397E+03  0.00000000000E+00 0. -1.
         21   -1    0    0  501  502 -0.00000000000E+00 -0.00000000000E+00 -0.12013112521E+03  0.12013112521E+03  0.00000000000E+00 0. -1.
      99926    2    1    2    0    0  0.00000000000E+00  0.00000000000E+00  0.29802264877E+03  0.53828489918E+03  0.44825565641E+03 0.  0.
      99925    2    3    3    0    0 -0.74898362040E+02 -0.14708746239E+02  0.27828894835E+03  0.39042334608E+03  0.26298201182E+03 0.  0.
         25    1    4    4    0    0 -0.34752311908E+02  0.94214085615E+01  0.84969998531E+02  0.15544740227E+03  0.12509000000E+03 0.  0.
         25    1    3    3    0    0  0.74898362040E+02  0.14708746239E+02  0.19733700419E+02  0.14786155310E+03  0.12509000000E+03 0.  0.
         25    1    4    4    0    0 -0.40146050132E+02 -0.24130154800E+02  0.19331894982E+03  0.23497594381E+03  0.12509000000E+03 0.  0.
<mgrwt>
<rscale>  2 0.44825566E+03</rscale>
<asrwt>0</asrwt>
<pdfrwt beam="1">  1       21 0.61493202E-01 0.44825566E+03</pdfrwt>
<pdfrwt beam="2">  1       21 0.17666342E-01 0.44825566E+03</pdfrwt>
<totfact> 0.66105784E+04</totfact>
</mgrwt>
</event>
<event>
 7    0  0.4752811E-002  0.4556637E+03  0.7546771E-02  0.1026046E+00
         21   -1    0    0  502  501  0.00000000000E+00  0.00000000000E+00  0.95557608740E+03  0.95557608740E+03  0.00000000000E+00 0. -1.
         21   -1    0    0  501  502 -0.00000000000E+00 -0.00000000000E+00 -0.54320488367E+02  0.54320488367E+02  0.00000000000E+00 0. -1.
      99926    2    1    2    0    0  0.00000000000E+00  0.17763568394E-14  0.90125559903E+03  0.10098965758E+04  0.45566373452E+03 0.  0.
      99925    2    3    3    0    0  0.51760235662E+02  0.98103117976E+01  0.34321655204E+03  0.43558790416E+03  0.26299022119E+03 0.  0.
         25    1    4    4    0    0 -0.39032474099E+01  0.32769040566E+02  0.16805740191E+03  0.21208452041E+03  0.12509000000E+03 0.  0.
         25    1    3    3    0    0 -0.51760235662E+02 -0.98103117976E+01  0.55803904699E+03  0.57430867160E+03  0.12509000000E+03 0.  0.
         25    1    4    4    0    0  0.55663483072E+02 -0.22958728768E+02  0.17515915013E+03  0.22350338375E+03  0.12509000000E+03 0.  0.
<mgrwt>
<rscale>  2 0.45566373E+03</rscale>
<asrwt>0</asrwt>
<pdfrwt beam="1">  1       21 0.14052589E+00 0.45566373E+03</pdfrwt>
<pdfrwt beam="2">  1       21 0.79883077E-02 0.45566373E+03</pdfrwt>
<totfact> 0.38583680E+04</totfact>
</mgrwt>
</event>
<event>
 7    0  0.4752811E-002  0.4617573E+03  0.7546771E-02  0.1024273E+00
         21   -1    0    0  502  501  0.00000000000E+00  0.00000000000E+00  0.26400750896E+03  0.26400750896E+03  0.00000000000E+00 0.  1.
         21   -1    0    0  501  502 -0.00000000000E+00 -0.00000000000E+00 -0.20190693440E+03  0.20190693440E+03  0.00000000000E+00 0.  1.
      99926    2    1    2    0    0 -0.35527136788E-14  0.00000000000E+00  0.62100574564E+02  0.46591444336E+03  0.46175728167E+03 0.  0.
      99925    2    3    3    0    0 -0.28016219797E+02 -0.11593629461E+03  0.44011325527E+02  0.29213049125E+03  0.26301538770E+03 0.  0.
         25    1    3    3    0    0  0.28016219797E+02  0.11593629461E+03  0.18089249037E+02  0.17378395211E+03  0.12509000000E+03 0.  0.
         25    1    4    4    0    0 -0.89868100207E+00 -0.84075468596E+02  0.53384303751E+02  0.15989647912E+03  0.12509000000E+03 0.  0.
         25    1    4    4    0    0 -0.27117538795E+02 -0.31860826016E+02 -0.93729782238E+01  0.13223401214E+03  0.12509000000E+03 0.  0.
<mgrwt>
<rscale>  2 0.46175728E+03</rscale>
<asrwt>0</asrwt>
<pdfrwt beam="1">  1       21 0.38824634E-01 0.46175728E+03</pdfrwt>
<pdfrwt beam="2">  1       21 0.29692196E-01 0.46175728E+03</pdfrwt>
<totfact> 0.64220542E+04</totfact>
</mgrwt>
</event>
<event>
 7    0  0.4752811E-002  0.4658218E+03  0.7546771E-02  0.1023106E+00
         21   -1    0    0  502  501  0.00000000000E+00  0.00000000000E+00  0.12715603805E+03  0.12715603805E+03  0.00000000000E+00 0.  1.
         21   -1    0    0  501  502 -0.00000000000E+00 -0.00000000000E+00 -0.42662143760E+03  0.42662143760E+03  0.00000000000E+00 0.  1.
      99926    2    1    2    0    0  0.00000000000E+00  0.00000000000E+00 -0.29946539955E+03  0.55377747565E+03  0.46582181895E+03 0.  0.
      99925    2    3    3    0    0  0.71082400233E+02  0.93599813186E+02 -0.14347017826E+03  0.32183858323E+03  0.26302613739E+03 0.  0.
         25    1    4    4    0    0  0.22583026946E+02  0.87348980930E+01 -0.45506397859E+02  0.13529461148E+03  0.12509000000E+03 0.  0.
         25    1    4    4    0    0  0.48499373288E+02  0.84864915093E+02 -0.97963780398E+02  0.18654397174E+03  0.12509000000E+03 0.  0.
         25    1    3    3    0    0 -0.71082400233E+02 -0.93599813186E+02 -0.15599522129E+03  0.23193889242E+03  0.12509000000E+03 0.  0.
<mgrwt>
<rscale>  2 0.46582182E+03</rscale>
<asrwt>0</asrwt>
<pdfrwt beam="1">  1       21 0.18699417E-01 0.46582182E+03</pdfrwt>
<pdfrwt beam="2">  1       21 0.62738447E-01 0.46582182E+03</pdfrwt>
<totfact> 0.56612705E+04</totfact>
</mgrwt>
</event>
<event>
 7    0  0.4752811E-002  0.4551489E+03  0.7546771E-02  0.1026198E+00
         21   -1    0    0  502  501  0.00000000000E+00  0.00000000000E+00  0.82464544529E+03  0.82464544529E+03  0.00000000000E+00 0.  1.
         21   -1    0    0  501  502 -0.00000000000E+00 -0.00000000000E+00 -0.62802897200E+02  0.62802897200E+02  0.00000000000E+00 0.  1.
      99926    2    1    2    0    0 -0.14210854715E-13  0.00000000000E+00  0.76184254809E+03  0.88744834249E+03  0.45514886851E+03 0.  0.
      99925    2    3    3    0    0  0.95275511692E+02  0.46051128643E+02  0.40076645396E+03  0.49093657289E+03  0.26307192630E+03 0.  0.
         25    1    3    3    0    0 -0.95275511692E+02 -0.46051128643E+02  0.36107609413E+03  0.39651176960E+03  0.12509000000E+03 0.  0.
         25    1    4    4    0    0  0.68616258416E+02  0.44211295257E+02  0.26643111266E+03  0.30544373531E+03  0.12509000000E+03 0.  0.
         25    1    4    4    0    0  0.26659253276E+02  0.18398333861E+01  0.13433534130E+03  0.18549283759E+03  0.12509000000E+03 0.  0.
<mgrwt>
<rscale>  2 0.45514887E+03</rscale>
<asrwt>0</asrwt>
<pdfrwt beam="1">  1       21 0.12127138E+00 0.45514887E+03</pdfrwt>
<pdfrwt beam="2">  1       21 0.92357206E-02 0.45514887E+03</pdfrwt>
<totfact> 0.43729837E+04</totfact>
</mgrwt>
</event>
<event>
 7    0  0.4752811E-002  0.4574787E+03  0.7546771E-02  0.1025515E+00
         21   -1    0    0  502  501  0.00000000000E+00  0.00000000000E+00  0.12844848765E+03  0.12844848765E+03  0.00000000000E+00 0. -1.
         21   -1    0    0  501  502 -0.00000000000E+00 -0.00000000000E+00 -0.40733589484E+03  0.40733589484E+03  0.00000000000E+00 0. -1.
      99926    2    1    2    0    0  0.00000000000E+00  0.00000000000E+00 -0.27888740720E+03  0.53578438249E+03  0.45747865374E+03 0.  0.
      99925    2    3    3    0    0 -0.13661265950E+02 -0.11015214927E+03 -0.13779152984E+03  0.31697926171E+03  0.26300041917E+03 0.  0.
         25    1    4    4    0    0 -0.86025627762E+00 -0.68829813217E+02 -0.11353243413E+03  0.18241547338E+03  0.12509000000E+03 0.  0.
         25    1    4    4    0    0 -0.12801009672E+02 -0.41322336050E+02 -0.24259095715E+02  0.13456378833E+03  0.12509000000E+03 0.  0.
         25    1    3    3    0    0  0.13661265950E+02  0.11015214927E+03 -0.14109587735E+03  0.21880512078E+03  0.12509000000E+03 0.  0.
<mgrwt>
<rscale>  2 0.45747865E+03</rscale>
<asrwt>0</asrwt>
<pdfrwt beam="1">  1       21 0.18889483E-01 0.45747865E+03</pdfrwt>
<pdfrwt beam="2">  1       21 0.59902339E-01 0.45747865E+03</pdfrwt>
<totfact> 0.61597659E+04</totfact>
</mgrwt>
</event>
<event>
 7    0  0.4752811E-002  0.4539370E+03  0.7546771E-02  0.1026554E+00
         21   -1    0    0  502  501  0.00000000000E+00  0.00000000000E+00  0.25096357854E+03  0.25096357854E+03  0.00000000000E+00 0. -1.
         21   -1    0    0  501  502 -0.00000000000E+00 -0.00000000000E+00 -0.20526760468E+03  0.20526760468E+03  0.00000000000E+00 0. -1.
      99926    2    1    2    0    0 -0.17763568394E-14  0.00000000000E+00  0.45695973855E+02  0.45623118322E+03  0.45393696756E+03 0.  0.
      99925    2    3    3    0    0 -0.43042025925E+01 -0.83884159100E+02  0.10361083153E+03  0.29481025166E+03  0.26291215598E+03 0.  0.
         25    1    4    4    0    0 -0.32338883539E+02 -0.17469498905E+02  0.63181544248E+02  0.14488064886E+03  0.12509000000E+03 0.  0.
         25    1    3    3    0    0  0.43042025925E+01  0.83884159100E+02 -0.57914857677E+02  0.16142093157E+03  0.12509000000E+03 0.  0.
         25    1    4    4    0    0  0.28034680946E+02 -0.66414660195E+02  0.40429287283E+02  0.14992960280E+03  0.12509000000E+03 0.  0.
<mgrwt>
<rscale>  2 0.45393697E+03</rscale>
<asrwt>0</asrwt>
<pdfrwt beam="1">  1       21 0.36906409E-01 0.45393697E+03</pdfrwt>
<pdfrwt beam="2">  1       21 0.30186412E-01 0.45393697E+03</pdfrwt>
<totfact> 0.69039379E+04</totfact>
</mgrwt>
</event>
<event>
 7    0  0.4752811E-002  0.4595168E+03  0.7546771E-02  0.1024921E+00
         21   -1    0    0  502  501  0.00000000000E+00  0.00000000000E+00  0.59877579955E+03  0.59877579955E+03  0.00000000000E+00 0. -1.
         21   -1    0    0  501  502 -0.00000000000E+00 -0.00000000000E+00 -0.88161414013E+02  0.88161414013E+02  0.00000000000E+00 0. -1.
      99926    2    1    2    0    0 -0.14210854715E-13  0.00000000000E+00  0.51061438554E+03  0.68693721357E+03  0.45951679476E+03 0.  0.
      99925    2    3    3    0    0  0.76448017835E+02 -0.84074271596E+02  0.27446915135E+03  0.39654977874E+03  0.26268922589E+03 0.  0.
         25    1    3    3    0    0 -0.76448017835E+02  0.84074271596E+02  0.23614523419E+03  0.29038743483E+03  0.12509000000E+03 0.  0.
         25    1    4    4    0    0  0.10407676945E+01 -0.43743705466E+02  0.15247998152E+03  0.20202041439E+03  0.12509000000E+03 0.  0.
         25    1    4    4    0    0  0.75407250140E+02 -0.40330566130E+02  0.12198916982E+03  0.19452936434E+03  0.12509000000E+03 0.  0.
<mgrwt>
<rscale>  2 0.45951679E+03</rscale>
<asrwt>0</asrwt>
<pdfrwt beam="1">  1       21 0.88055263E-01 0.45951679E+03</pdfrwt>
<pdfrwt beam="2">  1       21 0.12964914E-01 0.45951679E+03</pdfrwt>
<totfact> 0.51752839E+04</totfact>
</mgrwt>
</event>
<event>
 7    0  0.4752811E-002  0.4527105E+03  0.7546771E-02  0.1026917E+00
         21   -1    0    0  502  501  0.00000000000E+00  0.00000000000E+00  0.74615298496E+02  0.74615298496E+02  0.00000000000E+00 0.  1.
         21   -1    0    0  501  502 -0.00000000000E+00 -0.00000000000E+00 -0.68667808891E+03  0.68667808891E+03  0.00000000000E+00 0.  1.
      99926    2    1    2    0    0  0.14210854715E-13 -0.35527136788E-14 -0.61206279041E+03  0.76129338740E+03  0.45271046188E+03 0.  0.
      99925    2    3    3    0    0  0.99051054139E+02  0.27989936357E+02 -0.31663974214E+03  0.42437079479E+03  0.26312601032E+03 0.  0.
         25    1    4    4    0    0  0.20817549761E+02  0.40387539428E+02 -0.17100408311E+03  0.21668970502E+03  0.12509000000E+03 0.  0.
         25    1    3    3    0    0 -0.99051054139E+02 -0.27989936357E+02 -0.29542304827E+03  0.33692259261E+03  0.12509000000E+03 0.  0.
         25    1    4    4    0    0  0.78233504378E+02 -0.12397603071E+02 -0.14563565903E+03  0.20768108977E+03  0.12509000000E+03 0.  0.
<mgrwt>
<rscale>  2 0.45271046E+03</rscale>
<asrwt>0</asrwt>
<pdfrwt beam="1">  1       21 0.10972838E-01 0.45271046E+03</pdfrwt>
<pdfrwt beam="2">  1       21 0.10098207E+00 0.45271046E+03</pdfrwt>
<totfact> 0.50597005E+04</totfact>
</mgrwt>
</event>
<event>
 7    0  0.4752811E-002  0.4506196E+03  0.7546771E-02  0.1027537E+00
         21   -1    0    0  502  501  0.00000000000E+00  0.00000000000E+00  0.73484289881E+03  0.73484289881E+03  0.00000000000E+00 0. -1.
         21   -1    0    0  501  502 -0.00000000000E+00 -0.00000000000E+00 -0.69082118039E+02  0.69082118039E+02  0.00000000000E+00 0. -1.
      99926    2    1    2    0    0  0.00000000000E+00 -0.14210854715E-13  0.66576078077E+03  0.80392501685E+03  0.45061959068E+03 0.  0.
      99925    2    3    3    0    0  0.36615526806E+02 -0.88746009477E+02  0.51187758228E+03  0.58359776506E+03  0.26334604828E+03 0.  0.
         25    1    3    3    0    0 -0.36615526806E+02  0.88746009477E+02  0.15388319849E+03  0.22032725178E+03  0.12509000000E+03 0.  0.
         25    1    4    4    0    0 -0.12944120943E+00 -0.78455260128E+02  0.30475471578E+03  0.33864168303E+03  0.12509000000E+03 0.  0.
         25    1    4    4    0    0  0.36744968015E+02 -0.10290749349E+02  0.20712286650E+03  0.24495608203E+03  0.12509000000E+03 0.  0.
<mgrwt>
<rscale>  2 0.45061959E+03</rscale>
<asrwt>0</asrwt>
<pdfrwt beam="1">  1       21 0.10806513E+00 0.45061959E+03</pdfrwt>
<pdfrwt beam="2">  1       21 0.10159135E-01 0.45061959E+03</pdfrwt>
<totfact> 0.49246737E+04</totfact>
</mgrwt>
</event>
<event>
 7    0  0.4752811E-002  0.4514437E+03  0.7546771E-02  0.1027292E+00
         21   -1    0    0  502  501  0.00000000000E+00  0.00000000000E+00  0.17592613161E+03  0.17592613161E+03  0.00000000000E+00 0.  1.
         21   -1    0    0  501  502 -0.00000000000E+00 -0.00000000000E+00 -0.28961218477E+03  0.28961218477E+03  0.00000000000E+00 0.  1.
      99926    2    1    2    0    0  0.00000000000E+00 -0.14210854715E-13 -0.11368605316E+03  0.46553831637E+03  0.45144369010E+03 0.  0.
      99925    2    3    3    0    0 -0.54679005696E+02 -0.88433444094E+02 -0.10812515877E+03  0.30278482380E+03  0.26301583957E+03 0.  0.
         25    1    4    4    0    0  0.12123850829E+02 -0.32664663239E+02 -0.59482708474E+02  0.14282740875E+03  0.12509000000E+03 0.  0.
         25    1    3    3    0    0  0.54679005696E+02  0.88433444094E+02 -0.55608943919E+01  0.16275349257E+03  0.12509000000E+03 0.  0.
         25    1    4    4    0    0 -0.66802856525E+02 -0.55768780855E+02 -0.48642450296E+02  0.15995741505E+03  0.12509000000E+03 0.  0.
<mgrwt>
<rscale>  2 0.45144369E+03</rscale>
<asrwt>0</asrwt>
<pdfrwt beam="1">  1       21 0.25871490E-01 0.45144369E+03</pdfrwt>
<pdfrwt beam="2">  1       21 0.42590027E-01 0.45144369E+03</pdfrwt>
<totfact> 0.69715100E+04</totfact>
</mgrwt>
</event>
<event>
 7    0  0.4752811E-002  0.4510543E+03  0.7546771E-02  0.1027408E+00
         21   -1    0    0  502  501  0.00000000000E+00  0.00000000000E+00  0.29918589059E+02  0.29918589059E+02  0.00000000000E+00 0. -1.
         21   -1    0    0  501  502 -0.00000000000E+00 -0.00000000000E+00 -0.17000295501E+04  0.17000295501E+04  0.00000000000E+00 0. -1.
      99926    2    1    2    0    0  0.00000000000E+00  0.00000000000E+00 -0.16701109610E+04  0.17299481391E+04  0.45105425614E+03 0.  0.
      99925    2    3    3    0    0 -0.89300489481E+02 -0.62683815086E+02 -0.10851951526E+04  0.11219367501E+04  0.26303937732E+03 0.  0.
         25    1    3    3    0    0  0.89300489481E+02  0.62683815086E+02 -0.58491580843E+03  0.60801138899E+03  0.12509000000E+03 0.  0.
         25    1    4    4    0    0 -0.58169874773E+02 -0.69252737524E+02 -0.53649448476E+03  0.55825936290E+03  0.12509000000E+03 0.  0.
         25    1    4    4    0    0 -0.31130614708E+02  0.65689224380E+01 -0.54870066782E+03  0.56367738723E+03  0.12509000000E+03 0.  0.
<mgrwt>
<rscale>  2 0.45105426E+03</rscale>
<asrwt>0</asrwt>
<pdfrwt beam="1">  1       21 0.43997924E-02 0.45105426E+03</pdfrwt>
<pdfrwt beam="2">  1       21 0.25000435E+00 0.45105426E+03</pdfrwt>
<totfact> 0.19227437E+04</totfact>
</mgrwt>
</event>
<event>
 7    0  0.4752811E-002  0.4759583E+03  0.7546771E-02  0.1020252E+00
         21   -1    0    0  502  501  0.00000000000E+00  0.00000000000E+00  0.24036309805E+02  0.24036309805E+02  0.00000000000E+00 0. -1.
         21   -1    0    0  501  502 -0.00000000000E+00 -0.00000000000E+00 -0.23561879816E+04  0.23561879816E+04  0.00000000000E+00 0. -1.
      99926    2    1    2    0    0  0.00000000000E+00 -0.14210854715E-13 -0.23321516718E+04  0.23802242914E+04  0.47595825147E+03 0.  0.
      99925    2    3    3    0    0  0.74398879965E+02  0.77879488070E+02 -0.10580422387E+04  0.10954664296E+04  0.26266501745E+03 0.  0.
         25    1    3    3    0    0 -0.74398879965E+02 -0.77879488070E+02 -0.12741094330E+04  0.12847578618E+04  0.12509000000E+03 0.  0.
         25    1    4    4    0    0  0.55651562475E+02  0.65230671330E+02 -0.47080116015E+03  0.49462448118E+03  0.12509000000E+03 0.  0.
         25    1    4    4    0    0  0.18747317490E+02  0.12648816740E+02 -0.58724107860E+03  0.60084194841E+03  0.12509000000E+03 0.  0.
<mgrwt>
<rscale>  2 0.47595825E+03</rscale>
<asrwt>0</asrwt>
<pdfrwt beam="1">  1       21 0.35347528E-02 0.47595825E+03</pdfrwt>
<pdfrwt beam="2">  1       21 0.34649810E+00 0.47595825E+03</pdfrwt>
<totfact> 0.71916291E+03</totfact>
</mgrwt>
</event>
<event>
 7    0  0.4752811E-002  0.4503363E+03  0.7546771E-02  0.1027622E+00
         21   -1    0    0  502  501  0.00000000000E+00  0.00000000000E+00  0.74001089920E+02  0.74001089920E+02  0.00000000000E+00 0. -1.
         21   -1    0    0  501  502 -0.00000000000E+00 -0.00000000000E+00 -0.68513447040E+03  0.68513447040E+03  0.00000000000E+00 0. -1.
      99926    2    1    2    0    0  0.00000000000E+00  0.00000000000E+00 -0.61113338048E+03  0.75913556032E+03  0.45033630789E+03 0.  0.
      99925    2    3    3    0    0 -0.55991724157E+02 -0.33486933398E+02 -0.23928591446E+03  0.36142398899E+03  0.26289371061E+03 0.  0.
         25    1    4    4    0    0 -0.15892386280E+02  0.14161264610E+01 -0.16122716808E+03  0.20468581090E+03  0.12509000000E+03 0.  0.
         25    1    3    3    0    0  0.55991724157E+02  0.33486933398E+02 -0.37184746601E+03  0.39771157132E+03  0.12509000000E+03 0.  0.
         25    1    4    4    0    0 -0.40099337877E+02 -0.34903059859E+02 -0.78058746379E+02  0.15673817809E+03  0.12509000000E+03 0.  0.
<mgrwt>
<rscale>  2 0.45033631E+03</rscale>
<asrwt>0</asrwt>
<pdfrwt beam="1">  1       21 0.10882514E-01 0.45033631E+03</pdfrwt>
<pdfrwt beam="2">  1       21 0.10075506E+00 0.45033631E+03</pdfrwt>
<totfact> 0.51670572E+04</totfact>
</mgrwt>
</event>
<event>
 7    0  0.4752811E-002  0.4598460E+03  0.7546771E-02  0.1024826E+00
         21   -1    0    0  502  501  0.00000000000E+00  0.00000000000E+00  0.75662285649E+03  0.75662285649E+03  0.00000000000E+00 0. -1.
         21   -1    0    0  501  502 -0.00000000000E+00 -0.00000000000E+00 -0.69869123520E+02  0.69869123520E+02  0.00000000000E+00 0. -1.
      99926    2    1    2    0    0  0.00000000000E+00  0.00000000000E+00  0.68675373297E+03  0.82649198001E+03  0.45984595603E+03 0.  0.
      99925    2    3    3    0    0 -0.24354291084E+01 -0.10126281332E+03  0.53870339655E+03  0.60779927576E+03  0.26259954587E+03 0.  0.
         25    1    4    4    0    0 -0.39756748576E+02 -0.60218155174E+02  0.26490890776E+03  0.30171354424E+03  0.12509000000E+03 0.  0.
         25    1    4    4    0    0  0.37321319467E+02 -0.41044658147E+02  0.27379448879E+03  0.30608573152E+03  0.12509000000E+03 0.  0.
         25    1    3    3    0    0  0.24354291084E+01  0.10126281332E+03  0.14805033643E+03  0.21869270425E+03  0.12509000000E+03 0.  0.
<mgrwt>
<rscale>  2 0.45984596E+03</rscale>
<asrwt>0</asrwt>
<pdfrwt beam="1">  1       21 0.11126806E+00 0.45984596E+03</pdfrwt>
<pdfrwt beam="2">  1       21 0.10274872E-01 0.45984596E+03</pdfrwt>
<totfact> 0.44782768E+04</totfact>
</mgrwt>
</event>
<event>
 7    0  0.4752811E-002  0.4514656E+03  0.7546771E-02  0.1027286E+00
         21   -1    0    0  502  501  0.00000000000E+00  0.00000000000E+00  0.81915476039E+02  0.81915476039E+02  0.00000000000E+00 0.  1.
         21   -1    0    0  501  502 -0.00000000000E+00 -0.00000000000E+00 -0.62204730752E+03  0.62204730752E+03  0.00000000000E+00 0.  1.
      99926    2    1    2    0    0  0.00000000000E+00  0.00000000000E+00 -0.54013183148E+03  0.70396278356E+03  0.45146561913E+03 0.  0.
      99925    2    3    3    0    0 -0.10306879765E+03 -0.18344419856E+02 -0.39260686182E+03  0.48402911273E+03  0.26302916043E+03 0.  0.
         25    1    4    4    0    0 -0.23188573841E+02 -0.39268420127E+02 -0.18992762493E+03  0.23194768718E+03  0.12509000000E+03 0.  0.
         25    1    4    4    0    0 -0.79880223811E+02  0.20924000271E+02 -0.20267923689E+03  0.25208142555E+03  0.12509000000E+03 0.  0.
         25    1    3    3    0    0  0.10306879765E+03  0.18344419856E+02 -0.14752496966E+03  0.21993367083E+03  0.12509000000E+03 0.  0.
<mgrwt>
<rscale>  2 0.45146562E+03</rscale>
<asrwt>0</asrwt>
<pdfrwt beam="1">  1       21 0.12046393E-01 0.45146562E+03</pdfrwt>
<pdfrwt beam="2">  1       21 0.91477551E-01 0.45146562E+03</pdfrwt>
<totfact> 0.54179495E+04</totfact>
</mgrwt>
</event>
<event>
 7    0  0.4752811E-002  0.4541890E+03  0.7546771E-02  0.1026480E+00
         21   -1    0    0  502  501  0.00000000000E+00  0.00000000000E+00  0.15790787885E+03  0.15790787885E+03  0.00000000000E+00 0.  1.
         21   -1    0    0  501  502 -0.00000000000E+00 -0.00000000000E+00 -0.32659488353E+03  0.32659488353E+03  0.00000000000E+00 0.  1.
      99926    2    1    2    0    0  0.14210854715E-13  0.00000000000E+00 -0.16868700469E+03  0.48450276238E+03  0.45418897081E+03 0.  0.
      99925    2    3    3    0    0  0.74285098471E+02 -0.69628269245E+02 -0.55794139162E+02  0.28763052229E+03  0.26315767071E+03 0.  0.
         25    1    4    4    0    0 -0.41355366872E+01 -0.26192206505E+02 -0.17690797521E+02  0.12908759337E+03  0.12509000000E+03 0.  0.
         25    1    4    4    0    0  0.78420635158E+02 -0.43436062741E+02 -0.38103341642E+02  0.15854292892E+03  0.12509000000E+03 0.  0.
         25    1    3    3    0    0 -0.74285098471E+02  0.69628269245E+02 -0.11289286553E+03  0.19687224009E+03  0.12509000000E+03 0.  0.
<mgrwt>
<rscale>  2 0.45418897E+03</rscale>
<asrwt>0</asrwt>
<pdfrwt beam="1">  1       21 0.23221747E-01 0.45418897E+03</pdfrwt>
<pdfrwt beam="2">  1       21 0.48028658E-01 0.45418897E+03</pdfrwt>
<totfact> 0.66802826E+04</totfact>
</mgrwt>
</event>
<event>
 7    0  0.4752811E-002  0.4568099E+03  0.7546771E-02  0.1025711E+00
         21   -1    0    0  502  501  0.00000000000E+00  0.00000000000E+00  0.16444706815E+03  0.16444706815E+03  0.00000000000E+00 0. -1.
         21   -1    0    0  501  502 -0.00000000000E+00 -0.00000000000E+00 -0.31723774733E+03  0.31723774733E+03  0.00000000000E+00 0. -1.
      99926    2    1    2    0    0  0.00000000000E+00  0.71054273576E-14 -0.15279067917E+03  0.48168481548E+03  0.45680988367E+03 0.  0.
      99925    2    3    3    0    0 -0.68752863871E+02 -0.55685176296E+02 -0.18625349470E+02  0.27802912824E+03  0.26291728235E+03 0.  0.
         25    1    3    3    0    0  0.68752863871E+02  0.55685176296E+02 -0.13416532970E+03  0.20365568724E+03  0.12509000000E+03 0.  0.
         25    1    4    4    0    0 -0.62603446035E+02 -0.20585695744E+02 -0.38299196993E+02  0.14648310112E+03  0.12509000000E+03 0.  0.
         25    1    4    4    0    0 -0.61494178364E+01 -0.35099480552E+02  0.19673847523E+02  0.13154602712E+03  0.12509000000E+03 0.  0.
<mgrwt>
<rscale>  2 0.45680988E+03</rscale>
<asrwt>0</asrwt>
<pdfrwt beam="1">  1       21 0.24183393E-01 0.45680988E+03</pdfrwt>
<pdfrwt beam="2">  1       21 0.46652610E-01 0.45680988E+03</pdfrwt>
<totfact> 0.65629735E+04</totfact>
</mgrwt>
</event>
<event>
 7    0  0.4752811E-002  0.4672465E+03  0.7546771E-02  0.1022700E+00
         21   -1    0    0  502  501  0.00000000000E+00  0.00000000000E+00  0.34838161635E+03  0.34838161635E+03  0.00000000000E+00 0.  1.
         21   -1    0    0  501  502 -0.00000000000E+00 -0.00000000000E+00 -0.15666677009E+03  0.15666677009E+03  0.00000000000E+00 0.  1.
      99926    2    1    2    0    0  0.00000000000E+00  0.00000000000E+00  0.19171484625E+03  0.50504838644E+03  0.46724649851E+03 0.  0.
      99925    2    3    3    0    0 -0.62417651870E+02 -0.92823122788E+02  0.60817941822E+02  0.29222544811E+03  0.26303002697E+03 0.  0.
         25    1    4    4    0    0 -0.32529995351E+02 -0.52525248492E+02  0.71976224013E+02  0.15698785701E+03  0.12509000000E+03 0.  0.
         25    1    3    3    0    0  0.62417651870E+02  0.92823122788E+02  0.13089690443E+03  0.21282293833E+03  0.12509000000E+03 0.  0.
         25    1    4    4    0    0 -0.29887656519E+02 -0.40297874296E+02 -0.11158282192E+02  0.13523759110E+03  0.12509000000E+03 0.  0.
<mgrwt>
<rscale>  2 0.46724650E+03</rscale>
<asrwt>0</asrwt>
<pdfrwt beam="1">  1       21 0.51232590E-01 0.46724650E+03</pdfrwt>
<pdfrwt beam="2">  1       21 0.23039231E-01 0.46724650E+03</pdfrwt>
<totfact> 0.58972493E+04</totfact>
</mgrwt>
</event>
<event>
 7    0  0.4752811E-002  0.4366460E+03  0.7546771E-02  0.1031781E+00
         21   -1    0    0  502  501  0.00000000000E+00  0.00000000000E+00  0.10906597277E+03  0.10906597277E+03  0.00000000000E+00 0. -1.
         21   -1    0    0  501  502 -0.00000000000E+00 -0.00000000000E+00 -0.43702847765E+03  0.43702847765E+03  0.00000000000E+00 0. -1.
      99926    2    1    2    0    0 -0.17763568394E-14  0.00000000000E+00 -0.32796250488E+03  0.54609445042E+03  0.43664601702E+03 0.  0.
      99925    2    3    3    0    0  0.15300415878E+02  0.93364131608E+02 -0.21872072941E+03  0.35496036816E+03  0.26307250272E+03 0.  0.
         25    1    4    4    0    0  0.89738212417E+01  0.56103057682E+01 -0.83043247456E+02  0.15051808545E+03  0.12509000000E+03 0.  0.
         25    1    4    4    0    0  0.63265946366E+01  0.87753825840E+02 -0.13567748196E+03  0.20444228271E+03  0.12509000000E+03 0.  0.
         25    1    3    3    0    0 -0.15300415878E+02 -0.93364131608E+02 -0.10924177547E+03  0.19113408227E+03  0.12509000000E+03 0.  0.
<mgrwt>
<rscale>  2 0.43664602E+03</rscale>
<asrwt>0</asrwt>
<pdfrwt beam="1">  1       21 0.16039113E-01 0.43664602E+03</pdfrwt>
<pdfrwt beam="2">  1       21 0.64268895E-01 0.43664602E+03</pdfrwt>
<totfact> 0.72029776E+04</totfact>
</mgrwt>
</event>
<event>
 7    0  0.4752811E-002  0.4493697E+03  0.7546771E-02  0.1027910E+00
         21   -1    0    0  502  501  0.00000000000E+00  0.00000000000E+00  0.38328271611E+03  0.38328271611E+03  0.00000000000E+00 0.  1.
         21   -1    0    0  501  502 -0.00000000000E+00 -0.00000000000E+00 -0.13171289584E+03  0.13171289584E+03  0.00000000000E+00 0.  1.
      99926    2    1    2    0    0  0.00000000000E+00 -0.44408920985E-14  0.25156982027E+03  0.51499561195E+03  0.44936967616E+03 0.  0.
      99925    2    3    3    0    0  0.98900987145E+02 -0.43122506386E+01  0.20812447479E+03  0.34966259375E+03  0.26296032342E+03 0.  0.
         25    1    3    3    0    0 -0.98900987145E+02  0.43122506386E+01  0.43445345486E+02  0.16533301820E+03  0.12509000000E+03 0.  0.
         25    1    4    4    0    0  0.47636936150E+02 -0.37746119777E+02  0.12791845185E+03  0.18895683546E+03  0.12509000000E+03 0.  0.
         25    1    4    4    0    0  0.51264050995E+02  0.33433869139E+02  0.80206022933E+02  0.16070575828E+03  0.12509000000E+03 0.  0.
<mgrwt>
<rscale>  2 0.44936968E+03</rscale>
<asrwt>0</asrwt>
<pdfrwt beam="1">  1       21 0.56365105E-01 0.44936968E+03</pdfrwt>
<pdfrwt beam="2">  1       21 0.19369544E-01 0.44936968E+03</pdfrwt>
<totfact> 0.67180826E+04</totfact>
</mgrwt>
</event>
<event>
 7    0  0.4752811E-002  0.4603073E+03  0.7546771E-02  0.1024692E+00
         21   -1    0    0  502  501  0.00000000000E+00  0.00000000000E+00  0.10970267700E+03  0.10970267700E+03  0.00000000000E+00 0. -1.
         21   -1    0    0  501  502 -0.00000000000E+00 -0.00000000000E+00 -0.48285697710E+03  0.48285697710E+03  0.00000000000E+00 0. -1.
      99926    2    1    2    0    0  0.00000000000E+00 -0.71054273576E-14 -0.37315430010E+03  0.59255965410E+03  0.46030730169E+03 0.  0.
      99925    2    3    3    0    0  0.64749164423E+02  0.58933780017E+02 -0.13168331211E+03  0.30686507792E+03  0.26298295883E+03 0.  0.
         25    1    4    4    0    0  0.21907469028E+02 -0.11052428107E+02 -0.64648759771E+02  0.14293027533E+03  0.12509000000E+03 0.  0.
         25    1    3    3    0    0 -0.64749164423E+02 -0.58933780017E+02 -0.24147098799E+03  0.28569457619E+03  0.12509000000E+03 0.  0.
         25    1    4    4    0    0  0.42841695395E+02  0.69986208124E+02 -0.67034552335E+02  0.16393480259E+03  0.12509000000E+03 0.  0.
<mgrwt>
<rscale>  2 0.46030730E+03</rscale>
<asrwt>0</asrwt>
<pdfrwt beam="1">  1       21 0.16132747E-01 0.46030730E+03</pdfrwt>
<pdfrwt beam="2">  1       21 0.71008379E-01 0.46030730E+03</pdfrwt>
<totfact> 0.56721735E+04</totfact>
</mgrwt>
</event>
<event>
 7    0  0.4752811E-002  0.4582563E+03  0.7546771E-02  0.1025288E+00
         21   -1    0    0  502  501  0.00000000000E+00  0.00000000000E+00  0.33216116546E+03  0.33216116546E+03  0.00000000000E+00 0.  1.
         21   -1    0    0  501  502 -0.00000000000E+00 -0.00000000000E+00 -0.15805491930E+03  0.15805491930E+03  0.00000000000E+00 0.  1.
      99926    2    1    2    0    0  0.14210854715E-13  0.71054273576E-14  0.17410624616E+03  0.49021608475E+03  0.45825628724E+03 0.  0.
      99925    2    3    3    0    0 -0.11415429683E+03 -0.21522939589E+02  0.10479540734E+03  0.30597184226E+03  0.26294914042E+03 0.  0.
         25    1    4    4    0    0 -0.77464714535E+02 -0.46878867406E+02  0.50075958238E+02  0.16233767246E+03  0.12509000000E+03 0.  0.
         25    1    4    4    0    0 -0.36689582293E+02  0.25355927817E+02  0.54719449106E+02  0.14363416980E+03  0.12509000000E+03 0.  0.
         25    1    3    3    0    0  0.11415429683E+03  0.21522939589E+02  0.69310838819E+02  0.18424424249E+03  0.12509000000E+03 0.  0.
<mgrwt>
<rscale>  2 0.45825629E+03</rscale>
<asrwt>0</asrwt>
<pdfrwt beam="1">  1       21 0.48847230E-01 0.45825629E+03</pdfrwt>
<pdfrwt beam="2">  1       21 0.23243371E-01 0.45825629E+03</pdfrwt>
<totfact> 0.64285674E+04</totfact>
</mgrwt>
</event>
<event>
 7    0  0.4752811E-002  0.4556009E+03  0.7546771E-02  0.1026065E+00
         21   -1    0    0  502  501  0.00000000000E+00  0.00000000000E+00  0.12320154943E+03  0.12320154943E+03  0.00000000000E+00 0. -1.
         21   -1    0    0  501  502 -0.00000000000E+00 -0.00000000000E+00 -0.42120455820E+03  0.42120455820E+03  0.00000000000E+00 0. -1.
      99926    2    1    2    0    0  0.00000000000E+00  0.00000000000E+00 -0.29800300877E+03  0.54440610763E+03  0.45560094029E+03 0.  0.
      99925    2    3    3    0    0 -0.92942355710E+02 -0.16301583854E+02 -0.26328670947E+03  0.38391700315E+03  0.26299876578E+03 0.  0.
         25    1    3    3    0    0  0.92942355710E+02  0.16301583854E+02 -0.34716299297E+02  0.16048910448E+03  0.12509000000E+03 0.  0.
         25    1    4    4    0    0 -0.61465634272E+02 -0.34634028246E+01 -0.18786190538E+03  0.23394363199E+03  0.12509000000E+03 0.  0.
         25    1    4    4    0    0 -0.31476721438E+02 -0.12838181029E+02 -0.75424804091E+02  0.14997337116E+03  0.12509000000E+03 0.  0.
<mgrwt>
<rscale>  2 0.45560094E+03</rscale>
<asrwt>0</asrwt>
<pdfrwt beam="1">  1       21 0.18117875E-01 0.45560094E+03</pdfrwt>
<pdfrwt beam="2">  1       21 0.61941847E-01 0.45560094E+03</pdfrwt>
<totfact> 0.61942602E+04</totfact>
</mgrwt>
</event>
<event>
 7    0  0.4752811E-002  0.4584920E+03  0.7546771E-02  0.1025219E+00
         21   -1    0    0  502  501  0.00000000000E+00  0.00000000000E+00  0.27520910261E+03  0.27520910261E+03  0.00000000000E+00 0.  1.
         21   -1    0    0  501  502 -0.00000000000E+00 -0.00000000000E+00 -0.19095927862E+03  0.19095927862E+03  0.00000000000E+00 0.  1.
      99926    2    1    2    0    0  0.00000000000E+00  0.00000000000E+00  0.84249823991E+02  0.46616838123E+03  0.45849201391E+03 0.  0.
      99925    2    3    3    0    0  0.25362248213E+02  0.85105122685E+02 -0.23936816522E+02  0.27845055355E+03  0.26282240020E+03 0.  0.
         25    1    4    4    0    0  0.26956754927E+02  0.29380614384E+02  0.23776842396E+02  0.13342688437E+03  0.12509000000E+03 0.  0.
         25    1    4    4    0    0 -0.15945067133E+01  0.55724508301E+02 -0.47713658918E+02  0.14502366919E+03  0.12509000000E+03 0.  0.
         25    1    3    3    0    0 -0.25362248213E+02 -0.85105122685E+02  0.10818664051E+03  0.18771782768E+03  0.12509000000E+03 0.  0.
<mgrwt>
<rscale>  2 0.45849201E+03</rscale>
<asrwt>0</asrwt>
<pdfrwt beam="1">  1       21 0.40471927E-01 0.45849201E+03</pdfrwt>
<pdfrwt beam="2">  1       21 0.28082247E-01 0.45849201E+03</pdfrwt>
<totfact> 0.65875775E+04</totfact>
</mgrwt>
</event>
<event>
 7    0  0.4752811E-002  0.4559655E+03  0.7546771E-02  0.1025958E+00
         21   -1    0    0  502  501  0.00000000000E+00  0.00000000000E+00  0.13552956129E+03  0.13552956129E+03  0.00000000000E+00 0.  1.
         21   -1    0    0  501  502 -0.00000000000E+00 -0.00000000000E+00 -0.38350395733E+03  0.38350395733E+03  0.00000000000E+00 0.  1.
      99926    2    1    2    0    0  0.14210854715E-13  0.88817841970E-15 -0.24797439604E+03  0.51903351862E+03  0.45596545084E+03 0.  0.
      99925    2    3    3    0    0  0.11307366925E+03  0.75655745930E+01 -0.14313748958E+03  0.32033480787E+03  0.26321693642E+03 0.  0.
         25    1    3    3    0    0 -0.11307366925E+03 -0.75655745930E+01 -0.10483690646E+03  0.19869871074E+03  0.12509000000E+03 0.  0.
         25    1    4    4    0    0  0.50477337473E+02  0.38594884882E+02 -0.47739550054E+02  0.14820289969E+03  0.12509000000E+03 0.  0.
         25    1    4    4    0    0  0.62596331774E+02 -0.31029310289E+02 -0.95397939528E+02  0.17213190818E+03  0.12509000000E+03 0.  0.
<mgrwt>
<rscale>  2 0.45596545E+03</rscale>
<asrwt>0</asrwt>
<pdfrwt beam="1">  1       21 0.19930818E-01 0.45596545E+03</pdfrwt>
<pdfrwt beam="2">  1       21 0.56397641E-01 0.45596545E+03</pdfrwt>
<totfact> 0.63465622E+04</totfact>
</mgrwt>
</event>
<event>
 7    0  0.4752811E-002  0.4513636E+03  0.7546771E-02  0.1027316E+00
         21   -1    0    0  502  501  0.00000000000E+00  0.00000000000E+00  0.27828313795E+03  0.27828313795E+03  0.00000000000E+00 0.  1.
         21   -1    0    0  501  502 -0.00000000000E+00 -0.00000000000E+00 -0.18302321534E+03  0.18302321534E+03  0.00000000000E+00 0.  1.
      99926    2    1    2    0    0 -0.88817841970E-15  0.00000000000E+00  0.95259922610E+02  0.46130635329E+03  0.45136359925E+03 0.  0.
      99925    2    3    3    0    0  0.38811534748E+01  0.75767562628E+02 -0.20824357270E+02  0.27454753814E+03  0.26303404712E+03 0.  0.
         25    1    4    4    0    0  0.12992363937E+02  0.46243227625E+02  0.27763520679E+02  0.13684136364E+03  0.12509000000E+03 0.  0.
         25    1    3    3    0    0 -0.38811534748E+01 -0.75767562628E+02  0.11608427988E+03  0.18675881514E+03  0.12509000000E+03 0.  0.
         25    1    4    4    0    0 -0.91112104624E+01  0.29524335003E+02 -0.48587877949E+02  0.13770617451E+03  0.12509000000E+03 0.  0.
<mgrwt>
<rscale>  2 0.45136360E+03</rscale>
<asrwt>0</asrwt>
<pdfrwt beam="1">  1       21 0.40923991E-01 0.45136360E+03</pdfrwt>
<pdfrwt beam="2">  1       21 0.26915179E-01 0.45136360E+03</pdfrwt>
<totfact> 0.70088381E+04</totfact>
</mgrwt>
</event>
<event>
 7    0  0.4752811E-002  0.4515124E+03  0.7546771E-02  0.1027272E+00
         21   -1    0    0  502  501  0.00000000000E+00  0.00000000000E+00  0.48337716459E+03  0.48337716459E+03  0.00000000000E+00 0.  1.
         21   -1    0    0  501  502 -0.00000000000E+00 -0.00000000000E+00 -0.10543706610E+03  0.10543706610E+03  0.00000000000E+00 0.  1.
      99926    2    1    2    0    0  0.00000000000E+00  0.00000000000E+00  0.37794009849E+03  0.58881423068E+03  0.45151243638E+03 0.  0.
      99925    2    3    3    0    0 -0.96764586092E+02  0.49939143281E+02  0.21926373557E+03  0.35928645589E+03  0.26296932995E+03 0.  0.
         25    1    4    4    0    0 -0.91397443463E+02  0.24552880378E+02  0.11907305420E+03  0.19693206174E+03  0.12509000000E+03 0.  0.
         25    1    4    4    0    0 -0.53671426290E+01  0.25386262904E+02  0.10019068137E+03  0.16235439414E+03  0.12509000000E+03 0.  0.
         25    1    3    3    0    0  0.96764586092E+02 -0.49939143281E+02  0.15867636292E+03  0.22952777480E+03  0.12509000000E+03 0.  0.
<mgrwt>
<rscale>  2 0.45151244E+03</rscale>
<asrwt>0</asrwt>
<pdfrwt beam="1">  1       21 0.71084876E-01 0.45151244E+03</pdfrwt>
<pdfrwt beam="2">  1       21 0.15505451E-01 0.45151244E+03</pdfrwt>
<totfact> 0.61037262E+04</totfact>
</mgrwt>
</event>
<event>
 7    0  0.4752811E-002  0.4516017E+03  0.7546771E-02  0.1027245E+00
         21   -1    0    0  502  501  0.00000000000E+00  0.00000000000E+00  0.10488735780E+04  0.10488735780E+04  0.00000000000E+00 0. -1.
         21   -1    0    0  501  502 -0.00000000000E+00 -0.00000000000E+00 -0.48610271040E+02  0.48610271040E+02  0.00000000000E+00 0. -1.
      99926    2    1    2    0    0  0.35527136788E-14  0.00000000000E+00  0.10002633070E+04  0.10974838491E+04  0.45160172238E+03 0.  0.
      99925    2    3    3    0    0 -0.22107414173E+02  0.54608240570E+02  0.40570398512E+03  0.48705851128E+03  0.26298188562E+03 0.  0.
         25    1    3    3    0    0  0.22107414173E+02 -0.54608240570E+02  0.59455932185E+03  0.61042533777E+03  0.12509000000E+03 0.  0.
         25    1    4    4    0    0 -0.22919987907E+02  0.13705808829E+02  0.13451277819E+03  0.18561888545E+03  0.12509000000E+03 0.  0.
         25    1    4    4    0    0  0.81257373441E+00  0.40902431741E+02  0.27119120693E+03  0.30143962582E+03  0.12509000000E+03 0.  0.
<mgrwt>
<rscale>  2 0.45160172E+03</rscale>
<asrwt>0</asrwt>
<pdfrwt beam="1">  1       21 0.15424610E+00 0.45160172E+03</pdfrwt>
<pdfrwt beam="2">  1       21 0.71485699E-02 0.45160172E+03</pdfrwt>
<totfact> 0.36540773E+04</totfact>
</mgrwt>
</event>
<event>
 7    0  0.4752811E-002  0.4584300E+03  0.7546771E-02  0.1025238E+00
         21   -1    0    0  502  501  0.00000000000E+00  0.00000000000E+00  0.22616079439E+03  0.22616079439E+03  0.00000000000E+00 0.  1.
         21   -1    0    0  501  502 -0.00000000000E+00 -0.00000000000E+00 -0.23231045334E+03  0.23231045334E+03  0.00000000000E+00 0.  1.
      99926    2    1    2    0    0 -0.17763568394E-14  0.00000000000E+00 -0.61496589468E+01  0.45847124773E+03  0.45843000195E+03 0.  0.
      99925    2    3    3    0    0  0.55224672509E+01 -0.22481423734E+02  0.11021389522E+03  0.28606505034E+03  0.26296425283E+03 0.  0.
         25    1    3    3    0    0 -0.55224672509E+01  0.22481423734E+02 -0.11636355417E+03  0.17240619738E+03  0.12509000000E+03 0.  0.
         25    1    4    4    0    0  0.39705746422E+02 -0.58857330865E+00  0.68830562464E+02  0.14819597547E+03  0.12509000000E+03 0.  0.
         25    1    4    4    0    0 -0.34183279171E+02 -0.21892850425E+02  0.41383332758E+02  0.13786907487E+03  0.12509000000E+03 0.  0.
<mgrwt>
<rscale>  2 0.45843000E+03</rscale>
<asrwt>0</asrwt>
<pdfrwt beam="1">  1       21 0.33258941E-01 0.45843000E+03</pdfrwt>
<pdfrwt beam="2">  1       21 0.34163302E-01 0.45843000E+03</pdfrwt>
<totfact> 0.66454805E+04</totfact>
</mgrwt>
</event>
<event>
 7    0  0.4752811E-002  0.4565109E+03  0.7546771E-02  0.1025798E+00
         21   -1    0    0  502  501  0.00000000000E+00  0.00000000000E+00  0.21654464167E+03  0.21654464167E+03  0.00000000000E+00 0.  1.
         21   -1    0    0  501  502 -0.00000000000E+00 -0.00000000000E+00 -0.24059962529E+03  0.24059962529E+03  0.00000000000E+00 0.  1.
      99926    2    1    2    0    0  0.71054273576E-14  0.00000000000E+00 -0.24054983615E+02  0.45714426696E+03  0.45651094026E+03 0.  0.
      99925    2    3    3    0    0 -0.41155039820E+02  0.36708340297E+02 -0.11606469202E+03  0.29235793837E+03  0.26260409716E+03 0.  0.
         25    1    4    4    0    0  0.16434419207E+02  0.11417845969E+02 -0.39056777517E+02  0.13256469104E+03  0.12509000000E+03 0.  0.
         25    1    3    3    0    0  0.41155039820E+02 -0.36708340297E+02  0.92009708403E+02  0.16478632859E+03  0.12509000000E+03 0.  0.
         25    1    4    4    0    0 -0.57589459027E+02  0.25290494328E+02 -0.77007914501E+02  0.15979324732E+03  0.12509000000E+03 0.  0.
<mgrwt>
<rscale>  2 0.45651094E+03</rscale>
<asrwt>0</asrwt>
<pdfrwt beam="1">  1       21 0.31844800E-01 0.45651094E+03</pdfrwt>
<pdfrwt beam="2">  1       21 0.35382298E-01 0.45651094E+03</pdfrwt>
<totfact> 0.67570735E+04</totfact>
</mgrwt>
</event>
<event>
 6    0  0.4752811E-002  0.4554727E+03  0.7546771E-02  0.1026102E+00
         21   -1    0    0  502  501  0.00000000000E+00  0.00000000000E+00  0.87061875600E+03  0.87061875600E+03  0.00000000000E+00 0.  1.
         21   -1    0    0  501  502 -0.00000000000E+00 -0.00000000000E+00 -0.59571241931E+02  0.59571241931E+02  0.00000000000E+00 0.  1.
      99926    2    1    2    0    0  0.00000000000E+00  0.00000000000E+00  0.81104751407E+03  0.93018999793E+03  0.45547267994E+03 0.  0.
         25    1    3    3    0    0  0.52168106635E+02  0.14738288358E+02  0.99070983482E+02  0.16852684167E+03  0.12509000000E+03 0.  0.
         25    1    3    3    0    0 -0.40443868514E+02  0.28607888013E+02  0.41600572226E+03  0.43722121038E+03  0.12509000000E+03 0.  0.
         25    1    3    3    0    0 -0.11724238121E+02 -0.43346176371E+02  0.29597080833E+03  0.32444194588E+03  0.12509000000E+03 0.  0.
<mgrwt>
<rscale>  2 0.45547268E+03</rscale>
<asrwt>0</asrwt>
<pdfrwt beam="1">  1       21 0.12803216E+00 0.45547268E+03</pdfrwt>
<pdfrwt beam="2">  1       21 0.87604773E-02 0.45547268E+03</pdfrwt>
<totfact> 0.41798835E+04</totfact>
</mgrwt>
</event>
<event>
 7    0  0.4752811E-002  0.4602611E+03  0.7546771E-02  0.1024706E+00
         21   -1    0    0  502  501  0.00000000000E+00  0.00000000000E+00  0.15587176783E+04  0.15587176783E+04  0.00000000000E+00 0.  1.
         21   -1    0    0  501  502 -0.00000000000E+00 -0.00000000000E+00 -0.33976688639E+02  0.33976688639E+02  0.00000000000E+00 0.  1.
      99926    2    1    2    0    0  0.00000000000E+00  0.00000000000E+00  0.15247409896E+04  0.15926943669E+04  0.46026107909E+03 0.  0.
      99925    2    3    3    0    0 -0.31688657340E+02 -0.58536946689E+02  0.61830144608E+03  0.67524633059E+03  0.26311629296E+03 0.  0.
         25    1    4    4    0    0 -0.18600565144E+02 -0.66968726836E+02  0.37168602797E+03  0.39828231556E+03  0.12509000000E+03 0.  0.
         25    1    4    4    0    0 -0.13088092196E+02  0.84317801468E+01  0.24661541811E+03  0.27696401504E+03  0.12509000000E+03 0.  0.
         25    1    3    3    0    0  0.31688657340E+02  0.58536946689E+02  0.90643954354E+03  0.91744803631E+03  0.12509000000E+03 0.  0.
<mgrwt>
<rscale>  2 0.46026108E+03</rscale>
<asrwt>0</asrwt>
<pdfrwt beam="1">  1       21 0.22922314E+00 0.46026108E+03</pdfrwt>
<pdfrwt beam="2">  1       21 0.49965729E-02 0.46026108E+03</pdfrwt>
<totfact> 0.20735275E+04</totfact>
</mgrwt>
</event>
<event>
 7    0  0.4752811E-002  0.4470335E+03  0.7546771E-02  0.1028610E+00
         21   -1    0    0  502  501  0.00000000000E+00  0.00000000000E+00  0.11549426517E+04  0.11549426517E+04  0.00000000000E+00 0. -1.
         21   -1    0    0  501  502 -0.00000000000E+00 -0.00000000000E+00 -0.43257330271E+02  0.43257330271E+02  0.00000000000E+00 0. -1.
      99926    2    1    2    0    0  0.00000000000E+00  0.00000000000E+00  0.11116853214E+04  0.11981999820E+04  0.44703349194E+03 0.  0.
      99925    2    3    3    0    0 -0.96956703212E+02  0.28190976280E+02  0.62477827575E+03  0.68544144945E+03  0.26322377046E+03 0.  0.
         25    1    4    4    0    0 -0.67475517777E+02 -0.20884387268E+02  0.34329617716E+03  0.37214093632E+03  0.12509000000E+03 0.  0.
         25    1    3    3    0    0  0.96956703212E+02 -0.28190976280E+02  0.48690704568E+03  0.51275853252E+03  0.12509000000E+03 0.  0.
         25    1    4    4    0    0 -0.29481185435E+02  0.49075363548E+02  0.28148209859E+03  0.31330051313E+03  0.12509000000E+03 0.  0.
<mgrwt>
<rscale>  2 0.44703349E+03</rscale>
<asrwt>0</asrwt>
<pdfrwt beam="1">  1       21 0.16984449E+00 0.44703349E+03</pdfrwt>
<pdfrwt beam="2">  1       21 0.63613729E-02 0.44703349E+03</pdfrwt>
<totfact> 0.34292287E+04</totfact>
</mgrwt>
</event>
<event>
 7    0  0.4752811E-002  0.4518387E+03  0.7546771E-02  0.1027175E+00
         21   -1    0    0  502  501  0.00000000000E+00  0.00000000000E+00  0.77961781594E+02  0.77961781594E+02  0.00000000000E+00 0.  1.
         21   -1    0    0  501  502 -0.00000000000E+00 -0.00000000000E+00 -0.65467391543E+03  0.65467391543E+03  0.00000000000E+00 0.  1.
      99926    2    1    2    0    0  0.00000000000E+00 -0.17763568394E-14 -0.57671213383E+03  0.73263569702E+03  0.45183866506E+03 0.  0.
      99925    2    3    3    0    0 -0.67501886542E+02  0.14327757661E+02 -0.50332688040E+03  0.57202843427E+03  0.26290072605E+03 0.  0.
         25    1    4    4    0    0 -0.42969404682E+02  0.27670647301E+02 -0.18692361721E+03  0.23065121121E+03  0.12509000000E+03 0.  0.
         25    1    3    3    0    0  0.67501886542E+02 -0.14327757661E+02 -0.73385253434E+02  0.16060726275E+03  0.12509000000E+03 0.  0.
         25    1    4    4    0    0 -0.24532481860E+02 -0.13342889641E+02 -0.31640326319E+03  0.34137722307E+03  0.12509000000E+03 0.  0.
<mgrwt>
<rscale>  2 0.45183867E+03</rscale>
<asrwt>0</asrwt>
<pdfrwt beam="1">  1       21 0.11464968E-01 0.45183867E+03</pdfrwt>
<pdfrwt beam="2">  1       21 0.96275574E-01 0.45183867E+03</pdfrwt>
<totfact> 0.52458511E+04</totfact>
</mgrwt>
</event>
<event>
 7    0  0.4752811E-002  0.4558648E+03  0.7546771E-02  0.1025987E+00
         21   -1    0    0  502  501  0.00000000000E+00  0.00000000000E+00  0.25300201612E+03  0.25300201612E+03  0.00000000000E+00 0.  1.
         21   -1    0    0  501  502 -0.00000000000E+00 -0.00000000000E+00 -0.20534691507E+03  0.20534691507E+03  0.00000000000E+00 0.  1.
      99926    2    1    2    0    0  0.00000000000E+00  0.00000000000E+00  0.47655101056E+02  0.45834893119E+03  0.45586481995E+03 0.  0.
      99925    2    3    3    0    0 -0.95472704669E+02 -0.58855967785E+02  0.96281355604E+01  0.28609150614E+03  0.26301442282E+03 0.  0.
         25    1    4    4    0    0 -0.25580091550E+02 -0.60425475418E+02  0.18785219937E+02  0.14249902369E+03  0.12509000000E+03 0.  0.
         25    1    4    4    0    0 -0.69892613119E+02  0.15695076328E+01 -0.91570843763E+01  0.14359248245E+03  0.12509000000E+03 0.  0.
         25    1    3    3    0    0  0.95472704669E+02  0.58855967785E+02  0.38026965496E+02  0.17225742505E+03  0.12509000000E+03 0.  0.
<mgrwt>
<rscale>  2 0.45586482E+03</rscale>
<asrwt>0</asrwt>
<pdfrwt beam="1">  1       21 0.37206179E-01 0.45586482E+03</pdfrwt>
<pdfrwt beam="2">  1       21 0.30198076E-01 0.45586482E+03</pdfrwt>
<totfact> 0.67831870E+04</totfact>
</mgrwt>
</event>
<event>
 7    0  0.4752811E-002  0.4539005E+03  0.7546771E-02  0.1026565E+00
         21   -1    0    0  502  501  0.00000000000E+00  0.00000000000E+00  0.68603415900E+03  0.68603415900E+03  0.00000000000E+00 0.  1.
         21   -1    0    0  501  502 -0.00000000000E+00 -0.00000000000E+00 -0.75078490985E+02  0.75078490985E+02  0.00000000000E+00 0.  1.
      99926    2    1    2    0    0  0.00000000000E+00  0.71054273576E-14  0.61095566802E+03  0.76111264999E+03  0.45390047113E+03 0.  0.
      99925    2    3    3    0    0  0.19206500684E+02 -0.54986719317E+02  0.22417063179E+03  0.35045147418E+03  0.26300443841E+03 0.  0.
         25    1    3    3    0    0 -0.19206500684E+02  0.54986719317E+02  0.38678503622E+03  0.41066117581E+03  0.12509000000E+03 0.  0.
         25    1    4    4    0    0  0.55030382189E+01 -0.34997094089E+01  0.15051569448E+03  0.19581882897E+03  0.12509000000E+03 0.  0.
         25    1    4    4    0    0  0.13703462465E+02 -0.51487009908E+02  0.73654937315E+02  0.15463264521E+03  0.12509000000E+03 0.  0.
<mgrwt>
<rscale>  2 0.45390047E+03</rscale>
<asrwt>0</asrwt>
<pdfrwt beam="1">  1       21 0.10088737E+00 0.45390047E+03</pdfrwt>
<pdfrwt beam="2">  1       21 0.11040955E-01 0.45390047E+03</pdfrwt>
<totfact> 0.50134263E+04</totfact>
</mgrwt>
</event>
<event>
 7    0  0.4752811E-002  0.4423414E+03  0.7546771E-02  0.1030031E+00
         21   -1    0    0  502  501  0.00000000000E+00  0.00000000000E+00  0.14511834098E+04  0.14511834098E+04  0.00000000000E+00 0.  1.
         21   -1    0    0  501  502 -0.00000000000E+00 -0.00000000000E+00 -0.33707996354E+02  0.33707996354E+02  0.00000000000E+00 0.  1.
      99926    2    1    2    0    0  0.00000000000E+00  0.00000000000E+00  0.14174754134E+04  0.14848914061E+04  0.44234142960E+03 0.  0.
      99925    2    3    3    0    0  0.81061371401E+02 -0.48611091443E+02  0.78933328377E+03  0.83747807040E+03  0.26341697246E+03 0.  0.
         25    1    4    4    0    0  0.50982929437E+02 -0.21310065221E+02  0.28250074899E+03  0.31385913919E+03  0.12509000000E+03 0.  0.
         25    1    4    4    0    0  0.30078441964E+02 -0.27301026223E+02  0.50683253478E+03  0.52361893121E+03  0.12509000000E+03 0.  0.
         25    1    3    3    0    0 -0.81061371401E+02  0.48611091443E+02  0.62814212965E+03  0.64741333573E+03  0.12509000000E+03 0.  0.
<mgrwt>
<rscale>  2 0.44234143E+03</rscale>
<asrwt>0</asrwt>
<pdfrwt beam="1">  1       21 0.21340928E+00 0.44234143E+03</pdfrwt>
<pdfrwt beam="2">  1       21 0.49570593E-02 0.44234143E+03</pdfrwt>
<totfact> 0.26680523E+04</totfact>
</mgrwt>
</event>
<event>
 7    0  0.4752811E-002  0.4403640E+03  0.7546771E-02  0.1030635E+00
         21   -1    0    0  502  501  0.00000000000E+00  0.00000000000E+00  0.12231099805E+03  0.12231099805E+03  0.00000000000E+00 0. -1.
         21   -1    0    0  501  502 -0.00000000000E+00 -0.00000000000E+00 -0.39636757312E+03  0.39636757312E+03  0.00000000000E+00 0. -1.
      99926    2    1    2    0    0  0.88817841970E-15  0.35527136788E-14 -0.27405657507E+03  0.51867857117E+03  0.44036400154E+03 0.  0.
      99925    2    3    3    0    0 -0.63582829866E+01  0.18495801583E+02 -0.28894730330E+03  0.39119616326E+03  0.26298549699E+03 0.  0.
         25    1    4    4    0    0  0.10193439700E+02  0.31297076642E+02 -0.99391934839E+02  0.16312473151E+03  0.12509000000E+03 0.  0.
         25    1    4    4    0    0 -0.16551722687E+02 -0.12801275059E+02 -0.18955536846E+03  0.22807143175E+03  0.12509000000E+03 0.  0.
         25    1    3    3    0    0  0.63582829866E+01 -0.18495801583E+02  0.14890728235E+02  0.12748240791E+03  0.12509000000E+03 0.  0.
<mgrwt>
<rscale>  2 0.44036400E+03</rscale>
<asrwt>0</asrwt>
<pdfrwt beam="1">  1       21 0.17986912E-01 0.44036400E+03</pdfrwt>
<pdfrwt beam="2">  1       21 0.58289348E-01 0.44036400E+03</pdfrwt>
<totfact> 0.71969778E+04</totfact>
</mgrwt>
</event>
<event>
 7    0  0.4752811E-002  0.4537722E+03  0.7546771E-02  0.1026603E+00
         21   -1    0    0  502  501  0.00000000000E+00  0.00000000000E+00  0.12166359404E+03  0.12166359404E+03  0.00000000000E+00 0.  1.
         21   -1    0    0  501  502 -0.00000000000E+00 -0.00000000000E+00 -0.42311188071E+03  0.42311188071E+03  0.00000000000E+00 0.  1.
      99926    2    1    2    0    0  0.00000000000E+00  0.00000000000E+00 -0.30144828668E+03  0.54477547475E+03  0.45377224282E+03 0.  0.
      99925    2    3    3    0    0  0.87163056402E+02  0.68006544647E+02 -0.16909079671E+03  0.33173017026E+03  0.26311769194E+03 0.  0.
         25    1    4    4    0    0  0.42180188914E+01  0.38513781396E+02 -0.61206545488E+02  0.14455051834E+03  0.12509000000E+03 0.  0.
         25    1    3    3    0    0 -0.87163056402E+02 -0.68006544647E+02 -0.13235748996E+03  0.21304530449E+03  0.12509000000E+03 0.  0.
         25    1    4    4    0    0  0.82945037511E+02  0.29492763251E+02 -0.10788425122E+03  0.18717965192E+03  0.12509000000E+03 0.  0.
<mgrwt>
<rscale>  2 0.45377224E+03</rscale>
<asrwt>0</asrwt>
<pdfrwt beam="1">  1       21 0.17891705E-01 0.45377224E+03</pdfrwt>
<pdfrwt beam="2">  1       21 0.62222337E-01 0.45377224E+03</pdfrwt>
<totfact> 0.62821175E+04</totfact>
</mgrwt>
</event>
<event>
 7    0  0.4752811E-002  0.4073878E+03  0.7546771E-02  0.1041251E+00
         21   -1    0    0  502  501  0.00000000000E+00  0.00000000000E+00  0.50907590606E+02  0.50907590606E+02  0.00000000000E+00 0.  1.
         21   -1    0    0  501  502 -0.00000000000E+00 -0.00000000000E+00 -0.81502990712E+03  0.81502990712E+03  0.00000000000E+00 0.  1.
      99926    2    1    2    0    0  0.00000000000E+00  0.00000000000E+00 -0.76412231652E+03  0.86593749773E+03  0.40738781937E+03 0.  0.
      99925    2    3    3    0    0 -0.20028084602E+02  0.41241975737E+02 -0.42886728259E+03  0.50518069515E+03  0.26301780156E+03 0.  0.
         25    1    3    3    0    0  0.20028084602E+02 -0.41241975737E+02 -0.33525503392E+03  0.36075680258E+03  0.12509000000E+03 0.  0.
         25    1    4    4    0    0  0.15869626472E+02  0.30639572511E+02 -0.15776846805E+03  0.20427683681E+03  0.12509000000E+03 0.  0.
         25    1    4    4    0    0 -0.35897711073E+02  0.10602403226E+02 -0.27109881454E+03  0.30090385833E+03  0.12509000000E+03 0.  0.
<mgrwt>
<rscale>  2 0.40738782E+03</rscale>
<asrwt>0</asrwt>
<pdfrwt beam="1">  1       21 0.74864103E-02 0.40738782E+03</pdfrwt>
<pdfrwt beam="2">  1       21 0.11985734E+00 0.40738782E+03</pdfrwt>
<totfact> 0.66174333E+04</totfact>
</mgrwt>
</event>
<event>
 7    0  0.4752811E-002  0.4900288E+03  0.7546771E-02  0.1016415E+00
         21   -1    0    0  502  501  0.00000000000E+00  0.00000000000E+00  0.60436388833E+03  0.60436388833E+03  0.00000000000E+00 0. -1.
         21   -1    0    0  501  502 -0.00000000000E+00 -0.00000000000E+00 -0.99330980453E+02  0.99330980453E+02  0.00000000000E+00 0. -1.
      99926    2    1    2    0    0  0.00000000000E+00  0.00000000000E+00  0.50503290788E+03  0.70369486878E+03  0.49002880559E+03 0.  0.
      99925    2    3    3    0    0 -0.15337079219E+02  0.11541818954E+03  0.18824486771E+03  0.34375215811E+03  0.26300728414E+03 0.  0.
         25    1    4    4    0    0 -0.12495871014E+02  0.68753677888E+02  0.50559886119E+02  0.15194415158E+03  0.12509000000E+03 0.  0.
         25    1    4    4    0    0 -0.28412082051E+01  0.46664511650E+02  0.13768498159E+03  0.19180800652E+03  0.12509000000E+03 0.  0.
         25    1    3    3    0    0  0.15337079219E+02 -0.11541818954E+03  0.31678804017E+03  0.35994271068E+03  0.12509000000E+03 0.  0.
<mgrwt>
<rscale>  2 0.49002881E+03</rscale>
<asrwt>0</asrwt>
<pdfrwt beam="1">  1       21 0.88877041E-01 0.49002881E+03</pdfrwt>
<pdfrwt beam="2">  1       21 0.14607497E-01 0.49002881E+03</pdfrwt>
<totfact> 0.40361491E+04</totfact>
</mgrwt>
</event>
<event>
 7    0  0.4752811E-002  0.4545389E+03  0.7546771E-02  0.1026377E+00
         21   -1    0    0  502  501  0.00000000000E+00  0.00000000000E+00  0.31005898144E+03  0.31005898144E+03  0.00000000000E+00 0. -1.
         21   -1    0    0  501  502 -0.00000000000E+00 -0.00000000000E+00 -0.16658572483E+03  0.16658572483E+03  0.00000000000E+00 0. -1.
      99926    2    1    2    0    0  0.00000000000E+00  0.00000000000E+00  0.14347325660E+03  0.47664470627E+03  0.45453888795E+03 0.  0.
      99925    2    3    3    0    0 -0.50750018696E+02  0.10048736890E+03  0.10841885113E+03  0.30474474946E+03  0.26161314826E+03 0.  0.
         25    1    4    4    0    0 -0.41079916013E+02  0.77871656790E+02  0.85419535478E+02  0.17520148279E+03  0.12509000000E+03 0.  0.
         25    1    3    3    0    0  0.50750018696E+02 -0.10048736890E+03  0.35054405475E+02  0.17189995681E+03  0.12509000000E+03 0.  0.
         25    1    4    4    0    0 -0.96701026822E+01  0.22615712114E+02  0.22999315649E+02  0.12954326667E+03  0.12509000000E+03 0.  0.
<mgrwt>
<rscale>  2 0.45453889E+03</rscale>
<asrwt>0</asrwt>
<pdfrwt beam="1">  1       21 0.45596909E-01 0.45453889E+03</pdfrwt>
<pdfrwt beam="2">  1       21 0.24497901E-01 0.45453889E+03</pdfrwt>
<totfact> 0.67190715E+04</totfact>
</mgrwt>
</event>
<event>
 7    0  0.4752811E-002  0.4415566E+03  0.7546771E-02  0.1030270E+00
         21   -1    0    0  502  501  0.00000000000E+00  0.00000000000E+00  0.60606317766E+02  0.60606317766E+02  0.00000000000E+00 0.  1.
         21   -1    0    0  501  502 -0.00000000000E+00 -0.00000000000E+00 -0.80425688140E+03  0.80425688140E+03  0.00000000000E+00 0.  1.
      99926    2    1    2    0    0  0.35527136788E-14 -0.17763568394E-14 -0.74365056363E+03  0.86486319917E+03  0.44155655638E+03 0.  0.
      99925    2    3    3    0    0  0.29750581374E+02  0.13826017046E+02 -0.28564508993E+03  0.38895062538E+03  0.26194124484E+03 0.  0.
         25    1    3    3    0    0 -0.29750581374E+02 -0.13826017046E+02 -0.45800547371E+03  0.47591257379E+03  0.12509000000E+03 0.  0.
         25    1    4    4    0    0  0.70380201822E+01  0.39923736504E+02 -0.11596236957E+03  0.17532318078E+03  0.12509000000E+03 0.  0.
         25    1    4    4    0    0  0.22712561192E+02 -0.26097719458E+02 -0.16968272036E+03  0.21362744460E+03  0.12509000000E+03 0.  0.
<mgrwt>
<rscale>  2 0.44155656E+03</rscale>
<asrwt>0</asrwt>
<pdfrwt beam="1">  1       21 0.89126940E-02 0.44155656E+03</pdfrwt>
<pdfrwt beam="2">  1       21 0.11827307E+00 0.44155656E+03</pdfrwt>
<totfact> 0.49831220E+04</totfact>
</mgrwt>
</event>
<event>
 7    0  0.4752811E-002  0.4603084E+03  0.7546771E-02  0.1024692E+00
         21   -1    0    0  502  501  0.00000000000E+00  0.00000000000E+00  0.18970801975E+03  0.18970801975E+03  0.00000000000E+00 0.  1.
         21   -1    0    0  501  502 -0.00000000000E+00 -0.00000000000E+00 -0.27922358826E+03  0.27922358826E+03  0.00000000000E+00 0.  1.
      99926    2    1    2    0    0  0.14210854715E-13  0.00000000000E+00 -0.89515568507E+02  0.46893160801E+03  0.46030839226E+03 0.  0.
      99925    2    3    3    0    0  0.86520268311E+02  0.66626350522E+02 -0.10014185539E+03  0.30254274575E+03  0.26377811583E+03 0.  0.
         25    1    4    4    0    0  0.16344993976E+01  0.36761300367E+02 -0.33294727608E+02  0.13457381536E+03  0.12509000000E+03 0.  0.
         25    1    3    3    0    0 -0.86520268311E+02 -0.66626350522E+02  0.10626286880E+02  0.16638886226E+03  0.12509000000E+03 0.  0.
         25    1    4    4    0    0  0.84885768913E+02  0.29865050155E+02 -0.66847127779E+02  0.16796893039E+03  0.12509000000E+03 0.  0.
<mgrwt>
<rscale>  2 0.46030839E+03</rscale>
<asrwt>0</asrwt>
<pdfrwt beam="1">  1       21 0.27898239E-01 0.46030839E+03</pdfrwt>
<pdfrwt beam="2">  1       21 0.41062292E-01 0.46030839E+03</pdfrwt>
<totfact> 0.64743877E+04</totfact>
</mgrwt>
</event>
<event>
 7    0  0.4752811E-002  0.4571729E+03  0.7546771E-02  0.1025604E+00
         21   -1    0    0  502  501  0.00000000000E+00  0.00000000000E+00  0.48638747405E+02  0.48638747405E+02  0.00000000000E+00 0.  1.
         21   -1    0    0  501  502 -0.00000000000E+00 -0.00000000000E+00 -0.10742826368E+04  0.10742826368E+04  0.00000000000E+00 0.  1.
      99926    2    1    2    0    0  0.00000000000E+00  0.00000000000E+00 -0.10256438894E+04  0.11229213842E+04  0.45717288552E+03 0.  0.
      99925    2    3    3    0    0 -0.38647854712E+02  0.32996082957E+02 -0.89803837763E+03  0.93714444027E+03  0.26302923044E+03 0.  0.
         25    1    4    4    0    0 -0.32574783258E+02 -0.16001633288E+02 -0.37021919600E+03  0.39246264785E+03  0.12509000000E+03 0.  0.
         25    1    3    3    0    0  0.38647854712E+02 -0.32996082957E+02 -0.12760551175E+03  0.18577694393E+03  0.12509000000E+03 0.  0.
         25    1    4    4    0    0 -0.60730714545E+01  0.48997716245E+02 -0.52781918164E+03  0.54468179242E+03  0.12509000000E+03 0.  0.
<mgrwt>
<rscale>  2 0.45717289E+03</rscale>
<asrwt>0</asrwt>
<pdfrwt beam="1">  1       21 0.71527569E-02 0.45717289E+03</pdfrwt>
<pdfrwt beam="2">  1       21 0.15798274E+00 0.45717289E+03</pdfrwt>
<totfact> 0.34117806E+04</totfact>
</mgrwt>
</event>
<event>
 7    0  0.4752811E-002  0.4522354E+03  0.7546771E-02  0.1027058E+00
         21   -1    0    0  502  501  0.00000000000E+00  0.00000000000E+00  0.50892585519E+03  0.50892585519E+03  0.00000000000E+00 0. -1.
         21   -1    0    0  501  502 -0.00000000000E+00 -0.00000000000E+00 -0.10046497343E+03  0.10046497343E+03  0.00000000000E+00 0. -1.
      99926    2    1    2    0    0  0.00000000000E+00  0.44408920985E-15  0.40846088177E+03  0.60939082862E+03  0.45223543655E+03 0.  0.
      99925    2    3    3    0    0  0.11966770651E+02 -0.25354166813E+01  0.40574467036E+03  0.48367480799E+03  0.26298849865E+03 0.  0.
         25    1    3    3    0    0 -0.11966770651E+02  0.25354166813E+01  0.27162114061E+01  0.12571602063E+03  0.12509000000E+03 0.  0.
         25    1    4    4    0    0  0.22859596427E+02 -0.35027021747E+01  0.13648490371E+03  0.18657563376E+03  0.12509000000E+03 0.  0.
         25    1    4    4    0    0 -0.10892825776E+02  0.96728549346E+00  0.26925976665E+03  0.29709917423E+03  0.12509000000E+03 0.  0.
<mgrwt>
<rscale>  2 0.45223544E+03</rscale>
<asrwt>0</asrwt>
<pdfrwt beam="1">  1       21 0.74842036E-01 0.45223544E+03</pdfrwt>
<pdfrwt beam="2">  1       21 0.14774261E-01 0.45223544E+03</pdfrwt>
<totfact> 0.59390259E+04</totfact>
</mgrwt>
</event>
<event>
 7    0  0.4752811E-002  0.4566688E+03  0.7546771E-02  0.1025752E+00
         21   -1    0    0  502  501  0.00000000000E+00  0.00000000000E+00  0.59264818784E+02  0.59264818784E+02  0.00000000000E+00 0. -1.
         21   -1    0    0  501  502 -0.00000000000E+00 -0.00000000000E+00 -0.87972261941E+03  0.87972261941E+03  0.00000000000E+00 0. -1.
      99926    2    1    2    0    0  0.00000000000E+00  0.00000000000E+00 -0.82045780063E+03  0.93898743820E+03  0.45666881487E+03 0.  0.
      99925    2    3    3    0    0 -0.83861173697E+02 -0.77287329749E+02 -0.49086503623E+03  0.56846763273E+03  0.26306071140E+03 0.  0.
         25    1    4    4    0    0 -0.79639699283E+02 -0.60874539484E+02 -0.26440951188E+03  0.30920557779E+03  0.12509000000E+03 0.  0.
         25    1    4    4    0    0 -0.42214744140E+01 -0.16412790264E+02 -0.22645552434E+03  0.25926205495E+03  0.12509000000E+03 0.  0.
         25    1    3    3    0    0  0.83861173697E+02  0.77287329749E+02 -0.32959276440E+03  0.37051980546E+03  0.12509000000E+03 0.  0.
<mgrwt>
<rscale>  2 0.45666881E+03</rscale>
<asrwt>0</asrwt>
<pdfrwt beam="1">  1       21 0.87154140E-02 0.45666881E+03</pdfrwt>
<pdfrwt beam="2">  1       21 0.12937098E+00 0.45666881E+03</pdfrwt>
<totfact> 0.41051571E+04</totfact>
</mgrwt>
</event>
<event>
 7    0  0.4752811E-002  0.4383797E+03  0.7546771E-02  0.1031245E+00
         21   -1    0    0  502  501  0.00000000000E+00  0.00000000000E+00  0.89407004255E+02  0.89407004255E+02  0.00000000000E+00 0.  1.
         21   -1    0    0  501  502 -0.00000000000E+00 -0.00000000000E+00 -0.53736492296E+03  0.53736492296E+03  0.00000000000E+00 0.  1.
      99926    2    1    2    0    0  0.00000000000E+00  0.00000000000E+00 -0.44795791871E+03  0.62677192722E+03  0.43837968910E+03 0.  0.
      99925    2    3    3    0    0 -0.71677523498E+02  0.49898709336E+02 -0.34560587071E+03  0.44305747923E+03  0.26311397430E+03 0.  0.
         25    1    3    3    0    0  0.71677523498E+02 -0.49898709336E+02 -0.10235204800E+03  0.18371444799E+03  0.12509000000E+03 0.  0.
         25    1    4    4    0    0 -0.58867804011E+02  0.60124478720E+02 -0.17763413538E+03  0.23298447468E+03  0.12509000000E+03 0.  0.
         25    1    4    4    0    0 -0.12809719487E+02 -0.10225769383E+02 -0.16797173533E+03  0.21007300455E+03  0.12509000000E+03 0.  0.
<mgrwt>
<rscale>  2 0.43837969E+03</rscale>
<asrwt>0</asrwt>
<pdfrwt beam="1">  1       21 0.13148088E-01 0.43837969E+03</pdfrwt>
<pdfrwt beam="2">  1       21 0.79024256E-01 0.43837969E+03</pdfrwt>
<totfact> 0.65202563E+04</totfact>
</mgrwt>
</event>
<event>
 7    0  0.4752811E-002  0.4550811E+03  0.7546771E-02  0.1026218E+00
         21   -1    0    0  502  501  0.00000000000E+00  0.00000000000E+00  0.12835294401E+03  0.12835294401E+03  0.00000000000E+00 0.  1.
         21   -1    0    0  501  502 -0.00000000000E+00 -0.00000000000E+00 -0.40337765460E+03  0.40337765460E+03  0.00000000000E+00 0.  1.
      99926    2    1    2    0    0  0.00000000000E+00  0.71054273576E-14 -0.27502471059E+03  0.53173059861E+03  0.45508113350E+03 0.  0.
      99925    2    3    3    0    0  0.75348769964E+02 -0.45320642289E+02 -0.25629722952E+03  0.37768636990E+03  0.26311086332E+03 0.  0.
         25    1    4    4    0    0  0.72973676933E+02 -0.15474988740E+01 -0.13071122192E+03  0.19509096318E+03  0.12509000000E+03 0.  0.
         25    1    3    3    0    0 -0.75348769964E+02  0.45320642289E+02 -0.18727481076E+02  0.15404422871E+03  0.12509000000E+03 0.  0.
         25    1    4    4    0    0  0.23750930309E+01 -0.43773143415E+02 -0.12558600759E+03  0.18259540672E+03  0.12509000000E+03 0.  0.
<mgrwt>
<rscale>  2 0.45508113E+03</rscale>
<asrwt>0</asrwt>
<pdfrwt beam="1">  1       21 0.18875433E-01 0.45508113E+03</pdfrwt>
<pdfrwt beam="2">  1       21 0.59320242E-01 0.45508113E+03</pdfrwt>
<totfact> 0.63048954E+04</totfact>
</mgrwt>
</event>
<event>
 7    0  0.4752811E-002  0.4318251E+03  0.7546771E-02  0.1033285E+00
         21   -1    0    0  502  501  0.00000000000E+00  0.00000000000E+00  0.13983373515E+03  0.13983373515E+03  0.00000000000E+00 0. -1.
         21   -1    0    0  501  502 -0.00000000000E+00 -0.00000000000E+00 -0.33338333075E+03  0.33338333075E+03  0.00000000000E+00 0. -1.
      99926    2    1    2    0    0 -0.71054273576E-14  0.00000000000E+00 -0.19354959560E+03  0.47321706590E+03  0.43182513302E+03 0.  0.
      99925    2    3    3    0    0  0.55846662176E+02  0.68457861050E+02 -0.14163490762E+03  0.31151372226E+03  0.26301145163E+03 0.  0.
         25    1    4    4    0    0  0.61536071405E+00  0.82322144862E+01 -0.86233357126E+02  0.15215731335E+03  0.12509000000E+03 0.  0.
         25    1    4    4    0    0  0.55231301462E+02  0.60225646564E+02 -0.55401550492E+02  0.15935640891E+03  0.12509000000E+03 0.  0.
         25    1    3    3    0    0 -0.55846662176E+02 -0.68457861050E+02 -0.51914687983E+02  0.16170334364E+03  0.12509000000E+03 0.  0.
<mgrwt>
<rscale>  2 0.43182513E+03</rscale>
<asrwt>0</asrwt>
<pdfrwt beam="1">  1       21 0.20563785E-01 0.43182513E+03</pdfrwt>
<pdfrwt beam="2">  1       21 0.49026959E-01 0.43182513E+03</pdfrwt>
<totfact> 0.81125437E+04</totfact>
</mgrwt>
</event>
<event>
 7    0  0.4752811E-002  0.4579148E+03  0.7546771E-02  0.1025388E+00
         21   -1    0    0  502  501  0.00000000000E+00  0.00000000000E+00  0.71590230228E+02  0.71590230228E+02  0.00000000000E+00 0. -1.
         21   -1    0    0  501  502 -0.00000000000E+00 -0.00000000000E+00 -0.73224360595E+03  0.73224360595E+03  0.00000000000E+00 0. -1.
      99926    2    1    2    0    0  0.88817841970E-15  0.00000000000E+00 -0.66065337572E+03  0.80383383618E+03  0.45791478829E+03 0.  0.
      99925    2    3    3    0    0 -0.50804280699E+01  0.11539190440E+03 -0.39495225776E+03  0.48826182453E+03  0.26281404269E+03 0.  0.
         25    1    4    4    0    0 -0.69854088053E+01  0.82466958595E+02 -0.15519084851E+03  0.21582702045E+03  0.12509000000E+03 0.  0.
         25    1    4    4    0    0  0.19049807355E+01  0.32924945800E+02 -0.23976140925E+03  0.27243480408E+03  0.12509000000E+03 0.  0.
         25    1    3    3    0    0  0.50804280699E+01 -0.11539190440E+03 -0.26570111797E+03  0.31557201165E+03  0.12509000000E+03 0.  0.
<mgrwt>
<rscale>  2 0.45791479E+03</rscale>
<asrwt>0</asrwt>
<pdfrwt beam="1">  1       21 0.10527975E-01 0.45791479E+03</pdfrwt>
<pdfrwt beam="2">  1       21 0.10768289E+00 0.45791479E+03</pdfrwt>
<totfact> 0.46506965E+04</totfact>
</mgrwt>
</event>
<event>
 7    0  0.4752811E-002  0.4506015E+03  0.7546771E-02  0.1027543E+00
         21   -1    0    0  502  501  0.00000000000E+00  0.00000000000E+00  0.83083947316E+03  0.83083947316E+03  0.00000000000E+00 0. -1.
         21   -1    0    0  501  502 -0.00000000000E+00 -0.00000000000E+00 -0.61095339511E+02  0.61095339511E+02  0.00000000000E+00 0. -1.
      99926    2    1    2    0    0  0.00000000000E+00  0.71054273576E-14  0.76974413365E+03  0.89193481267E+03  0.45060146334E+03 0.  0.
      99925    2    3    3    0    0 -0.80079788051E+02 -0.44223741108E+02  0.60377288955E+03  0.66486109402E+03  0.26292596004E+03 0.  0.
         25    1    4    4    0    0 -0.58467251901E+02  0.20758288245E+01  0.24129898109E+03  0.27802056576E+03  0.12509000000E+03 0.  0.
         25    1    4    4    0    0 -0.21612536150E+02 -0.46299569932E+02  0.36247390846E+03  0.38684052827E+03  0.12509000000E+03 0.  0.
         25    1    3    3    0    0  0.80079788051E+02  0.44223741108E+02  0.16597124410E+03  0.22707371864E+03  0.12509000000E+03 0.  0.
<mgrwt>
<rscale>  2 0.45060146E+03</rscale>
<asrwt>0</asrwt>
<pdfrwt beam="1">  1       21 0.12218227E+00 0.45060146E+03</pdfrwt>
<pdfrwt beam="2">  1       21 0.89846092E-02 0.45060146E+03</pdfrwt>
<totfact> 0.45118248E+04</totfact>
</mgrwt>
</event>
<event>
 6    0  0.4752811E-002  0.4412584E+03  0.7546771E-02  0.1030361E+00
         21   -1    0    0  502  501  0.00000000000E+00  0.00000000000E+00  0.15135467580E+03  0.15135467580E+03  0.00000000000E+00 0. -1.
         21   -1    0    0  501  502 -0.00000000000E+00 -0.00000000000E+00 -0.32161050188E+03  0.32161050188E+03  0.00000000000E+00 0. -1.
      99926    2    1    2    0    0  0.00000000000E+00  0.00000000000E+00 -0.17025582608E+03  0.47296517769E+03  0.44125844240E+03 0.  0.
         25    1    3    3    0    0  0.75784310018E+01  0.12549011220E+02 -0.63470269318E+01  0.12610592036E+03  0.12509000000E+03 0.  0.
         25    1    3    3    0    0  0.75215345145E+02  0.30395480635E+02 -0.90599282710E+02  0.17446194862E+03  0.12509000000E+03 0.  0.
         25    1    3    3    0    0 -0.82793776147E+02 -0.42944491854E+02 -0.73309516437E+02  0.17239730871E+03  0.12509000000E+03 0.  0.
<mgrwt>
<rscale>  2 0.44125844E+03</rscale>
<asrwt>0</asrwt>
<pdfrwt beam="1">  1       21 0.22258041E-01 0.44125844E+03</pdfrwt>
<pdfrwt beam="2">  1       21 0.47295661E-01 0.44125844E+03</pdfrwt>
<totfact> 0.75076595E+04</totfact>
</mgrwt>
</event>
<event>
 7    0  0.4752811E-002  0.4699880E+03  0.7546771E-02  0.1021924E+00
         21   -1    0    0  502  501  0.00000000000E+00  0.00000000000E+00  0.16545177329E+03  0.16545177329E+03  0.00000000000E+00 0. -1.
         21   -1    0    0  501  502 -0.00000000000E+00 -0.00000000000E+00 -0.33376606970E+03  0.33376606970E+03  0.00000000000E+00 0. -1.
      99926    2    1    2    0    0 -0.22204460493E-15  0.00000000000E+00 -0.16831429640E+03  0.49921784299E+03  0.46998803430E+03 0.  0.
      99925    2    3    3    0    0  0.15084526908E+01  0.10894045049E+03 -0.35855705905E+02  0.28693717152E+03  0.26301523069E+03 0.  0.
         25    1    4    4    0    0  0.31868586860E+02  0.48625181526E+02 -0.43339086019E+02  0.14458837984E+03  0.12509000000E+03 0.  0.
         25    1    3    3    0    0 -0.15084526908E+01 -0.10894045049E+03 -0.13245859050E+03  0.21228067147E+03  0.12509000000E+03 0.  0.
         25    1    4    4    0    0 -0.30360134169E+02  0.60315268962E+02  0.74833801137E+01  0.14234879169E+03  0.12509000000E+03 0.  0.
<mgrwt>
<rscale>  2 0.46998803E+03</rscale>
<asrwt>0</asrwt>
<pdfrwt beam="1">  1       21 0.24331144E-01 0.46998803E+03</pdfrwt>
<pdfrwt beam="2">  1       21 0.49083245E-01 0.46998803E+03</pdfrwt>
<totfact> 0.58098991E+04</totfact>
</mgrwt>
</event>
<event>
 6    0  0.4752811E-002  0.4500621E+03  0.7546771E-02  0.1027704E+00
         21   -1    0    0  502  501  0.00000000000E+00  0.00000000000E+00  0.33191075501E+02  0.33191075501E+02  0.00000000000E+00 0. -1.
         21   -1    0    0  501  502 -0.00000000000E+00 -0.00000000000E+00 -0.15256805636E+04  0.15256805636E+04  0.00000000000E+00 0. -1.
      99926    2    1    2    0    0  0.00000000000E+00  0.00000000000E+00 -0.14924894881E+04  0.15588716391E+04  0.45006212361E+03 0.  0.
         25    1    3    3    0    0  0.58989809637E+02 -0.52817427241E+02 -0.34965138191E+03  0.37970129738E+03  0.12509000000E+03 0.  0.
         25    1    3    3    0    0  0.15932084718E+02 -0.29592695111E+00 -0.36976901385E+03  0.39067960095E+03  0.12509000000E+03 0.  0.
         25    1    3    3    0    0 -0.74921894355E+02  0.53113354192E+02 -0.77306909235E+03  0.78849074077E+03  0.12509000000E+03 0.  0.
<mgrwt>
<rscale>  2 0.45006212E+03</rscale>
<asrwt>0</asrwt>
<pdfrwt beam="1">  1       21 0.48810397E-02 0.45006212E+03</pdfrwt>
<pdfrwt beam="2">  1       21 0.22436483E+00 0.45006212E+03</pdfrwt>
<totfact> 0.23251446E+04</totfact>
</mgrwt>
</event>
<event>
 7    0  0.4752811E-002  0.4280839E+03  0.7546771E-02  0.1034467E+00
         21   -1    0    0  502  501  0.00000000000E+00  0.00000000000E+00  0.10176385292E+03  0.10176385292E+03  0.00000000000E+00 0. -1.
         21   -1    0    0  501  502 -0.00000000000E+00 -0.00000000000E+00 -0.45019880997E+03  0.45019880997E+03  0.00000000000E+00 0. -1.
      99926    2    1    2    0    0  0.00000000000E+00 -0.35527136788E-14 -0.34843495705E+03  0.55196266288E+03  0.42808394261E+03 0.  0.
      99925    2    3    3    0    0  0.72344295606E+02  0.21551763103E+02 -0.17292831799E+03  0.32360271882E+03  0.26289986851E+03 0.  0.
         25    1    4    4    0    0  0.67587996047E+02  0.34811341567E+02 -0.10838669770E+03  0.18214047065E+03  0.12509000000E+03 0.  0.
         25    1    3    3    0    0 -0.72344295606E+02 -0.21551763103E+02 -0.17550663906E+03  0.22835994406E+03  0.12509000000E+03 0.  0.
         25    1    4    4    0    0  0.47562995582E+01 -0.13259578465E+02 -0.64541620294E+02  0.14146224817E+03  0.12509000000E+03 0.  0.
<mgrwt>
<rscale>  2 0.42808394E+03</rscale>
<asrwt>0</asrwt>
<pdfrwt beam="1">  1       21 0.14965273E-01 0.42808394E+03</pdfrwt>
<pdfrwt beam="2">  1       21 0.66205706E-01 0.42808394E+03</pdfrwt>
<totfact> 0.76837796E+04</totfact>
</mgrwt>
</event>
<event>
 7    0  0.4752811E-002  0.4637332E+03  0.7546771E-02  0.1023704E+00
         21   -1    0    0  502  501  0.00000000000E+00  0.00000000000E+00  0.10843075408E+03  0.10843075408E+03  0.00000000000E+00 0. -1.
         21   -1    0    0  501  502 -0.00000000000E+00 -0.00000000000E+00 -0.49581983045E+03  0.49581983045E+03  0.00000000000E+00 0. -1.
      99926    2    1    2    0    0  0.35527136788E-14 -0.14210854715E-13 -0.38738907637E+03  0.60425058452E+03  0.46373319097E+03 0.  0.
      99925    2    3    3    0    0  0.27712554181E+02 -0.95506709886E+02 -0.15151548091E+03  0.31934116308E+03  0.26293025727E+03 0.  0.
         25    1    4    4    0    0  0.71375764978E+01 -0.85580464322E+02 -0.10226860697E+03  0.18297906149E+03  0.12509000000E+03 0.  0.
         25    1    3    3    0    0 -0.27712554181E+02  0.95506709886E+02 -0.23587359546E+03  0.28490942144E+03  0.12509000000E+03 0.  0.
         25    1    4    4    0    0  0.20574977683E+02 -0.99262455637E+01 -0.49246873939E+02  0.13636210159E+03  0.12509000000E+03 0.  0.
<mgrwt>
<rscale>  2 0.46373319E+03</rscale>
<asrwt>0</asrwt>
<pdfrwt beam="1">  1       21 0.15945700E-01 0.46373319E+03</pdfrwt>
<pdfrwt beam="2">  1       21 0.72914678E-01 0.46373319E+03</pdfrwt>
<totfact> 0.54554672E+04</totfact>
</mgrwt>
</event>
<event>
 7    0  0.4752811E-002  0.5160846E+03  0.7546771E-02  0.1009664E+00
         21   -1    0    0  502  501  0.00000000000E+00  0.00000000000E+00  0.20183894763E+03  0.20183894763E+03  0.00000000000E+00 0. -1.
         21   -1    0    0  501  502 -0.00000000000E+00 -0.00000000000E+00 -0.32989589568E+03  0.32989589568E+03  0.00000000000E+00 0. -1.
      99926    2    1    2    0    0 -0.14210854715E-13  0.00000000000E+00 -0.12805694806E+03  0.53173484331E+03  0.51608464581E+03 0.  0.
      99925    2    3    3    0    0  0.77594628137E+02  0.14215135367E+02 -0.22491270970E+03  0.35495378366E+03  0.26302749886E+03 0.  0.
         25    1    4    4    0    0  0.74470505139E+02 -0.69705511972E+01 -0.14115928932E+03  0.20289873775E+03  0.12509000000E+03 0.  0.
         25    1    3    3    0    0 -0.77594628137E+02 -0.14215135367E+02  0.96855761641E+02  0.17678105965E+03  0.12509000000E+03 0.  0.
         25    1    4    4    0    0  0.31241229983E+01  0.21185686564E+02 -0.83753420380E+02  0.15205504590E+03  0.12509000000E+03 0.  0.
<mgrwt>
<rscale>  2 0.51608465E+03</rscale>
<asrwt>0</asrwt>
<pdfrwt beam="1">  1       21 0.29682198E-01 0.51608465E+03</pdfrwt>
<pdfrwt beam="2">  1       21 0.48514102E-01 0.51608465E+03</pdfrwt>
<totfact> 0.39925648E+04</totfact>
</mgrwt>
</event>
<event>
 7    0  0.4752811E-002  0.4549196E+03  0.7546771E-02  0.1026265E+00
         21   -1    0    0  502  501  0.00000000000E+00  0.00000000000E+00  0.74576415935E+02  0.74576415935E+02  0.00000000000E+00 0.  1.
         21   -1    0    0  501  502 -0.00000000000E+00 -0.00000000000E+00 -0.69375757418E+03  0.69375757418E+03  0.00000000000E+00 0.  1.
      99926    2    1    2    0    0  0.00000000000E+00  0.00000000000E+00 -0.61918115824E+03  0.76833399011E+03  0.45491956832E+03 0.  0.
      99925    2    3    3    0    0 -0.49746360581E+02 -0.71672886760E+02 -0.51100483843E+03  0.58135450633E+03  0.26312623214E+03 0.  0.
         25    1    3    3    0    0  0.49746360581E+02  0.71672886760E+02 -0.10817631981E+03  0.18697948378E+03  0.12509000000E+03 0.  0.
         25    1    4    4    0    0  0.11311009422E+02 -0.51124063459E+02 -0.22739154361E+03  0.26475655045E+03  0.12509000000E+03 0.  0.
         25    1    4    4    0    0 -0.61057370002E+02 -0.20548823301E+02 -0.28361329482E+03  0.31659795588E+03  0.12509000000E+03 0.  0.
<mgrwt>
<rscale>  2 0.45491957E+03</rscale>
<asrwt>0</asrwt>
<pdfrwt beam="1">  1       21 0.10967120E-01 0.45491957E+03</pdfrwt>
<pdfrwt beam="2">  1       21 0.10202318E+00 0.45491957E+03</pdfrwt>
<totfact> 0.49365663E+04</totfact>
</mgrwt>
</event>
<event>
 7    0  0.4752811E-002  0.4494778E+03  0.7546771E-02  0.1027878E+00
         21   -1    0    0  502  501  0.00000000000E+00  0.00000000000E+00  0.59232486204E+03  0.59232486204E+03  0.00000000000E+00 0. -1.
         21   -1    0    0  501  502 -0.00000000000E+00 -0.00000000000E+00 -0.85270064093E+02  0.85270064093E+02  0.00000000000E+00 0. -1.
      99926    2    1    2    0    0  0.00000000000E+00  0.00000000000E+00  0.50705479795E+03  0.67759492614E+03  0.44947782571E+03 0.  0.
      99925    2    3    3    0    0  0.44919757905E+02 -0.91951824505E+02  0.26919701311E+03  0.39002448853E+03  0.26301929036E+03 0.  0.
         25    1    4    4    0    0  0.92433712977E+01 -0.63380968396E+02  0.18552068724E+03  0.23274024268E+03  0.12509000000E+03 0.  0.
         25    1    4    4    0    0  0.35676386608E+02 -0.28570856109E+02  0.83676325872E+02  0.15728424585E+03  0.12509000000E+03 0.  0.
         25    1    3    3    0    0 -0.44919757905E+02  0.91951824505E+02  0.23785778484E+03  0.28757043761E+03  0.12509000000E+03 0.  0.
<mgrwt>
<rscale>  2 0.44947783E+03</rscale>
<asrwt>0</asrwt>
<pdfrwt beam="1">  1       21 0.87106595E-01 0.44947783E+03</pdfrwt>
<pdfrwt beam="2">  1       21 0.12539716E-01 0.44947783E+03</pdfrwt>
<totfact> 0.56556422E+04</totfact>
</mgrwt>
</event>
<event>
 7    0  0.4752811E-002  0.4579257E+03  0.7546771E-02  0.1025385E+00
         21   -1    0    0  502  501  0.00000000000E+00  0.00000000000E+00  0.33120489529E+02  0.33120489529E+02  0.00000000000E+00 0. -1.
         21   -1    0    0  501  502 -0.00000000000E+00 -0.00000000000E+00 -0.15828262917E+04  0.15828262917E+04  0.00000000000E+00 0. -1.
      99926    2    1    2    0    0  0.00000000000E+00  0.00000000000E+00 -0.15497058022E+04  0.16159467812E+04  0.45792567790E+03 0.  0.
      99925    2    3    3    0    0  0.46611295552E+02  0.97617167200E+02 -0.82585980908E+03  0.87344947213E+03  0.26299777928E+03 0.  0.
         25    1    3    3    0    0 -0.46611295552E+02 -0.97617167200E+02 -0.72384599310E+03  0.74249730910E+03  0.12509000000E+03 0.  0.
         25    1    4    4    0    0 -0.98175115865E+01  0.64533643403E+02 -0.46604117008E+03  0.48693208456E+03  0.12509000000E+03 0.  0.
         25    1    4    4    0    0  0.56428807139E+02  0.33083523797E+02 -0.35981863899E+03  0.38651738756E+03  0.12509000000E+03 0.  0.
<mgrwt>
<rscale>  2 0.45792568E+03</rscale>
<asrwt>0</asrwt>
<pdfrwt beam="1">  1       21 0.48706608E-02 0.45792568E+03</pdfrwt>
<pdfrwt beam="2">  1       21 0.23276854E+00 0.45792568E+03</pdfrwt>
<totfact> 0.20599862E+04</totfact>
</mgrwt>
</event>
<event>
 7    0  0.4752811E-002  0.4535527E+03  0.7546771E-02  0.1026668E+00
         21   -1    0    0  502  501  0.00000000000E+00  0.00000000000E+00  0.10157976774E+04  0.10157976774E+04  0.00000000000E+00 0. -1.
         21   -1    0    0  501  502 -0.00000000000E+00 -0.00000000000E+00 -0.50627723636E+02  0.50627723636E+02  0.00000000000E+00 0. -1.
      99926    2    1    2    0    0  0.00000000000E+00  0.14210854715E-13  0.96516995372E+03  0.10664254010E+04  0.45355274921E+03 0.  0.
      99925    2    3    3    0    0 -0.39129970387E+02 -0.10436241325E+03  0.58718608542E+03  0.65297409712E+03  0.26299240428E+03 0.  0.
         25    1    4    4    0    0 -0.53913975645E+02 -0.71946936450E+02  0.28455596564E+03  0.32357794133E+03  0.12509000000E+03 0.  0.
         25    1    3    3    0    0  0.39129970387E+02  0.10436241325E+03  0.37798386829E+03  0.41345130387E+03  0.12509000000E+03 0.  0.
         25    1    4    4    0    0  0.14784005258E+02 -0.32415476799E+02  0.30263011979E+03  0.32939615579E+03  0.12509000000E+03 0.  0.
<mgrwt>
<rscale>  2 0.45355275E+03</rscale>
<asrwt>0</asrwt>
<pdfrwt beam="1">  1       21 0.14938200E+00 0.45355275E+03</pdfrwt>
<pdfrwt beam="2">  1       21 0.74452541E-02 0.45355275E+03</pdfrwt>
<totfact> 0.37097632E+04</totfact>
</mgrwt>
</event>
<event>
 7    0  0.4752811E-002  0.4532520E+03  0.7546771E-02  0.1026757E+00
         21   -1    0    0  502  501  0.00000000000E+00  0.00000000000E+00  0.88331714056E+02  0.88331714056E+02  0.00000000000E+00 0.  1.
         21   -1    0    0  501  502 -0.00000000000E+00 -0.00000000000E+00 -0.58143712177E+03  0.58143712177E+03  0.00000000000E+00 0.  1.
      99926    2    1    2    0    0  0.00000000000E+00  0.00000000000E+00 -0.49310540771E+03  0.66976883582E+03  0.45325197222E+03 0.  0.
      99925    2    3    3    0    0 -0.68388485762E+01  0.36621810665E+02 -0.15513778815E+03  0.30747400169E+03  0.26283949767E+03 0.  0.
         25    1    4    4    0    0 -0.83703348110E-01 -0.16131443341E+02 -0.50181826350E+02  0.13574223464E+03  0.12509000000E+03 0.  0.
         25    1    3    3    0    0  0.68388485762E+01 -0.36621810665E+02 -0.33796761957E+03  0.36229483413E+03  0.12509000000E+03 0.  0.
         25    1    4    4    0    0 -0.67551452281E+01  0.52753254006E+02 -0.10495596180E+03  0.17173176704E+03  0.12509000000E+03 0.  0.
<mgrwt>
<rscale>  2 0.45325197E+03</rscale>
<asrwt>0</asrwt>
<pdfrwt beam="1">  1       21 0.12989958E-01 0.45325197E+03</pdfrwt>
<pdfrwt beam="2">  1       21 0.85505460E-01 0.45325197E+03</pdfrwt>
<totfact> 0.55333853E+04</totfact>
</mgrwt>
</event>
<event>
 7    0  0.4752811E-002  0.4643431E+03  0.7546771E-02  0.1023529E+00
         21   -1    0    0  502  501  0.00000000000E+00  0.00000000000E+00  0.37655235358E+03  0.37655235358E+03  0.00000000000E+00 0. -1.
         21   -1    0    0  501  502 -0.00000000000E+00 -0.00000000000E+00 -0.14315039890E+03  0.14315039890E+03  0.00000000000E+00 0. -1.
      99926    2    1    2    0    0  0.00000000000E+00  0.71054273576E-14  0.23340195468E+03  0.51970275247E+03  0.46434306119E+03 0.  0.
      99925    2    3    3    0    0  0.94416888068E+02  0.60919955689E+02  0.19802233216E+03  0.34787430447E+03  0.26301691566E+03 0.  0.
         25    1    3    3    0    0 -0.94416888068E+02 -0.60919955689E+02  0.35379622517E+02  0.17182844800E+03  0.12509000000E+03 0.  0.
         25    1    4    4    0    0  0.34859669090E+02 -0.78003021513E+01  0.10686911593E+03  0.16835841910E+03  0.12509000000E+03 0.  0.
         25    1    4    4    0    0  0.59557218977E+02  0.68720257841E+02  0.91153216239E+02  0.17951588537E+03  0.12509000000E+03 0.  0.
<mgrwt>
<rscale>  2 0.46434306E+03</rscale>
<asrwt>0</asrwt>
<pdfrwt beam="1">  1       21 0.55375346E-01 0.46434306E+03</pdfrwt>
<pdfrwt beam="2">  1       21 0.21051529E-01 0.46434306E+03</pdfrwt>
<totfact> 0.59381374E+04</totfact>
</mgrwt>
</event>
<event>
 7    0  0.4752811E-002  0.4548603E+03  0.7546771E-02  0.1026282E+00
         21   -1    0    0  502  501  0.00000000000E+00  0.00000000000E+00  0.61603229687E+02  0.61603229687E+02  0.00000000000E+00 0. -1.
         21   -1    0    0  501  502 -0.00000000000E+00 -0.00000000000E+00 -0.83963892824E+03  0.83963892824E+03  0.00000000000E+00 0. -1.
      99926    2    1    2    0    0  0.00000000000E+00  0.00000000000E+00 -0.77803569856E+03  0.90124215793E+03  0.45486028514E+03 0.  0.
      99925    2    3    3    0    0 -0.81045568674E+02 -0.61060739281E+02 -0.39100565942E+03  0.48203271460E+03  0.26300820170E+03 0.  0.
         25    1    3    3    0    0  0.81045568674E+02  0.61060739281E+02 -0.38703003913E+03  0.41920944333E+03  0.12509000000E+03 0.  0.
         25    1    4    4    0    0 -0.10848394876E+02 -0.31685145238E+02 -0.13468076043E+03  0.18683696484E+03  0.12509000000E+03 0.  0.
         25    1    4    4    0    0 -0.70197173798E+02 -0.29375594042E+02 -0.25632489899E+03  0.29519574976E+03  0.12509000000E+03 0.  0.
<mgrwt>
<rscale>  2 0.45486029E+03</rscale>
<asrwt>0</asrwt>
<pdfrwt beam="1">  1       21 0.90592987E-02 0.45486029E+03</pdfrwt>
<pdfrwt beam="2">  1       21 0.12347631E+00 0.45486029E+03</pdfrwt>
<totfact> 0.43227294E+04</totfact>
</mgrwt>
</event>
<event>
 7    0  0.4752811E-002  0.4518335E+03  0.7546771E-02  0.1027177E+00
         21   -1    0    0  502  501  0.00000000000E+00  0.00000000000E+00  0.40093109049E+03  0.40093109049E+03  0.00000000000E+00 0. -1.
         21   -1    0    0  501  502 -0.00000000000E+00 -0.00000000000E+00 -0.12729960833E+03  0.12729960833E+03  0.00000000000E+00 0. -1.
      99926    2    1    2    0    0  0.71054273576E-14  0.14210854715E-13  0.27363148216E+03  0.52823069883E+03  0.45183346839E+03 0.  0.
      99925    2    3    3    0    0  0.46718029224E+02  0.99492110291E+02  0.17060009762E+03  0.33241387482E+03  0.26327426118E+03 0.  0.
         25    1    4    4    0    0  0.19927970160E+02  0.32623655577E+02  0.12527737139E+03  0.18111696436E+03  0.12509000000E+03 0.  0.
         25    1    4    4    0    0  0.26790059064E+02  0.66868454714E+02  0.45322726229E+02  0.15129691046E+03  0.12509000000E+03 0.  0.
         25    1    3    3    0    0 -0.46718029224E+02 -0.99492110291E+02  0.10303138454E+03  0.19581682401E+03  0.12509000000E+03 0.  0.
<mgrwt>
<rscale>  2 0.45183347E+03</rscale>
<asrwt>0</asrwt>
<pdfrwt beam="1">  1       21 0.58960454E-01 0.45183347E+03</pdfrwt>
<pdfrwt beam="2">  1       21 0.18720531E-01 0.45183347E+03</pdfrwt>
<totfact> 0.64941002E+04</totfact>
</mgrwt>
</event>
<event>
 7    0  0.4752811E-002  0.4469793E+03  0.7546771E-02  0.1028627E+00
         21   -1    0    0  502  501  0.00000000000E+00  0.00000000000E+00  0.54473038622E+03  0.54473038622E+03  0.00000000000E+00 0. -1.
         21   -1    0    0  501  502 -0.00000000000E+00 -0.00000000000E+00 -0.91692379316E+02  0.91692379316E+02  0.00000000000E+00 0. -1.
      99926    2    1    2    0    0  0.00000000000E+00  0.88817841970E-15  0.45303800691E+03  0.63642276554E+03  0.44697930690E+03 0.  0.
      99925    2    3    3    0    0 -0.94858377746E+02  0.64290075680E+01  0.35224229267E+03  0.44974998210E+03  0.26298473281E+03 0.  0.
         25    1    4    4    0    0 -0.80418004401E+01 -0.12859632543E+02  0.16628532344E+03  0.20863450720E+03  0.12509000000E+03 0.  0.
         25    1    4    4    0    0 -0.86816577306E+02  0.19288640111E+02  0.18595696923E+03  0.24111547490E+03  0.12509000000E+03 0.  0.
         25    1    3    3    0    0  0.94858377746E+02 -0.64290075680E+01  0.10079571424E+03  0.18667278344E+03  0.12509000000E+03 0.  0.
<mgrwt>
<rscale>  2 0.44697931E+03</rscale>
<asrwt>0</asrwt>
<pdfrwt beam="1">  1       21 0.80107409E-01 0.44697931E+03</pdfrwt>
<pdfrwt beam="2">  1       21 0.13484174E-01 0.44697931E+03</pdfrwt>
<totfact> 0.60212351E+04</totfact>
</mgrwt>
</event>
<event>
 7    0  0.4752811E-002  0.4243605E+03  0.7546771E-02  0.1035656E+00
         21   -1    0    0  502  501  0.00000000000E+00  0.00000000000E+00  0.59188169904E+03  0.59188169904E+03  0.00000000000E+00 0.  1.
         21   -1    0    0  501  502 -0.00000000000E+00 -0.00000000000E+00 -0.76063264976E+02  0.76063264976E+02  0.00000000000E+00 0.  1.
      99926    2    1    2    0    0  0.00000000000E+00  0.00000000000E+00  0.51581843406E+03  0.66794496401E+03  0.42436048123E+03 0.  0.
      99925    2    3    3    0    0 -0.39215747731E+02 -0.20895519190E+02  0.44153119688E+03  0.51582461922E+03  0.26296528741E+03 0.  0.
         25    1    4    4    0    0 -0.52787125642E+02  0.10965163757E+01  0.18762040170E+03  0.23159578194E+03  0.12509000000E+03 0.  0.
         25    1    4    4    0    0  0.13571377911E+02 -0.21992035566E+02  0.25391079519E+03  0.28422883728E+03  0.12509000000E+03 0.  0.
         25    1    3    3    0    0  0.39215747731E+02  0.20895519190E+02  0.74287237178E+02  0.15212034479E+03  0.12509000000E+03 0.  0.
<mgrwt>
<rscale>  2 0.42436048E+03</rscale>
<asrwt>0</asrwt>
<pdfrwt beam="1">  1       21 0.87041424E-01 0.42436048E+03</pdfrwt>
<pdfrwt beam="2">  1       21 0.11185775E-01 0.42436048E+03</pdfrwt>
<totfact> 0.70133310E+04</totfact>
</mgrwt>
</event>
<event>
 7    0  0.4752811E-002  0.4547839E+03  0.7546771E-02  0.1026305E+00
         21   -1    0    0  502  501  0.00000000000E+00  0.00000000000E+00  0.30272570878E+03  0.30272570878E+03  0.00000000000E+00 0. -1.
         21   -1    0    0  501  502 -0.00000000000E+00 -0.00000000000E+00 -0.17080509589E+03  0.17080509589E+03  0.00000000000E+00 0. -1.
      99926    2    1    2    0    0  0.00000000000E+00  0.00000000000E+00  0.13192061289E+03  0.47353080467E+03  0.45478387710E+03 0.  0.
      99925    2    3    3    0    0 -0.78211210358E+02  0.76794864058E+02  0.11126318877E+03  0.30593402116E+03  0.26306212870E+03 0.  0.
         25    1    4    4    0    0  0.19826806907E+01  0.41767615650E+02  0.43212693284E+02  0.13879232580E+03  0.12509000000E+03 0.  0.
         25    1    4    4    0    0 -0.80193891049E+02  0.35027248408E+02  0.68050495489E+02  0.16714169536E+03  0.12509000000E+03 0.  0.
         25    1    3    3    0    0  0.78211210358E+02 -0.76794864058E+02  0.20657424117E+02  0.16759678351E+03  0.12509000000E+03 0.  0.
<mgrwt>
<rscale>  2 0.45478388E+03</rscale>
<asrwt>0</asrwt>
<pdfrwt beam="1">  1       21 0.44518487E-01 0.45478388E+03</pdfrwt>
<pdfrwt beam="2">  1       21 0.25118396E-01 0.45478388E+03</pdfrwt>
<totfact> 0.67289462E+04</totfact>
</mgrwt>
</event>
<event>
 7    0  0.4752811E-002  0.4536543E+03  0.7546771E-02  0.1026638E+00
         21   -1    0    0  502  501  0.00000000000E+00  0.00000000000E+00  0.26196979871E+03  0.26196979871E+03  0.00000000000E+00 0.  1.
         21   -1    0    0  501  502 -0.00000000000E+00 -0.00000000000E+00 -0.19639878496E+03  0.19639878496E+03  0.00000000000E+00 0.  1.
      99926    2    1    2    0    0 -0.35527136788E-14  0.00000000000E+00  0.65571013751E+02  0.45836858367E+03  0.45365427437E+03 0.  0.
      99925    2    3    3    0    0 -0.27653814925E+02 -0.18076327454E+02  0.14939988839E+03  0.30420543821E+03  0.26292419989E+03 0.  0.
         25    1    4    4    0    0 -0.43449178831E+02  0.15572360737E+02  0.89724496809E+02  0.16071192547E+03  0.12509000000E+03 0.  0.
         25    1    4    4    0    0  0.15795363906E+02 -0.33648688191E+02  0.59675391585E+02  0.14349351274E+03  0.12509000000E+03 0.  0.
         25    1    3    3    0    0  0.27653814925E+02  0.18076327454E+02 -0.83828874643E+02  0.15416314546E+03  0.12509000000E+03 0.  0.
<mgrwt>
<rscale>  2 0.45365427E+03</rscale>
<asrwt>0</asrwt>
<pdfrwt beam="1">  1       21 0.38524970E-01 0.45365427E+03</pdfrwt>
<pdfrwt beam="2">  1       21 0.28882174E-01 0.45365427E+03</pdfrwt>
<totfact> 0.69037557E+04</totfact>
</mgrwt>
</event>
<event>
 7    0  0.4752811E-002  0.4384736E+03  0.7546771E-02  0.1031216E+00
         21   -1    0    0  502  501  0.00000000000E+00  0.00000000000E+00  0.53672769872E+03  0.53672769872E+03  0.00000000000E+00 0. -1.
         21   -1    0    0  501  502 -0.00000000000E+00 -0.00000000000E+00 -0.89551525955E+02  0.89551525955E+02  0.00000000000E+00 0. -1.
      99926    2    1    2    0    0  0.00000000000E+00  0.26645352591E-14  0.44717617276E+03  0.62627922467E+03  0.43847364547E+03 0.  0.
      99925    2    3    3    0    0  0.81200278171E+02  0.43650256172E+01  0.36147117268E+03  0.45421704474E+03  0.26275307121E+03 0.  0.
         25    1    4    4    0    0  0.29599186593E+02  0.40292912171E+02  0.16608045713E+03  0.21384540434E+03  0.12509000000E+03 0.  0.
         25    1    3    3    0    0 -0.81200278171E+02 -0.43650256172E+01  0.85705000084E+02  0.17206217993E+03  0.12509000000E+03 0.  0.
         25    1    4    4    0    0  0.51601091578E+02 -0.35927886554E+02  0.19539071555E+03  0.24037164040E+03  0.12509000000E+03 0.  0.
<mgrwt>
<rscale>  2 0.43847365E+03</rscale>
<asrwt>0</asrwt>
<pdfrwt beam="1">  1       21 0.78930543E-01 0.43847365E+03</pdfrwt>
<pdfrwt beam="2">  1       21 0.13169342E-01 0.43847365E+03</pdfrwt>
<totfact> 0.65186151E+04</totfact>
</mgrwt>
</event>
<event>
 7    0  0.4752811E-002  0.4571335E+03  0.7546771E-02  0.1025616E+00
         21   -1    0    0  502  501  0.00000000000E+00  0.00000000000E+00  0.36900118288E+02  0.36900118288E+02  0.00000000000E+00 0.  1.
         21   -1    0    0  501  502 -0.00000000000E+00 -0.00000000000E+00 -0.14157884805E+04  0.14157884805E+04  0.00000000000E+00 0.  1.
      99926    2    1    2    0    0  0.00000000000E+00  0.00000000000E+00 -0.13788883622E+04  0.14526885988E+04  0.45713351398E+03 0.  0.
      99925    2    3    3    0    0 -0.57306639247E+02  0.85698298953E+02 -0.10291749336E+04  0.10672340106E+04  0.26298125401E+03 0.  0.
         25    1    3    3    0    0  0.57306639247E+02 -0.85698298953E+02 -0.34971342855E+03  0.38545458818E+03  0.12509000000E+03 0.  0.
         25    1    4    4    0    0 -0.52544734895E+02  0.15462993767E+02 -0.43298034919E+03  0.45400390332E+03  0.12509000000E+03 0.  0.
         25    1    4    4    0    0 -0.47619043516E+01  0.70235305186E+02 -0.59619458445E+03  0.61323010726E+03  0.12509000000E+03 0.  0.
<mgrwt>
<rscale>  2 0.45713351E+03</rscale>
<asrwt>0</asrwt>
<pdfrwt beam="1">  1       21 0.54264881E-02 0.45713351E+03</pdfrwt>
<pdfrwt beam="2">  1       21 0.20820418E+00 0.45713351E+03</pdfrwt>
<totfact> 0.24551603E+04</totfact>
</mgrwt>
</event>
<event>
 7    0  0.4752811E-002  0.4461197E+03  0.7546771E-02  0.1028886E+00
         21   -1    0    0  502  501  0.00000000000E+00  0.00000000000E+00  0.15097523447E+03  0.15097523447E+03  0.00000000000E+00 0.  1.
         21   -1    0    0  501  502 -0.00000000000E+00 -0.00000000000E+00 -0.32956192137E+03  0.32956192137E+03  0.00000000000E+00 0.  1.
      99926    2    1    2    0    0  0.00000000000E+00  0.00000000000E+00 -0.17858668690E+03  0.48053715584E+03  0.44611966265E+03 0.  0.
      99925    2    3    3    0    0 -0.49341325233E+02 -0.88157099316E+02 -0.84169109067E+02  0.29407421679E+03  0.26303795453E+03 0.  0.
         25    1    4    4    0    0 -0.17488119323E+02 -0.70656858406E+01 -0.58939571642E+02  0.13956052250E+03  0.12509000000E+03 0.  0.
         25    1    3    3    0    0  0.49341325233E+02  0.88157099316E+02 -0.94417577832E+02  0.18646293905E+03  0.12509000000E+03 0.  0.
         25    1    4    4    0    0 -0.31853205910E+02 -0.81091413476E+02 -0.25229537425E+02  0.15451369430E+03  0.12509000000E+03 0.  0.
<mgrwt>
<rscale>  2 0.44611966E+03</rscale>
<asrwt>0</asrwt>
<pdfrwt beam="1">  1       21 0.22202240E-01 0.44611966E+03</pdfrwt>
<pdfrwt beam="2">  1       21 0.48464988E-01 0.44611966E+03</pdfrwt>
<totfact> 0.71575230E+04</totfact>
</mgrwt>
</event>
<event>
 7    0  0.4752811E-002  0.4553240E+03  0.7546771E-02  0.1026146E+00
         21   -1    0    0  502  501  0.00000000000E+00  0.00000000000E+00  0.13652475929E+03  0.13652475929E+03  0.00000000000E+00 0.  1.
         21   -1    0    0  501  502 -0.00000000000E+00 -0.00000000000E+00 -0.37963803145E+03  0.37963803145E+03  0.00000000000E+00 0.  1.
      99926    2    1    2    0    0  0.00000000000E+00  0.00000000000E+00 -0.24311327216E+03  0.51616279075E+03  0.45532402029E+03 0.  0.
      99925    2    3    3    0    0 -0.78001319872E+02 -0.68888267508E+02 -0.10170560974E+03  0.30058581054E+03  0.26301710808E+03 0.  0.
         25    1    4    4    0    0 -0.71904039107E+02 -0.63104882195E+02 -0.55773410774E+02  0.16706465349E+03  0.12509000000E+03 0.  0.
         25    1    3    3    0    0  0.78001319872E+02  0.68888267508E+02 -0.14140766243E+03  0.21557698021E+03  0.12509000000E+03 0.  0.
         25    1    4    4    0    0 -0.60972807642E+01 -0.57833853129E+01 -0.45932198963E+02  0.13352115705E+03  0.12509000000E+03 0.  0.
<mgrwt>
<rscale>  2 0.45532402E+03</rscale>
<asrwt>0</asrwt>
<pdfrwt beam="1">  1       21 0.20077170E-01 0.45532402E+03</pdfrwt>
<pdfrwt beam="2">  1       21 0.55829122E-01 0.45532402E+03</pdfrwt>
<totfact> 0.63984792E+04</totfact>
</mgrwt>
</event>
<event>
 7    0  0.4752811E-002  0.4619328E+03  0.7546771E-02  0.1024222E+00
         21   -1    0    0  502  501  0.00000000000E+00  0.00000000000E+00  0.29963259627E+02  0.29963259627E+02  0.00000000000E+00 0.  1.
         21   -1    0    0  501  502 -0.00000000000E+00 -0.00000000000E+00 -0.17803629600E+04  0.17803629600E+04  0.00000000000E+00 0.  1.
      99926    2    1    2    0    0  0.00000000000E+00 -0.35527136788E-14 -0.17503997004E+04  0.18103262196E+04  0.46193279858E+03 0.  0.
      99925    2    3    3    0    0  0.88253499008E+02 -0.24139988731E+02 -0.13963586474E+04  0.14238498368E+04  0.26298187509E+03 0.  0.
         25    1    4    4    0    0  0.37031865458E+02  0.81055617988E+01 -0.50091993081E+03  0.51769232597E+03  0.12509000000E+03 0.  0.
         25    1    4    4    0    0  0.51221633550E+02 -0.32245550529E+02 -0.89543871658E+03  0.90615751088E+03  0.12509000000E+03 0.  0.
         25    1    3    3    0    0 -0.88253499008E+02  0.24139988731E+02 -0.35404105298E+03  0.38647638277E+03  0.12509000000E+03 0.  0.
<mgrwt>
<rscale>  2 0.46193280E+03</rscale>
<asrwt>0</asrwt>
<pdfrwt beam="1">  1       21 0.44063618E-02 0.46193280E+03</pdfrwt>
<pdfrwt beam="2">  1       21 0.26181808E+00 0.46193280E+03</pdfrwt>
<totfact> 0.16173704E+04</totfact>
</mgrwt>
</event>
<event>
 7    0  0.4752811E-002  0.4570657E+03  0.7546771E-02  0.1025636E+00
         21   -1    0    0  502  501  0.00000000000E+00  0.00000000000E+00  0.13371493359E+04  0.13371493359E+04  0.00000000000E+00 0. -1.
         21   -1    0    0  501  502 -0.00000000000E+00 -0.00000000000E+00 -0.39058656048E+02  0.39058656048E+02  0.00000000000E+00 0. -1.
      99926    2    1    2    0    0  0.00000000000E+00  0.00000000000E+00  0.12980906798E+04  0.13762079919E+04  0.45706566703E+03 0.  0.
      99925    2    3    3    0    0  0.38749542621E+02  0.10653488155E+03  0.87633573540E+03  0.92192179437E+03  0.26291494014E+03 0.  0.
         25    1    4    4    0    0  0.35983436603E+02  0.40251692653E+02  0.54153663546E+03  0.55841243012E+03  0.12509000000E+03 0.  0.
         25    1    3    3    0    0 -0.38749542621E+02 -0.10653488155E+03  0.42175494442E+03  0.45428619755E+03  0.12509000000E+03 0.  0.
         25    1    4    4    0    0  0.27661060179E+01  0.66283188895E+02  0.33479909994E+03  0.36350936425E+03  0.12509000000E+03 0.  0.
<mgrwt>
<rscale>  2 0.45706567E+03</rscale>
<asrwt>0</asrwt>
<pdfrwt beam="1">  1       21 0.19663958E+00 0.45706567E+03</pdfrwt>
<pdfrwt beam="2">  1       21 0.57439209E-02 0.45706567E+03</pdfrwt>
<totfact> 0.26544264E+04</totfact>
</mgrwt>
</event>
<event>
 7    0  0.4752811E-002  0.4496681E+03  0.7546771E-02  0.1027821E+00
         21   -1    0    0  502  501  0.00000000000E+00  0.00000000000E+00  0.30940444263E+02  0.30940444263E+02  0.00000000000E+00 0.  1.
         21   -1    0    0  501  502 -0.00000000000E+00 -0.00000000000E+00 -0.16337949299E+04  0.16337949299E+04  0.00000000000E+00 0.  1.
      99926    2    1    2    0    0 -0.71054273576E-14  0.00000000000E+00 -0.16028544857E+04  0.16647353742E+04  0.44966805964E+03 0.  0.
      99925    2    3    3    0    0 -0.40029723474E+02 -0.27676719472E+02 -0.13705514321E+04  0.13964433759E+04  0.26320048335E+03 0.  0.
         25    1    4    4    0    0 -0.47276833668E+02  0.11223782564E+02 -0.60221829705E+03  0.61698902559E+03  0.12509000000E+03 0.  0.
         25    1    3    3    0    0  0.40029723474E+02  0.27676719472E+02 -0.23230305354E+03  0.26829199829E+03  0.12509000000E+03 0.  0.
         25    1    4    4    0    0  0.72471101933E+01 -0.38900502036E+02 -0.76833313506E+03  0.77945435030E+03  0.12509000000E+03 0.  0.
<mgrwt>
<rscale>  2 0.44966806E+03</rscale>
<asrwt>0</asrwt>
<pdfrwt beam="1">  1       21 0.45500651E-02 0.44966806E+03</pdfrwt>
<pdfrwt beam="2">  1       21 0.24026397E+00 0.44966806E+03</pdfrwt>
<totfact> 0.20855844E+04</totfact>
</mgrwt>
</event>
<event>
 7    0  0.4752811E-002  0.4816798E+03  0.7546771E-02  0.1018675E+00
         21   -1    0    0  502  501  0.00000000000E+00  0.00000000000E+00  0.12339129071E+03  0.12339129071E+03  0.00000000000E+00 0.  1.
         21   -1    0    0  501  502 -0.00000000000E+00 -0.00000000000E+00 -0.47008072488E+03  0.47008072488E+03  0.00000000000E+00 0.  1.
      99926    2    1    2    0    0  0.14210854715E-13  0.14210854715E-13 -0.34668943417E+03  0.59347201559E+03  0.48167984131E+03 0.  0.
      99925    2    3    3    0    0 -0.73494265099E+02 -0.11459902686E+03 -0.22857865913E+03  0.37408193550E+03  0.26297290183E+03 0.  0.
         25    1    4    4    0    0 -0.54645729943E+02 -0.91648655787E+02 -0.15494019087E+03  0.22591946077E+03  0.12509000000E+03 0.  0.
         25    1    4    4    0    0 -0.18848535156E+02 -0.22950371076E+02 -0.73638468262E+02  0.14816247473E+03  0.12509000000E+03 0.  0.
         25    1    3    3    0    0  0.73494265099E+02  0.11459902686E+03 -0.11811077504E+03  0.21939008009E+03  0.12509000000E+03 0.  0.
<mgrwt>
<rscale>  2 0.48167984E+03</rscale>
<asrwt>0</asrwt>
<pdfrwt beam="1">  1       21 0.18145778E-01 0.48167984E+03</pdfrwt>
<pdfrwt beam="2">  1       21 0.69129518E-01 0.48167984E+03</pdfrwt>
<totfact> 0.48106310E+04</totfact>
</mgrwt>
</event>
<event>
 7    0  0.4752811E-002  0.4583025E+03  0.7546771E-02  0.1025275E+00
         21   -1    0    0  502  501  0.00000000000E+00  0.00000000000E+00  0.43926322059E+03  0.43926322059E+03  0.00000000000E+00 0. -1.
         21   -1    0    0  501  502 -0.00000000000E+00 -0.00000000000E+00 -0.11954175822E+03  0.11954175822E+03  0.00000000000E+00 0. -1.
      99926    2    1    2    0    0 -0.35527136788E-14  0.35527136788E-14  0.31972146237E+03  0.55880497882E+03  0.45830251019E+03 0.  0.
      99925    2    3    3    0    0  0.30284888843E+02 -0.23755850276E+02  0.33425940210E+03  0.42712212228E+03  0.26310158596E+03 0.  0.
         25    1    4    4    0    0  0.34465173648E+02 -0.44548005906E+01  0.22544382962E+03  0.26015403487E+03  0.12509000000E+03 0.  0.
         25    1    3    3    0    0 -0.30284888843E+02  0.23755850276E+02 -0.14537939730E+02  0.13168285654E+03  0.12509000000E+03 0.  0.
         25    1    4    4    0    0 -0.41802848045E+01 -0.19301049685E+02  0.10881557248E+03  0.16696808741E+03  0.12509000000E+03 0.  0.
<mgrwt>
<rscale>  2 0.45830251E+03</rscale>
<asrwt>0</asrwt>
<pdfrwt beam="1">  1       21 0.64597532E-01 0.45830251E+03</pdfrwt>
<pdfrwt beam="2">  1       21 0.17579671E-01 0.45830251E+03</pdfrwt>
<totfact> 0.59713125E+04</totfact>
</mgrwt>
</event>
<event>
 7    0  0.4752811E-002  0.4543620E+03  0.7546771E-02  0.1026429E+00
         21   -1    0    0  502  501  0.00000000000E+00  0.00000000000E+00  0.70619311849E+02  0.70619311849E+02  0.00000000000E+00 0. -1.
         21   -1    0    0  501  502 -0.00000000000E+00 -0.00000000000E+00 -0.73083704393E+03  0.73083704393E+03  0.00000000000E+00 0. -1.
      99926    2    1    2    0    0  0.00000000000E+00 -0.71054273576E-14 -0.66021773208E+03  0.80145635578E+03  0.45436201037E+03 0.  0.
      99925    2    3    3    0    0 -0.29775979491E+02 -0.56837069689E+02 -0.57884433549E+03  0.63901806221E+03  0.26299478635E+03 0.  0.
         25    1    4    4    0    0  0.45266251936E+01 -0.21520427597E+02 -0.36462669710E+03  0.38611365616E+03  0.12509000000E+03 0.  0.
         25    1    4    4    0    0 -0.34302604685E+02 -0.35316642092E+02 -0.21421763840E+03  0.25290440604E+03  0.12509000000E+03 0.  0.
         25    1    3    3    0    0  0.29775979491E+02  0.56837069689E+02 -0.81373396584E+02  0.16243829357E+03  0.12509000000E+03 0.  0.
<mgrwt>
<rscale>  2 0.45436201E+03</rscale>
<asrwt>0</asrwt>
<pdfrwt beam="1">  1       21 0.10385192E-01 0.45436201E+03</pdfrwt>
<pdfrwt beam="2">  1       21 0.10747604E+00 0.45436201E+03</pdfrwt>
<totfact> 0.47933986E+04</totfact>
</mgrwt>
</event>
<event>
 7    0  0.4752811E-002  0.4465664E+03  0.7546771E-02  0.1028751E+00
         21   -1    0    0  502  501  0.00000000000E+00  0.00000000000E+00  0.58612415688E+03  0.58612415688E+03  0.00000000000E+00 0.  1.
         21   -1    0    0  501  502 -0.00000000000E+00 -0.00000000000E+00 -0.85059433780E+02  0.85059433780E+02  0.00000000000E+00 0.  1.
      99926    2    1    2    0    0 -0.71054273576E-14  0.35527136788E-14  0.50106472310E+03  0.67118359066E+03  0.44656640675E+03 0.  0.
      99925    2    3    3    0    0  0.61310462838E+02 -0.29309786082E+02  0.43805150463E+03  0.51550375826E+03  0.26312918435E+03 0.  0.
         25    1    3    3    0    0 -0.61310462838E+02  0.29309786082E+02  0.63013218465E+02  0.15567983240E+03  0.12509000000E+03 0.  0.
         25    1    4    4    0    0  0.52564820141E+02  0.12999707111E+02  0.18327528644E+03  0.22840619830E+03  0.12509000000E+03 0.  0.
         25    1    4    4    0    0  0.87456426966E+01 -0.42309493194E+02  0.25477621819E+03  0.28709755996E+03  0.12509000000E+03 0.  0.
<mgrwt>
<rscale>  2 0.44656641E+03</rscale>
<asrwt>0</asrwt>
<pdfrwt beam="1">  1       21 0.86194727E-01 0.44656641E+03</pdfrwt>
<pdfrwt beam="2">  1       21 0.12508741E-01 0.44656641E+03</pdfrwt>
<totfact> 0.58271718E+04</totfact>
</mgrwt>
</event>
<event>
 7    0  0.4752811E-002  0.4521734E+03  0.7546771E-02  0.1027076E+00
         21   -1    0    0  502  501  0.00000000000E+00  0.00000000000E+00  0.33263194476E+03  0.33263194476E+03  0.00000000000E+00 0. -1.
         21   -1    0    0  501  502 -0.00000000000E+00 -0.00000000000E+00 -0.15366892804E+03  0.15366892804E+03  0.00000000000E+00 0. -1.
      99926    2    1    2    0    0  0.00000000000E+00  0.00000000000E+00  0.17896301673E+03  0.48630087280E+03  0.45217339321E+03 0.  0.
      99925    2    3    3    0    0  0.61004933273E+02 -0.91896590415E+02  0.10504733443E+03  0.30387932418E+03  0.26294698320E+03 0.  0.
         25    1    4    4    0    0  0.56403519464E+02 -0.81265068211E+02  0.56141566815E+02  0.16907025742E+03  0.12509000000E+03 0.  0.
         25    1    3    3    0    0 -0.61004933273E+02  0.91896590415E+02  0.73915682292E+02  0.18242154862E+03  0.12509000000E+03 0.  0.
         25    1    4    4    0    0  0.46014138088E+01 -0.10631522204E+02  0.48905767618E+02  0.13480906676E+03  0.12509000000E+03 0.  0.
<mgrwt>
<rscale>  2 0.45217339E+03</rscale>
<asrwt>0</asrwt>
<pdfrwt beam="1">  1       21 0.48916462E-01 0.45217339E+03</pdfrwt>
<pdfrwt beam="2">  1       21 0.22598372E-01 0.45217339E+03</pdfrwt>
<totfact> 0.67751816E+04</totfact>
</mgrwt>
</event>
<event>
 7    0  0.4752811E-002  0.4562695E+03  0.7546771E-02  0.1025869E+00
         21   -1    0    0  502  501  0.00000000000E+00  0.00000000000E+00  0.54004010150E+02  0.54004010150E+02  0.00000000000E+00 0.  1.
         21   -1    0    0  501  502 -0.00000000000E+00 -0.00000000000E+00 -0.96373336609E+03  0.96373336609E+03  0.00000000000E+00 0.  1.
      99926    2    1    2    0    0  0.71054273576E-14  0.00000000000E+00 -0.90972935594E+03  0.10177373762E+04  0.45626951020E+03 0.  0.
      99925    2    3    3    0    0 -0.57218575541E+02 -0.89690116785E+02 -0.66562618624E+03  0.72353991195E+03  0.26293250454E+03 0.  0.
         25    1    4    4    0    0  0.93041803054E+01 -0.57924854784E+02 -0.34064171451E+03  0.36759507932E+03  0.12509000000E+03 0.  0.
         25    1    4    4    0    0 -0.66522755846E+02 -0.31765262001E+02 -0.32498447172E+03  0.35594483263E+03  0.12509000000E+03 0.  0.
         25    1    3    3    0    0  0.57218575541E+02  0.89690116785E+02 -0.24410316970E+03  0.29419746429E+03  0.12509000000E+03 0.  0.
<mgrwt>
<rscale>  2 0.45626951E+03</rscale>
<asrwt>0</asrwt>
<pdfrwt beam="1">  1       21 0.79417664E-02 0.45626951E+03</pdfrwt>
<pdfrwt beam="2">  1       21 0.14172549E+00 0.45626951E+03</pdfrwt>
<totfact> 0.38104774E+04</totfact>
</mgrwt>
</event>
<event>
 7    0  0.4752811E-002  0.4285495E+03  0.7546771E-02  0.1034319E+00
         21   -1    0    0  502  501  0.00000000000E+00  0.00000000000E+00  0.22104458543E+03  0.22104458543E+03  0.00000000000E+00 0.  1.
         21   -1    0    0  501  502 -0.00000000000E+00 -0.00000000000E+00 -0.20771229838E+03  0.20771229838E+03  0.00000000000E+00 0.  1.
      99926    2    1    2    0    0  0.00000000000E+00 -0.35527136788E-14  0.13332287055E+02  0.42875688381E+03  0.42854954852E+03 0.  0.
      99925    2    3    3    0    0  0.48761556575E+02  0.23857239101E+02 -0.58168300078E+02  0.27478708380E+03  0.26301622199E+03 0.  0.
         25    1    4    4    0    0  0.51459027563E+02 -0.17428039070E+02 -0.21848456129E+02  0.13811817838E+03  0.12509000000E+03 0.  0.
         25    1    4    4    0    0 -0.26974709885E+01  0.41285278171E+02 -0.36319843949E+02  0.13666890542E+03  0.12509000000E+03 0.  0.
         25    1    3    3    0    0 -0.48761556575E+02 -0.23857239101E+02  0.71500587134E+02  0.15396980002E+03  0.12509000000E+03 0.  0.
<mgrwt>
<rscale>  2 0.42854955E+03</rscale>
<asrwt>0</asrwt>
<pdfrwt beam="1">  1       21 0.32506557E-01 0.42854955E+03</pdfrwt>
<pdfrwt beam="2">  1       21 0.30545926E-01 0.42854955E+03</pdfrwt>
<totfact> 0.87589248E+04</totfact>
</mgrwt>
</event>
<event>
 7    0  0.4752811E-002  0.4565870E+03  0.7546771E-02  0.1025776E+00
         21   -1    0    0  502  501  0.00000000000E+00  0.00000000000E+00  0.16654872067E+03  0.16654872067E+03  0.00000000000E+00 0.  1.
         21   -1    0    0  501  502 -0.00000000000E+00 -0.00000000000E+00 -0.31292900515E+03  0.31292900515E+03  0.00000000000E+00 0.  1.
      99926    2    1    2    0    0  0.35527136788E-14 -0.71054273576E-14 -0.14638028448E+03  0.47947772582E+03  0.45658701457E+03 0.  0.
      99925    2    3    3    0    0  0.24872975317E+02 -0.56404399881E+02 -0.19307401500E+03  0.33241333925E+03  0.26347852211E+03 0.  0.
         25    1    4    4    0    0  0.49812862463E+02 -0.12330723437E+02 -0.87204349947E+02  0.16088963533E+03  0.12509000000E+03 0.  0.
         25    1    4    4    0    0 -0.24939887146E+02 -0.44073676444E+02 -0.10586966506E+03  0.17152370392E+03  0.12509000000E+03 0.  0.
         25    1    3    3    0    0 -0.24872975317E+02  0.56404399881E+02  0.46693730522E+02  0.14706438657E+03  0.12509000000E+03 0.  0.
<mgrwt>
<rscale>  2 0.45658701E+03</rscale>
<asrwt>0</asrwt>
<pdfrwt beam="1">  1       21 0.24492459E-01 0.45658701E+03</pdfrwt>
<pdfrwt beam="2">  1       21 0.46018970E-01 0.45658701E+03</pdfrwt>
<totfact> 0.65904070E+04</totfact>
</mgrwt>
</event>
<event>
 7    0  0.4752811E-002  0.4469795E+03  0.7546771E-02  0.1028627E+00
         21   -1    0    0  502  501  0.00000000000E+00  0.00000000000E+00  0.10037182093E+04  0.10037182093E+04  0.00000000000E+00 0.  1.
         21   -1    0    0  501  502 -0.00000000000E+00 -0.00000000000E+00 -0.49762637903E+02  0.49762637903E+02  0.00000000000E+00 0.  1.
      99926    2    1    2    0    0  0.00000000000E+00  0.14210854715E-13  0.95395557135E+03  0.10534808472E+04  0.44697948859E+03 0.  0.
      99925    2    3    3    0    0 -0.59187826984E+02  0.79956954627E+02  0.68792564309E+03  0.74313306758E+03  0.26288543562E+03 0.  0.
         25    1    4    4    0    0 -0.68206562628E+02  0.57134820219E+02  0.36602317618E+03  0.39690930509E+03  0.12509000000E+03 0.  0.
         25    1    3    3    0    0  0.59187826984E+02 -0.79956954627E+02  0.26602992826E+03  0.31034777958E+03  0.12509000000E+03 0.  0.
         25    1    4    4    0    0  0.90187356435E+01  0.22822134408E+02  0.32190246691E+03  0.34622376249E+03  0.12509000000E+03 0.  0.
<mgrwt>
<rscale>  2 0.44697949E+03</rscale>
<asrwt>0</asrwt>
<pdfrwt beam="1">  1       21 0.14760561E+00 0.44697949E+03</pdfrwt>
<pdfrwt beam="2">  1       21 0.73180356E-02 0.44697949E+03</pdfrwt>
<totfact> 0.39569519E+04</totfact>
</mgrwt>
</event>
<event>
 7    0  0.4752811E-002  0.4520675E+03  0.7546771E-02  0.1027107E+00
         21   -1    0    0  502  501  0.00000000000E+00  0.00000000000E+00  0.38389510638E+03  0.38389510638E+03  0.00000000000E+00 0.  1.
         21   -1    0    0  501  502 -0.00000000000E+00 -0.00000000000E+00 -0.13308647468E+03  0.13308647468E+03  0.00000000000E+00 0.  1.
      99926    2    1    2    0    0  0.00000000000E+00  0.00000000000E+00  0.25080863170E+03  0.51698158106E+03  0.45206745671E+03 0.  0.
      99925    2    3    3    0    0  0.17558874549E+02 -0.10454488285E+03  0.12297482677E+03  0.30907069536E+03  0.26299038026E+03 0.  0.
         25    1    4    4    0    0  0.34391941333E+02 -0.21121856893E+02  0.68888706450E+02  0.14839845162E+03  0.12509000000E+03 0.  0.
         25    1    4    4    0    0 -0.16833066783E+02 -0.83423025962E+02  0.54086120315E+02  0.16067224374E+03  0.12509000000E+03 0.  0.
         25    1    3    3    0    0 -0.17558874549E+02  0.10454488285E+03  0.12783380494E+03  0.20791088570E+03  0.12509000000E+03 0.  0.
<mgrwt>
<rscale>  2 0.45206746E+03</rscale>
<asrwt>0</asrwt>
<pdfrwt beam="1">  1       21 0.56455162E-01 0.45206746E+03</pdfrwt>
<pdfrwt beam="2">  1       21 0.19571541E-01 0.45206746E+03</pdfrwt>
<totfact> 0.65606626E+04</totfact>
</mgrwt>
</event>
<event>
 7    0  0.4752811E-002  0.4578435E+03  0.7546771E-02  0.1025409E+00
         21   -1    0    0  502  501  0.00000000000E+00  0.00000000000E+00  0.66726886272E+02  0.66726886272E+02  0.00000000000E+00 0.  1.
         21   -1    0    0  501  502 -0.00000000000E+00 -0.00000000000E+00 -0.78536811743E+03  0.78536811743E+03  0.00000000000E+00 0.  1.
      99926    2    1    2    0    0  0.00000000000E+00  0.00000000000E+00 -0.71864123116E+03  0.85209500370E+03  0.45784350625E+03 0.  0.
      99925    2    3    3    0    0  0.93737861590E+02 -0.68361065130E+02 -0.47100220821E+03  0.55137484191E+03  0.26212804930E+03 0.  0.
         25    1    4    4    0    0  0.91774915478E+01 -0.14465394379E+02 -0.21386182235E+03  0.24835027913E+03  0.12509000000E+03 0.  0.
         25    1    4    4    0    0  0.84560370042E+02 -0.53895670751E+02 -0.25714038586E+03  0.30302456278E+03  0.12509000000E+03 0.  0.
         25    1    3    3    0    0 -0.93737861590E+02  0.68361065130E+02 -0.24763902295E+03  0.30072016180E+03  0.12509000000E+03 0.  0.
<mgrwt>
<rscale>  2 0.45784351E+03</rscale>
<asrwt>0</asrwt>
<pdfrwt beam="1">  1       21 0.98127779E-02 0.45784351E+03</pdfrwt>
<pdfrwt beam="2">  1       21 0.11549530E+00 0.45784351E+03</pdfrwt>
<totfact> 0.44348282E+04</totfact>
</mgrwt>
</event>
<event>
 7    0  0.4752811E-002  0.4597906E+03  0.7546771E-02  0.1024842E+00
         21   -1    0    0  502  501  0.00000000000E+00  0.00000000000E+00  0.41802325205E+02  0.41802325205E+02  0.00000000000E+00 0. -1.
         21   -1    0    0  501  502 -0.00000000000E+00 -0.00000000000E+00 -0.12643280317E+04  0.12643280317E+04  0.00000000000E+00 0. -1.
      99926    2    1    2    0    0  0.00000000000E+00  0.00000000000E+00 -0.12225257065E+04  0.13061303569E+04  0.45979061124E+03 0.  0.
      99925    2    3    3    0    0 -0.85593368276E+02  0.78131050856E+02 -0.70538617590E+03  0.76160167262E+03  0.26274848200E+03 0.  0.
         25    1    4    4    0    0 -0.67859827082E+02  0.47425900713E+02 -0.29240411276E+03  0.32863634225E+03  0.12509000000E+03 0.  0.
         25    1    3    3    0    0  0.85593368276E+02 -0.78131050856E+02 -0.51713953058E+03  0.54452868427E+03  0.12509000000E+03 0.  0.
         25    1    4    4    0    0 -0.17733541194E+02  0.30705150143E+02 -0.41298206314E+03  0.43296533038E+03  0.12509000000E+03 0.  0.
<mgrwt>
<rscale>  2 0.45979061E+03</rscale>
<asrwt>0</asrwt>
<pdfrwt beam="1">  1       21 0.61474004E-02 0.45979061E+03</pdfrwt>
<pdfrwt beam="2">  1       21 0.18593060E+00 0.45979061E+03</pdfrwt>
<totfact> 0.27883726E+04</totfact>
</mgrwt>
</event>
<event>
 7    0  0.4752811E-002  0.4453678E+03  0.7546771E-02  0.1029112E+00
         21   -1    0    0  502  501  0.00000000000E+00  0.00000000000E+00  0.80760307032E+02  0.80760307032E+02  0.00000000000E+00 0. -1.
         21   -1    0    0  501  502 -0.00000000000E+00 -0.00000000000E+00 -0.61401600441E+03  0.61401600441E+03  0.00000000000E+00 0. -1.
      99926    2    1    2    0    0  0.14210854715E-13  0.35527136788E-14 -0.53325569738E+03  0.69477631144E+03  0.44536780772E+03 0.  0.
      99925    2    3    3    0    0 -0.76251719473E+02 -0.30365809565E+02 -0.43779709396E+03  0.51730445401E+03  0.26306120115E+03 0.  0.
         25    1    4    4    0    0 -0.46974440480E+02 -0.58205973280E+01 -0.29358351615E+03  0.32261318396E+03  0.12509000000E+03 0.  0.
         25    1    3    3    0    0  0.76251719473E+02  0.30365809565E+02 -0.95458603419E+02  0.17747185743E+03  0.12509000000E+03 0.  0.
         25    1    4    4    0    0 -0.29277278993E+02 -0.24545212237E+02 -0.14421357781E+03  0.19469127005E+03  0.12509000000E+03 0.  0.
<mgrwt>
<rscale>  2 0.44536781E+03</rscale>
<asrwt>0</asrwt>
<pdfrwt beam="1">  1       21 0.11876515E-01 0.44536781E+03</pdfrwt>
<pdfrwt beam="2">  1       21 0.90296474E-01 0.44536781E+03</pdfrwt>
<totfact> 0.57418295E+04</totfact>
</mgrwt>
</event>
<event>
 7    0  0.4752811E-002  0.4355565E+03  0.7546771E-02  0.1032119E+00
         21   -1    0    0  502  501  0.00000000000E+00  0.00000000000E+00  0.92211170757E+03  0.92211170757E+03  0.00000000000E+00 0.  1.
         21   -1    0    0  501  502 -0.00000000000E+00 -0.00000000000E+00 -0.51433432443E+02  0.51433432443E+02  0.00000000000E+00 0.  1.
      99926    2    1    2    0    0 -0.71054273576E-14  0.00000000000E+00  0.87067827513E+03  0.97354514001E+03  0.43555651857E+03 0.  0.
      99925    2    3    3    0    0  0.56576185225E+02 -0.73842249227E+02  0.53118032741E+03  0.59996796310E+03  0.26297428394E+03 0.  0.
         25    1    4    4    0    0  0.32265000022E+01 -0.87660615682E+01  0.28352027549E+03  0.31002985155E+03  0.12509000000E+03 0.  0.
         25    1    3    3    0    0 -0.56576185225E+02  0.73842249227E+02  0.33949794772E+03  0.37357717692E+03  0.12509000000E+03 0.  0.
         25    1    4    4    0    0  0.53349685222E+02 -0.65076187659E+02  0.24766005191E+03  0.28993811155E+03  0.12509000000E+03 0.  0.
<mgrwt>
<rscale>  2 0.43555652E+03</rscale>
<asrwt>0</asrwt>
<pdfrwt beam="1">  1       21 0.13560465E+00 0.43555652E+03</pdfrwt>
<pdfrwt beam="2">  1       21 0.75637406E-02 0.43555652E+03</pdfrwt>
<totfact> 0.46940811E+04</totfact>
</mgrwt>
</event>
<event>
 7    0  0.4752811E-002  0.4116771E+03  0.7546771E-02  0.1039810E+00
         21   -1    0    0  502  501  0.00000000000E+00  0.00000000000E+00  0.15208514968E+03  0.15208514968E+03  0.00000000000E+00 0. -1.
         21   -1    0    0  501  502 -0.00000000000E+00 -0.00000000000E+00 -0.27859067210E+03  0.27859067210E+03  0.00000000000E+00 0. -1.
      99926    2    1    2    0    0  0.35527136788E-14  0.35527136788E-14 -0.12650552242E+03  0.43067582178E+03  0.41167707765E+03 0.  0.
      99925    2    3    3    0    0  0.28612950825E+02  0.31530114276E+02 -0.32330828479E+02  0.26841297902E+03  0.26303497063E+03 0.  0.
         25    1    4    4    0    0 -0.21905812615E+02  0.28673056005E+02 -0.24783621530E+01  0.13021389767E+03  0.12509000000E+03 0.  0.
         25    1    4    4    0    0  0.50518763440E+02  0.28570582713E+01 -0.29852466326E+02  0.13819908135E+03  0.12509000000E+03 0.  0.
         25    1    3    3    0    0 -0.28612950825E+02 -0.31530114276E+02 -0.94174693936E+02  0.16226284276E+03  0.12509000000E+03 0.  0.
<mgrwt>
<rscale>  2 0.41167708E+03</rscale>
<asrwt>0</asrwt>
<pdfrwt beam="1">  1       21 0.22365463E-01 0.41167708E+03</pdfrwt>
<pdfrwt beam="2">  1       21 0.40969216E-01 0.41167708E+03</pdfrwt>
<totfact> 0.10096161E+05</totfact>
</mgrwt>
</event>
<event>
 7    0  0.4752811E-002  0.4312185E+03  0.7546771E-02  0.1033476E+00
         21   -1    0    0  502  501  0.00000000000E+00  0.00000000000E+00  0.33180932363E+03  0.33180932363E+03  0.00000000000E+00 0. -1.
         21   -1    0    0  501  502 -0.00000000000E+00 -0.00000000000E+00 -0.14010262337E+03  0.14010262337E+03  0.00000000000E+00 0. -1.
      99926    2    1    2    0    0  0.14210854715E-13  0.00000000000E+00  0.19170670026E+03  0.47191194701E+03  0.43121853717E+03 0.  0.
      99925    2    3    3    0    0 -0.69747396389E+02 -0.33795091107E+02  0.75128617646E+02  0.28417605557E+03  0.26287813504E+03 0.  0.
         25    1    3    3    0    0  0.69747396389E+02  0.33795091107E+02  0.11657808262E+03  0.18773589144E+03  0.12509000000E+03 0.  0.
         25    1    4    4    0    0 -0.23840163071E+02  0.22184389319E+02  0.29102107872E+02  0.13249506137E+03  0.12509000000E+03 0.  0.
         25    1    4    4    0    0 -0.45907233318E+02 -0.55979480426E+02  0.46026509774E+02  0.15168099420E+03  0.12509000000E+03 0.  0.
<mgrwt>
<rscale>  2 0.43121854E+03</rscale>
<asrwt>0</asrwt>
<pdfrwt beam="1">  1       21 0.48795489E-01 0.43121854E+03</pdfrwt>
<pdfrwt beam="2">  1       21 0.20603327E-01 0.43121854E+03</pdfrwt>
<totfact> 0.81653164E+04</totfact>
</mgrwt>
</event>
<event>
 7    0  0.4752811E-002  0.4552393E+03  0.7546771E-02  0.1026171E+00
         21   -1    0    0  502  501  0.00000000000E+00  0.00000000000E+00  0.53484413099E+02  0.53484413099E+02  0.00000000000E+00 0.  1.
         21   -1    0    0  501  502 -0.00000000000E+00 -0.00000000000E+00 -0.96870673440E+03  0.96870673440E+03  0.00000000000E+00 0.  1.
      99926    2    1    2    0    0  0.00000000000E+00  0.00000000000E+00 -0.91522232130E+03  0.10221911475E+04  0.45523932675E+03 0.  0.
      99925    2    3    3    0    0  0.47330821379E+02 -0.79685413665E+02 -0.72248969994E+03  0.77443452652E+03  0.26299714359E+03 0.  0.
         25    1    4    4    0    0  0.44334647327E+02 -0.74707807125E+02 -0.35857348294E+03  0.38957575408E+03  0.12509000000E+03 0.  0.
         25    1    4    4    0    0  0.29961740521E+01 -0.49776065406E+01 -0.36391621700E+03  0.38485877244E+03  0.12509000000E+03 0.  0.
         25    1    3    3    0    0 -0.47330821379E+02  0.79685413665E+02 -0.19273262136E+03  0.24775662098E+03  0.12509000000E+03 0.  0.
<mgrwt>
<rscale>  2 0.45523933E+03</rscale>
<asrwt>0</asrwt>
<pdfrwt beam="1">  1       21 0.78653553E-02 0.45523933E+03</pdfrwt>
<pdfrwt beam="2">  1       21 0.14245687E+00 0.45523933E+03</pdfrwt>
<totfact> 0.38243097E+04</totfact>
</mgrwt>
</event>
<event>
 7    0  0.4752811E-002  0.4512006E+03  0.7546771E-02  0.1027365E+00
         21   -1    0    0  502  501  0.00000000000E+00  0.00000000000E+00  0.49438915026E+02  0.49438915026E+02  0.00000000000E+00 0. -1.
         21   -1    0    0  501  502 -0.00000000000E+00 -0.00000000000E+00 -0.10294620853E+04  0.10294620853E+04  0.00000000000E+00 0. -1.
      99926    2    1    2    0    0  0.35527136788E-14 -0.14210854715E-13 -0.98002317027E+03  0.10789010003E+04  0.45120056985E+03 0.  0.
      99925    2    3    3    0    0  0.21063286220E+02 -0.10745154617E+03 -0.61139057707E+03  0.67451629034E+03  0.26302906950E+03 0.  0.
         25    1    4    4    0    0  0.17418447963E+02 -0.15185718978E+02 -0.31745015764E+03  0.34198847798E+03  0.12509000000E+03 0.  0.
         25    1    4    4    0    0  0.36448382568E+01 -0.92265827188E+02 -0.29394041943E+03  0.33252781236E+03  0.12509000000E+03 0.  0.
         25    1    3    3    0    0 -0.21063286220E+02  0.10745154617E+03 -0.36863259320E+03  0.40438470999E+03  0.12509000000E+03 0.  0.
<mgrwt>
<rscale>  2 0.45120057E+03</rscale>
<asrwt>0</asrwt>
<pdfrwt beam="1">  1       21 0.72704294E-02 0.45120057E+03</pdfrwt>
<pdfrwt beam="2">  1       21 0.15139147E+00 0.45120057E+03</pdfrwt>
<totfact> 0.37328912E+04</totfact>
</mgrwt>
</event>
<event>
 7    0  0.4752811E-002  0.4601805E+03  0.7546771E-02  0.1024729E+00
         21   -1    0    0  502  501  0.00000000000E+00  0.00000000000E+00  0.22759239858E+03  0.22759239858E+03  0.00000000000E+00 0. -1.
         21   -1    0    0  501  502 -0.00000000000E+00 -0.00000000000E+00 -0.23261548433E+03  0.23261548433E+03  0.00000000000E+00 0. -1.
      99926    2    1    2    0    0 -0.14210854715E-13 -0.14210854715E-13 -0.50230857521E+01  0.46020788290E+03  0.46018046905E+03 0.  0.
      99925    2    3    3    0    0 -0.71511795137E+02 -0.87199314814E+02  0.30347544785E+02  0.28811416729E+03  0.26338402111E+03 0.  0.
         25    1    3    3    0    0  0.71511795137E+02  0.87199314814E+02 -0.35370630537E+02  0.17209371561E+03  0.12509000000E+03 0.  0.
         25    1    4    4    0    0 -0.64696508210E+02 -0.45859364142E+02  0.46433214864E+02  0.15521685152E+03  0.12509000000E+03 0.  0.
         25    1    4    4    0    0 -0.68152869266E+01 -0.41339950673E+02 -0.16085670079E+02  0.13289731577E+03  0.12509000000E+03 0.  0.
<mgrwt>
<rscale>  2 0.46018047E+03</rscale>
<asrwt>0</asrwt>
<pdfrwt beam="1">  1       21 0.33469470E-01 0.46018047E+03</pdfrwt>
<pdfrwt beam="2">  1       21 0.34208159E-01 0.46018047E+03</pdfrwt>
<totfact> 0.65419724E+04</totfact>
</mgrwt>
</event>
<event>
 7    0  0.4752811E-002  0.4525610E+03  0.7546771E-02  0.1026961E+00
         21   -1    0    0  502  501  0.00000000000E+00  0.00000000000E+00  0.53196865123E+03  0.53196865123E+03  0.00000000000E+00 0.  1.
         21   -1    0    0  501  502 -0.00000000000E+00 -0.00000000000E+00 -0.96251647411E+02  0.96251647411E+02  0.00000000000E+00 0.  1.
      99926    2    1    2    0    0  0.00000000000E+00  0.00000000000E+00  0.43571700382E+03  0.62822029865E+03  0.45256097513E+03 0.  0.
      99925    2    3    3    0    0  0.56202356164E+02 -0.38747133589E+02  0.15399727733E+03  0.31250910532E+03  0.26322373426E+03 0.  0.
         25    1    3    3    0    0 -0.56202356164E+02  0.38747133589E+02  0.28171972649E+03  0.31571119333E+03  0.12509000000E+03 0.  0.
         25    1    4    4    0    0 -0.58283475802E+01 -0.18378878712E+01  0.91713048101E+02  0.15522931025E+03  0.12509000000E+03 0.  0.
         25    1    4    4    0    0  0.62030703744E+02 -0.36909245718E+02  0.62284229234E+02  0.15727979507E+03  0.12509000000E+03 0.  0.
<mgrwt>
<rscale>  2 0.45256098E+03</rscale>
<asrwt>0</asrwt>
<pdfrwt beam="1">  1       21 0.78230683E-01 0.45256098E+03</pdfrwt>
<pdfrwt beam="2">  1       21 0.14154654E-01 0.45256098E+03</pdfrwt>
<totfact> 0.58084340E+04</totfact>
</mgrwt>
</event>
<event>
 7    0  0.4752811E-002  0.4125615E+03  0.7546771E-02  0.1039515E+00
         21   -1    0    0  502  501  0.00000000000E+00  0.00000000000E+00  0.83889746338E+02  0.83889746338E+02  0.00000000000E+00 0. -1.
         21   -1    0    0  501  502 -0.00000000000E+00 -0.00000000000E+00 -0.50723429609E+03  0.50723429609E+03  0.00000000000E+00 0. -1.
      99926    2    1    2    0    0  0.17763568394E-14  0.00000000000E+00 -0.42334454975E+03  0.59112404243E+03  0.41256154175E+03 0.  0.
      99925    2    3    3    0    0  0.84848432229E+01 -0.15646962953E+02 -0.18729720716E+03  0.32338783632E+03  0.26302590910E+03 0.  0.
         25    1    3    3    0    0 -0.84848432229E+01  0.15646962953E+02 -0.23604734260E+03  0.26773620611E+03  0.12509000000E+03 0.  0.
         25    1    4    4    0    0 -0.18059058196E+02 -0.97855781679E+01 -0.13477152396E+03  0.18502096879E+03  0.12509000000E+03 0.  0.
         25    1    4    4    0    0  0.26543901419E+02 -0.58613847848E+01 -0.52525683197E+02  0.13836686753E+03  0.12509000000E+03 0.  0.
<mgrwt>
<rscale>  2 0.41256154E+03</rscale>
<asrwt>0</asrwt>
<pdfrwt beam="1">  1       21 0.12336727E-01 0.41256154E+03</pdfrwt>
<pdfrwt beam="2">  1       21 0.74593280E-01 0.41256154E+03</pdfrwt>
<totfact> 0.84063068E+04</totfact>
</mgrwt>
</event>
<event>
 7    0  0.4752811E-002  0.4547279E+03  0.7546771E-02  0.1026321E+00
         21   -1    0    0  502  501  0.00000000000E+00  0.00000000000E+00  0.92057558721E+03  0.92057558721E+03  0.00000000000E+00 0.  1.
         21   -1    0    0  501  502 -0.00000000000E+00 -0.00000000000E+00 -0.56154403788E+02  0.56154403788E+02  0.00000000000E+00 0.  1.
      99926    2    1    2    0    0  0.35527136788E-14  0.00000000000E+00  0.86442118342E+03  0.97672999100E+03  0.45472793291E+03 0.  0.
      99925    2    3    3    0    0  0.28422103393E+02 -0.18975330437E+02  0.31323520072E+03  0.41049560953E+03  0.26310164452E+03 0.  0.
         25    1    3    3    0    0 -0.28422103393E+02  0.18975330437E+02  0.55118598270E+03  0.56623438146E+03  0.12509000000E+03 0.  0.
         25    1    4    4    0    0  0.28072780458E+02  0.19870619929E+01  0.21392803607E+03  0.24940878520E+03  0.12509000000E+03 0.  0.
         25    1    4    4    0    0  0.34932293512E+00 -0.20962392430E+02  0.99307164655E+02  0.16108682434E+03  0.12509000000E+03 0.  0.
<mgrwt>
<rscale>  2 0.45472793E+03</rscale>
<asrwt>0</asrwt>
<pdfrwt beam="1">  1       21 0.13537875E+00 0.45472793E+03</pdfrwt>
<pdfrwt beam="2">  1       21 0.82580011E-02 0.45472793E+03</pdfrwt>
<totfact> 0.40162256E+04</totfact>
</mgrwt>
</event>
<event>
 7    0  0.4752811E-002  0.4534401E+03  0.7546771E-02  0.1026701E+00
         21   -1    0    0  502  501  0.00000000000E+00  0.00000000000E+00  0.16837768746E+04  0.16837768746E+04  0.00000000000E+00 0.  1.
         21   -1    0    0  501  502 -0.00000000000E+00 -0.00000000000E+00 -0.30527789168E+02  0.30527789168E+02  0.00000000000E+00 0.  1.
      99926    2    1    2    0    0  0.00000000000E+00  0.35527136788E-14  0.16532490854E+04  0.17143046637E+04  0.45344011923E+03 0.  0.
      99925    2    3    3    0    0  0.95839588753E+02 -0.30434497920E+02  0.12256505120E+04  0.12575776846E+04  0.26300374464E+03 0.  0.
         25    1    3    3    0    0 -0.95839588753E+02  0.30434497920E+02  0.42759857339E+03  0.45672697917E+03  0.12509000000E+03 0.  0.
         25    1    4    4    0    0  0.64889069797E+02 -0.30201511386E+02  0.49111215488E+03  0.51182162854E+03  0.12509000000E+03 0.  0.
         25    1    4    4    0    0  0.30950518956E+02 -0.23298653389E+00  0.73453835712E+03  0.74575605602E+03  0.12509000000E+03 0.  0.
<mgrwt>
<rscale>  2 0.45344012E+03</rscale>
<asrwt>0</asrwt>
<pdfrwt beam="1">  1       21 0.24761418E+00 0.45344012E+03</pdfrwt>
<pdfrwt beam="2">  1       21 0.44893819E-02 0.45344012E+03</pdfrwt>
<totfact> 0.19197091E+04</totfact>
</mgrwt>
</event>
<event>
 7    0  0.4752811E-002  0.4524587E+03  0.7546771E-02  0.1026991E+00
         21   -1    0    0  502  501  0.00000000000E+00  0.00000000000E+00  0.29165362584E+03  0.29165362584E+03  0.00000000000E+00 0.  1.
         21   -1    0    0  501  502 -0.00000000000E+00 -0.00000000000E+00 -0.17548120216E+03  0.17548120216E+03  0.00000000000E+00 0.  1.
      99926    2    1    2    0    0 -0.35527136788E-14 -0.14210854715E-13  0.11617242369E+03  0.46713482800E+03  0.45245874453E+03 0.  0.
      99925    2    3    3    0    0  0.28607364103E+02  0.99256598632E+02  0.32671387631E+02  0.28467884762E+03  0.26325723743E+03 0.  0.
         25    1    4    4    0    0  0.13852094631E+02  0.87451631474E+02  0.38562926881E+02  0.15803251502E+03  0.12509000000E+03 0.  0.
         25    1    4    4    0    0  0.14755269472E+02  0.11804967158E+02 -0.58915392503E+01  0.12664633260E+03  0.12509000000E+03 0.  0.
         25    1    3    3    0    0 -0.28607364103E+02 -0.99256598632E+02  0.83501036055E+02  0.18245598038E+03  0.12509000000E+03 0.  0.
<mgrwt>
<rscale>  2 0.45245874E+03</rscale>
<asrwt>0</asrwt>
<pdfrwt beam="1">  1       21 0.42890239E-01 0.45245874E+03</pdfrwt>
<pdfrwt beam="2">  1       21 0.25806059E-01 0.45245874E+03</pdfrwt>
<totfact> 0.69030566E+04</totfact>
</mgrwt>
</event>
<event>
 7    0  0.4752811E-002  0.4588142E+03  0.7546771E-02  0.1025126E+00
         21   -1    0    0  502  501  0.00000000000E+00  0.00000000000E+00  0.21615505469E+03  0.21615505469E+03  0.00000000000E+00 0. -1.
         21   -1    0    0  501  502 -0.00000000000E+00 -0.00000000000E+00 -0.24347158809E+03  0.24347158809E+03  0.00000000000E+00 0. -1.
      99926    2    1    2    0    0 -0.44408920985E-15 -0.14210854715E-13 -0.27316533403E+02  0.45962664279E+03  0.45881418653E+03 0.  0.
      99925    2    3    3    0    0 -0.18270163225E+01  0.11060122259E+03  0.20123568892E+02  0.28603505361E+03  0.26301164506E+03 0.  0.
         25    1    3    3    0    0  0.18270163225E+01 -0.11060122259E+03 -0.47440102296E+02  0.17359158918E+03  0.12509000000E+03 0.  0.
         25    1    4    4    0    0  0.16354398304E+02  0.35053802183E+02  0.41225599608E+02  0.13727087657E+03  0.12509000000E+03 0.  0.
         25    1    4    4    0    0 -0.18181414626E+02  0.75547420412E+02 -0.21102030716E+02  0.14876417704E+03  0.12509000000E+03 0.  0.
<mgrwt>
<rscale>  2 0.45881419E+03</rscale>
<asrwt>0</asrwt>
<pdfrwt beam="1">  1       21 0.31787508E-01 0.45881419E+03</pdfrwt>
<pdfrwt beam="2">  1       21 0.35804645E-01 0.45881419E+03</pdfrwt>
<totfact> 0.66171384E+04</totfact>
</mgrwt>
</event>
<event>
 7    0  0.4752811E-002  0.4277345E+03  0.7546771E-02  0.1034578E+00
         21   -1    0    0  502  501  0.00000000000E+00  0.00000000000E+00  0.82925277695E+03  0.82925277695E+03  0.00000000000E+00 0.  1.
         21   -1    0    0  501  502 -0.00000000000E+00 -0.00000000000E+00 -0.55157139051E+02  0.55157139051E+02  0.00000000000E+00 0.  1.
      99926    2    1    2    0    0 -0.71054273576E-14  0.00000000000E+00  0.77409563790E+03  0.88440991601E+03  0.42773454725E+03 0.  0.
      99925    2    3    3    0    0 -0.41699080302E+02 -0.68389975312E+02  0.44023863285E+03  0.51900054291E+03  0.26293631865E+03 0.  0.
         25    1    3    3    0    0  0.41699080302E+02  0.68389975312E+02  0.33385700505E+03  0.36540937309E+03  0.12509000000E+03 0.  0.
         25    1    4    4    0    0 -0.42309780024E+01 -0.63056085817E+01  0.15602426225E+03  0.20012181387E+03  0.12509000000E+03 0.  0.
         25    1    4    4    0    0 -0.37468102300E+02 -0.62084366731E+02  0.28421437060E+03  0.31887872904E+03  0.12509000000E+03 0.  0.
<mgrwt>
<rscale>  2 0.42773455E+03</rscale>
<asrwt>0</asrwt>
<pdfrwt beam="1">  1       21 0.12194893E+00 0.42773455E+03</pdfrwt>
<pdfrwt beam="2">  1       21 0.81113445E-02 0.42773455E+03</pdfrwt>
<totfact> 0.54685336E+04</totfact>
</mgrwt>
</event>
<event>
 7    0  0.4752811E-002  0.4537962E+03  0.7546771E-02  0.1026596E+00
         21   -1    0    0  502  501  0.00000000000E+00  0.00000000000E+00  0.27399100308E+04  0.27399100308E+04  0.00000000000E+00 0.  1.
         21   -1    0    0  501  502 -0.00000000000E+00 -0.00000000000E+00 -0.18789944567E+02  0.18789944567E+02  0.00000000000E+00 0.  1.
      99926    2    1    2    0    0  0.00000000000E+00  0.00000000000E+00  0.27211200862E+04  0.27586999753E+04  0.45379624325E+03 0.  0.
      99925    2    3    3    0    0 -0.42975622889E+02  0.72560250097E+02  0.21626268599E+04  0.21801897455E+04  0.26298383474E+03 0.  0.
         25    1    4    4    0    0 -0.11342300872E+01  0.31413274730E+02  0.77026499361E+03  0.78098895561E+03  0.12509000000E+03 0.  0.
         25    1    4    4    0    0 -0.41841392801E+02  0.41146975367E+02  0.13923618662E+04  0.13992007899E+04  0.12509000000E+03 0.  0.
         25    1    3    3    0    0  0.42975622889E+02 -0.72560250097E+02  0.55849322634E+03  0.57851022984E+03  0.12509000000E+03 0.  0.
<mgrwt>
<rscale>  2 0.45379624E+03</rscale>
<asrwt>0</asrwt>
<pdfrwt beam="1">  1       21 0.40292767E+00 0.45379624E+03</pdfrwt>
<pdfrwt beam="2">  1       21 0.27632290E-02 0.45379624E+03</pdfrwt>
<totfact> 0.48761739E+03</totfact>
</mgrwt>
</event>
<event>
 7    0  0.4752811E-002  0.4577034E+03  0.7546771E-02  0.1025449E+00
         21   -1    0    0  502  501  0.00000000000E+00  0.00000000000E+00  0.76216634481E+03  0.76216634481E+03  0.00000000000E+00 0.  1.
         21   -1    0    0  501  502 -0.00000000000E+00 -0.00000000000E+00 -0.68716107008E+02  0.68716107008E+02  0.00000000000E+00 0.  1.
      99926    2    1    2    0    0  0.71054273576E-14  0.00000000000E+00  0.69345023780E+03  0.83088245182E+03  0.45770341536E+03 0.  0.
      99925    2    3    3    0    0 -0.51189580086E+02 -0.33751547641E+02  0.25695983430E+03  0.37270026041E+03  0.26290223960E+03 0.  0.
         25    1    4    4    0    0 -0.65849204942E+02 -0.16026132289E+02  0.12430987963E+03  0.18892699378E+03  0.12509000000E+03 0.  0.
         25    1    3    3    0    0  0.51189580086E+02  0.33751547641E+02  0.43649040350E+03  0.45818219141E+03  0.12509000000E+03 0.  0.
         25    1    4    4    0    0  0.14659624856E+02 -0.17725415352E+02  0.13264995468E+03  0.18377326663E+03  0.12509000000E+03 0.  0.
<mgrwt>
<rscale>  2 0.45770342E+03</rscale>
<asrwt>0</asrwt>
<pdfrwt beam="1">  1       21 0.11208328E+00 0.45770342E+03</pdfrwt>
<pdfrwt beam="2">  1       21 0.10105310E-01 0.45770342E+03</pdfrwt>
<totfact> 0.45337718E+04</totfact>
</mgrwt>
</event>
<event>
 7    0  0.4752811E-002  0.4556385E+03  0.7546771E-02  0.1026054E+00
         21   -1    0    0  502  501  0.00000000000E+00  0.00000000000E+00  0.19176447268E+03  0.19176447268E+03  0.00000000000E+00 0. -1.
         21   -1    0    0  501  502 -0.00000000000E+00 -0.00000000000E+00 -0.27065288477E+03  0.27065288477E+03  0.00000000000E+00 0. -1.
      99926    2    1    2    0    0  0.35527136788E-14  0.00000000000E+00 -0.78888412094E+02  0.46241735745E+03  0.45563848708E+03 0.  0.
      99925    2    3    3    0    0 -0.29666674994E+02 -0.10991884114E+03 -0.45876251840E+02  0.29008171381E+03  0.26283170844E+03 0.  0.
         25    1    4    4    0    0 -0.33034981503E+02 -0.90127005942E+02 -0.42681639561E+02  0.16335059736E+03  0.12509000000E+03 0.  0.
         25    1    4    4    0    0  0.33683065092E+01 -0.19791835198E+02 -0.31946122788E+01  0.12673111645E+03  0.12509000000E+03 0.  0.
         25    1    3    3    0    0  0.29666674994E+02  0.10991884114E+03 -0.33012160254E+02  0.17233564364E+03  0.12509000000E+03 0.  0.
<mgrwt>
<rscale>  2 0.45563849E+03</rscale>
<asrwt>0</asrwt>
<pdfrwt beam="1">  1       21 0.28200658E-01 0.45563849E+03</pdfrwt>
<pdfrwt beam="2">  1       21 0.39801895E-01 0.45563849E+03</pdfrwt>
<totfact> 0.67658185E+04</totfact>
</mgrwt>
</event>
<event>
 7    0  0.4752811E-002  0.4551002E+03  0.7546771E-02  0.1026212E+00
         21   -1    0    0  502  501  0.00000000000E+00  0.00000000000E+00  0.90179586630E+03  0.90179586630E+03  0.00000000000E+00 0. -1.
         21   -1    0    0  501  502 -0.00000000000E+00 -0.00000000000E+00 -0.57417705410E+02  0.57417705410E+02  0.00000000000E+00 0. -1.
      99926    2    1    2    0    0  0.00000000000E+00  0.00000000000E+00  0.84437816089E+03  0.95921357171E+03  0.45510020607E+03 0.  0.
      99925    2    3    3    0    0 -0.98345496419E+02 -0.26779598208E+02  0.42705854482E+03  0.51178519353E+03  0.26297547426E+03 0.  0.
         25    1    4    4    0    0 -0.60340854175E+02  0.13310372882E+02  0.26709558598E+03  0.30133991580E+03  0.12509000000E+03 0.  0.
         25    1    4    4    0    0 -0.38004642244E+02 -0.40089971090E+02  0.15996295885E+03  0.21044527773E+03  0.12509000000E+03 0.  0.
         25    1    3    3    0    0  0.98345496419E+02  0.26779598208E+02  0.41731961606E+03  0.44742837818E+03  0.12509000000E+03 0.  0.
<mgrwt>
<rscale>  2 0.45510021E+03</rscale>
<asrwt>0</asrwt>
<pdfrwt beam="1">  1       21 0.13261703E+00 0.45510021E+03</pdfrwt>
<pdfrwt beam="2">  1       21 0.84437808E-02 0.45510021E+03</pdfrwt>
<totfact> 0.40738056E+04</totfact>
</mgrwt>
</event>
<event>
 7    0  0.4752811E-002  0.4510179E+03  0.7546771E-02  0.1027419E+00
         21   -1    0    0  502  501  0.00000000000E+00  0.00000000000E+00  0.41600956582E+03  0.41600956582E+03  0.00000000000E+00 0. -1.
         21   -1    0    0  501  502 -0.00000000000E+00 -0.00000000000E+00 -0.12224304463E+03  0.12224304463E+03  0.00000000000E+00 0. -1.
      99926    2    1    2    0    0  0.00000000000E+00  0.00000000000E+00  0.29376652119E+03  0.53825261045E+03  0.45101785296E+03 0.  0.
      99925    2    3    3    0    0 -0.10145205913E+03 -0.32182435886E+02  0.15474428763E+03  0.32307147976E+03  0.26287098927E+03 0.  0.
         25    1    3    3    0    0  0.10145205913E+03  0.32182435886E+02  0.13902223356E+03  0.21518113069E+03  0.12509000000E+03 0.  0.
         25    1    4    4    0    0 -0.26915855365E+02  0.11773183412E+02  0.94368923684E+02  0.15942419194E+03  0.12509000000E+03 0.  0.
         25    1    4    4    0    0 -0.74536203769E+02 -0.43955619298E+02  0.60375363947E+02  0.16364728782E+03  0.12509000000E+03 0.  0.
<mgrwt>
<rscale>  2 0.45101785E+03</rscale>
<asrwt>0</asrwt>
<pdfrwt beam="1">  1       21 0.61177877E-01 0.45101785E+03</pdfrwt>
<pdfrwt beam="2">  1       21 0.17976919E-01 0.45101785E+03</pdfrwt>
<totfact> 0.64663464E+04</totfact>
</mgrwt>
</event>
<event>
 7    0  0.4752811E-002  0.4518265E+03  0.7546771E-02  0.1027179E+00
         21   -1    0    0  502  501  0.00000000000E+00  0.00000000000E+00  0.48979678677E+03  0.48979678677E+03  0.00000000000E+00 0. -1.
         21   -1    0    0  501  502 -0.00000000000E+00 -0.00000000000E+00 -0.10419995738E+03  0.10419995738E+03  0.00000000000E+00 0. -1.
      99926    2    1    2    0    0  0.00000000000E+00  0.00000000000E+00  0.38559682938E+03  0.59399674415E+03  0.45182653445E+03 0.  0.
      99925    2    3    3    0    0  0.90733970883E+02  0.23428588478E+02  0.31950165243E+03  0.42429809140E+03  0.26299431976E+03 0.  0.
         25    1    3    3    0    0 -0.90733970883E+02 -0.23428588478E+02  0.66095176949E+02  0.16969865275E+03  0.12509000000E+03 0.  0.
         25    1    4    4    0    0  0.47539938566E+02  0.13290191886E+02  0.22220809894E+03  0.25973182765E+03  0.12509000000E+03 0.  0.
         25    1    4    4    0    0  0.43194032317E+02  0.10138396592E+02  0.97293553497E+02  0.16456626375E+03  0.12509000000E+03 0.  0.
<mgrwt>
<rscale>  2 0.45182653E+03</rscale>
<asrwt>0</asrwt>
<pdfrwt beam="1">  1       21 0.72028938E-01 0.45182653E+03</pdfrwt>
<pdfrwt beam="2">  1       21 0.15323523E-01 0.45182653E+03</pdfrwt>
<totfact> 0.60553670E+04</totfact>
</mgrwt>
</event>
<event>
 7    0  0.4752811E-002  0.4648243E+03  0.7546771E-02  0.1023391E+00
         21   -1    0    0  502  501  0.00000000000E+00  0.00000000000E+00  0.14118791773E+03  0.14118791773E+03  0.00000000000E+00 0. -1.
         21   -1    0    0  501  502 -0.00000000000E+00 -0.00000000000E+00 -0.38257816703E+03  0.38257816703E+03  0.00000000000E+00 0. -1.
      99926    2    1    2    0    0  0.14210854715E-13 -0.71054273576E-14 -0.24139024930E+03  0.52376608476E+03  0.46482433143E+03 0.  0.
      99925    2    3    3    0    0 -0.10524317744E+03  0.44266735890E+02 -0.19959587063E+03  0.34932426497E+03  0.26297007476E+03 0.  0.
         25    1    3    3    0    0  0.10524317744E+03 -0.44266735890E+02 -0.41794378674E+02  0.17444181979E+03  0.12509000000E+03 0.  0.
         25    1    4    4    0    0 -0.49676227120E+02  0.52394228720E+02 -0.69392027591E+02  0.16023621419E+03  0.12509000000E+03 0.  0.
         25    1    4    4    0    0 -0.55566950320E+02 -0.81274928300E+01 -0.13020384304E+03  0.18908805078E+03  0.12509000000E+03 0.  0.
<mgrwt>
<rscale>  2 0.46482433E+03</rscale>
<asrwt>0</asrwt>
<pdfrwt beam="1">  1       21 0.20762930E-01 0.46482433E+03</pdfrwt>
<pdfrwt beam="2">  1       21 0.56261493E-01 0.46482433E+03</pdfrwt>
<totfact> 0.58904174E+04</totfact>
</mgrwt>
</event>
<event>
 7    0  0.4752811E-002  0.4542472E+03  0.7546771E-02  0.1026463E+00
         21   -1    0    0  502  501  0.00000000000E+00  0.00000000000E+00  0.27899287367E+03  0.27899287367E+03  0.00000000000E+00 0. -1.
         21   -1    0    0  501  502 -0.00000000000E+00 -0.00000000000E+00 -0.18489766494E+03  0.18489766494E+03  0.00000000000E+00 0. -1.
      99926    2    1    2    0    0  0.00000000000E+00  0.00000000000E+00  0.94095208732E+02  0.46389053861E+03  0.45424720528E+03 0.  0.
      99925    2    3    3    0    0 -0.94149043586E+02  0.59828612742E+02  0.44276269716E+02  0.28903934446E+03  0.26294457453E+03 0.  0.
         25    1    3    3    0    0  0.94149043586E+02 -0.59828612742E+02  0.49818939016E+02  0.17485119415E+03  0.12509000000E+03 0.  0.
         25    1    4    4    0    0 -0.48733491850E+02  0.51508769977E+01 -0.11262480896E+02  0.13481778940E+03  0.12509000000E+03 0.  0.
         25    1    4    4    0    0 -0.45415551736E+02  0.54677735744E+02  0.55538750612E+02  0.15422155506E+03  0.12509000000E+03 0.  0.
<mgrwt>
<rscale>  2 0.45424721E+03</rscale>
<asrwt>0</asrwt>
<pdfrwt beam="1">  1       21 0.41028364E-01 0.45424721E+03</pdfrwt>
<pdfrwt beam="2">  1       21 0.27190833E-01 0.45424721E+03</pdfrwt>
<totfact> 0.68300524E+04</totfact>
</mgrwt>
</event>
<event>
 7    0  0.4752811E-002  0.4510953E+03  0.7546771E-02  0.1027396E+00
         21   -1    0    0  502  501  0.00000000000E+00  0.00000000000E+00  0.10216523466E+03  0.10216523466E+03  0.00000000000E+00 0.  1.
         21   -1    0    0  501  502 -0.00000000000E+00 -0.00000000000E+00 -0.49793592199E+03  0.49793592199E+03  0.00000000000E+00 0.  1.
      99926    2    1    2    0    0  0.00000000000E+00 -0.26645352591E-14 -0.39577068733E+03  0.60010115664E+03  0.45109529066E+03 0.  0.
      99925    2    3    3    0    0 -0.19538650930E+02  0.73925891511E+01 -0.10699706793E+03  0.28470597498E+03  0.26300705388E+03 0.  0.
         25    1    4    4    0    0  0.14701511273E+01  0.38478817863E+02 -0.34570726793E+02  0.13537142985E+03  0.12509000000E+03 0.  0.
         25    1    4    4    0    0 -0.21008802057E+02 -0.31086228711E+02 -0.72426341133E+02  0.14933454513E+03  0.12509000000E+03 0.  0.
         25    1    3    3    0    0  0.19538650930E+02 -0.73925891511E+01 -0.28877361940E+03  0.31539518166E+03  0.12509000000E+03 0.  0.
<mgrwt>
<rscale>  2 0.45109529E+03</rscale>
<asrwt>0</asrwt>
<pdfrwt beam="1">  1       21 0.15024299E-01 0.45109529E+03</pdfrwt>
<pdfrwt beam="2">  1       21 0.73225871E-01 0.45109529E+03</pdfrwt>
<totfact> 0.60517597E+04</totfact>
</mgrwt>
</event>
<event>
 7    0  0.4752811E-002  0.4544854E+03  0.7546771E-02  0.1026393E+00
         21   -1    0    0  502  501  0.00000000000E+00  0.00000000000E+00  0.63267971057E+03  0.63267971057E+03  0.00000000000E+00 0. -1.
         21   -1    0    0  501  502 -0.00000000000E+00 -0.00000000000E+00 -0.81619888369E+02  0.81619888369E+02  0.00000000000E+00 0. -1.
      99926    2    1    2    0    0  0.00000000000E+00  0.00000000000E+00  0.55105982220E+03  0.71429959894E+03  0.45448541165E+03 0.  0.
      99925    2    3    3    0    0 -0.44044650323E+02  0.75713899268E+02  0.23642838845E+03  0.36456688247E+03  0.26332129265E+03 0.  0.
         25    1    3    3    0    0  0.44044650323E+02 -0.75713899268E+02  0.31463143376E+03  0.34973271648E+03  0.12509000000E+03 0.  0.
         25    1    4    4    0    0 -0.41335823287E+02  0.48171054134E+02  0.16952490272E+03  0.22003477335E+03  0.12509000000E+03 0.  0.
         25    1    4    4    0    0 -0.27088270353E+01  0.27542845134E+02  0.66903485726E+02  0.14453210911E+03  0.12509000000E+03 0.  0.
<mgrwt>
<rscale>  2 0.45448541E+03</rscale>
<asrwt>0</asrwt>
<pdfrwt beam="1">  1       21 0.93041131E-01 0.45448541E+03</pdfrwt>
<pdfrwt beam="2">  1       21 0.12002925E-01 0.45448541E+03</pdfrwt>
<totfact> 0.52345054E+04</totfact>
</mgrwt>
</event>
<event>
 7    0  0.4752811E-002  0.4399284E+03  0.7546771E-02  0.1030769E+00
         21   -1    0    0  502  501  0.00000000000E+00  0.00000000000E+00  0.40782564184E+03  0.40782564184E+03  0.00000000000E+00 0.  1.
         21   -1    0    0  501  502 -0.00000000000E+00 -0.00000000000E+00 -0.11863955539E+03  0.11863955539E+03  0.00000000000E+00 0.  1.
      99926    2    1    2    0    0  0.00000000000E+00  0.00000000000E+00  0.28918608645E+03  0.52646519723E+03  0.43992841610E+03 0.  0.
      99925    2    3    3    0    0  0.56140923765E+02  0.29287926202E+02  0.27458113346E+03  0.38550279552E+03  0.26307417311E+03 0.  0.
         25    1    4    4    0    0 -0.11084116002E+02  0.97866247140E+01  0.14723254255E+03  0.19376161987E+03  0.12509000000E+03 0.  0.
         25    1    3    3    0    0 -0.56140923765E+02 -0.29287926202E+02  0.14604952986E+02  0.14096240170E+03  0.12509000000E+03 0.  0.
         25    1    4    4    0    0  0.67225039766E+02  0.19501301488E+02  0.12734859092E+03  0.19174117565E+03  0.12509000000E+03 0.  0.
<mgrwt>
<rscale>  2 0.43992842E+03</rscale>
<asrwt>0</asrwt>
<pdfrwt beam="1">  1       21 0.59974359E-01 0.43992842E+03</pdfrwt>
<pdfrwt beam="2">  1       21 0.17446994E-01 0.43992842E+03</pdfrwt>
<totfact> 0.71619299E+04</totfact>
</mgrwt>
</event>
<event>
 7    0  0.4752811E-002  0.4375658E+03  0.7546771E-02  0.1031496E+00
         21   -1    0    0  502  501  0.00000000000E+00  0.00000000000E+00  0.10717366908E+03  0.10717366908E+03  0.00000000000E+00 0.  1.
         21   -1    0    0  501  502 -0.00000000000E+00 -0.00000000000E+00 -0.44662041707E+03  0.44662041707E+03  0.00000000000E+00 0.  1.
      99926    2    1    2    0    0  0.35527136788E-14 -0.88817841970E-15 -0.33944674798E+03  0.55379408615E+03  0.43756576093E+03 0.  0.
      99925    2    3    3    0    0  0.21400262359E+02 -0.65715457507E+01 -0.99067946357E+02  0.28189220530E+03  0.26295931428E+03 0.  0.
         25    1    4    4    0    0  0.19965108875E+02  0.16826792720E+02 -0.13419937193E+02  0.12848871289E+03  0.12509000000E+03 0.  0.
         25    1    3    3    0    0 -0.21400262359E+02  0.65715457507E+01 -0.24037880163E+03  0.27190188086E+03  0.12509000000E+03 0.  0.
         25    1    4    4    0    0  0.14351534838E+01 -0.23398338470E+02 -0.85648009163E+02  0.15340349241E+03  0.12509000000E+03 0.  0.
<mgrwt>
<rscale>  2 0.43756576E+03</rscale>
<asrwt>0</asrwt>
<pdfrwt beam="1">  1       21 0.15760834E-01 0.43756576E+03</pdfrwt>
<pdfrwt beam="2">  1       21 0.65679473E-01 0.43756576E+03</pdfrwt>
<totfact> 0.70900843E+04</totfact>
</mgrwt>
</event>
<event>
 7    0  0.4752811E-002  0.4539380E+03  0.7546771E-02  0.1026554E+00
         21   -1    0    0  502  501  0.00000000000E+00  0.00000000000E+00  0.60053777205E+02  0.60053777205E+02  0.00000000000E+00 0.  1.
         21   -1    0    0  501  502 -0.00000000000E+00 -0.00000000000E+00 -0.85781338239E+03  0.85781338239E+03  0.00000000000E+00 0.  1.
      99926    2    1    2    0    0  0.00000000000E+00  0.00000000000E+00 -0.79775960519E+03  0.91786715960E+03  0.45393802991E+03 0.  0.
      99925    2    3    3    0    0  0.10665763728E+03 -0.19970292505E+02 -0.55982995400E+03  0.62798323251E+03  0.26301843802E+03 0.  0.
         25    1    4    4    0    0  0.92444296841E+02 -0.29268245045E+02 -0.31441914010E+03  0.35200778677E+03  0.12509000000E+03 0.  0.
         25    1    4    4    0    0  0.14213340441E+02  0.92979525403E+01 -0.24541081390E+03  0.27597544573E+03  0.12509000000E+03 0.  0.
         25    1    3    3    0    0 -0.10665763728E+03  0.19970292505E+02 -0.23792965119E+03  0.28988392709E+03  0.12509000000E+03 0.  0.
<mgrwt>
<rscale>  2 0.45393803E+03</rscale>
<asrwt>0</asrwt>
<pdfrwt beam="1">  1       21 0.88314379E-02 0.45393803E+03</pdfrwt>
<pdfrwt beam="2">  1       21 0.12614903E+00 0.45393803E+03</pdfrwt>
<totfact> 0.42824843E+04</totfact>
</mgrwt>
</event>
<event>
 7    0  0.4752811E-002  0.4647938E+03  0.7546771E-02  0.1023400E+00
         21   -1    0    0  502  501  0.00000000000E+00  0.00000000000E+00  0.29321330125E+02  0.29321330125E+02  0.00000000000E+00 0. -1.
         21   -1    0    0  501  502 -0.00000000000E+00 -0.00000000000E+00 -0.18419463841E+04  0.18419463841E+04  0.00000000000E+00 0. -1.
      99926    2    1    2    0    0  0.17763568394E-14  0.00000000000E+00 -0.18126250539E+04  0.18712677142E+04  0.46479379513E+03 0.  0.
      99925    2    3    3    0    0  0.84990859837E+01  0.31982410891E+02 -0.16042559885E+04  0.16259917785E+04  0.26290089052E+03 0.  0.
         25    1    4    4    0    0 -0.23701446268E+02 -0.45572787777E+01 -0.65302241841E+03  0.66533323560E+03  0.12509000000E+03 0.  0.
         25    1    3    3    0    0 -0.84990859837E+01 -0.31982410891E+02 -0.20836906547E+03  0.24527593566E+03  0.12509000000E+03 0.  0.
         25    1    4    4    0    0  0.32200532251E+02  0.36539689668E+02 -0.95123357006E+03  0.96065854294E+03  0.12509000000E+03 0.  0.
<mgrwt>
<rscale>  2 0.46479380E+03</rscale>
<asrwt>0</asrwt>
<pdfrwt beam="1">  1       21 0.43119592E-02 0.46479380E+03</pdfrwt>
<pdfrwt beam="2">  1       21 0.27087454E+00 0.46479380E+03</pdfrwt>
<totfact> 0.14772367E+04</totfact>
</mgrwt>
</event>
<event>
 6    0  0.4752811E-002  0.4535893E+03  0.7546771E-02  0.1026657E+00
         21   -1    0    0  502  501  0.00000000000E+00  0.00000000000E+00  0.24243694016E+03  0.24243694016E+03  0.00000000000E+00 0.  1.
         21   -1    0    0  501  502 -0.00000000000E+00 -0.00000000000E+00 -0.21216165608E+03  0.21216165608E+03  0.00000000000E+00 0.  1.
      99926    2    1    2    0    0  0.14210854715E-13  0.00000000000E+00  0.30275284082E+02  0.45459859624E+03  0.45358934167E+03 0.  0.
         25    1    3    3    0    0  0.49615613011E+02  0.22012733611E+01 -0.51410059735E+01  0.13468664634E+03  0.12509000000E+03 0.  0.
         25    1    3    3    0    0 -0.10481197821E+03 -0.14795083899E+02 -0.31980903884E+02  0.16695727476E+03  0.12509000000E+03 0.  0.
         25    1    3    3    0    0  0.55196365197E+02  0.12593810538E+02  0.67397193940E+02  0.15295467514E+03  0.12509000000E+03 0.  0.
<mgrwt>
<rscale>  2 0.45358934E+03</rscale>
<asrwt>0</asrwt>
<pdfrwt beam="1">  1       21 0.35652491E-01 0.45358934E+03</pdfrwt>
<pdfrwt beam="2">  1       21 0.31200243E-01 0.45358934E+03</pdfrwt>
<totfact> 0.69352550E+04</totfact>
</mgrwt>
</event>
<event>
 7    0  0.4752811E-002  0.4548940E+03  0.7546771E-02  0.1026273E+00
         21   -1    0    0  502  501  0.00000000000E+00  0.00000000000E+00  0.22538158156E+03  0.22538158156E+03  0.00000000000E+00 0. -1.
         21   -1    0    0  501  502 -0.00000000000E+00 -0.00000000000E+00 -0.22953130907E+03  0.22953130907E+03  0.00000000000E+00 0. -1.
      99926    2    1    2    0    0  0.00000000000E+00  0.35527136788E-14 -0.41497275093E+01  0.45491289063E+03  0.45489396327E+03 0.  0.
      99925    2    3    3    0    0  0.97223243209E+02  0.58004186332E+01 -0.60043371467E+02  0.28681288643E+03  0.26300270244E+03 0.  0.
         25    1    4    4    0    0  0.40992292169E+02  0.42386730777E+02 -0.23919956369E+02  0.14034484449E+03  0.12509000000E+03 0.  0.
         25    1    4    4    0    0  0.56230951040E+02 -0.36586312144E+02 -0.36123415098E+02  0.14646804194E+03  0.12509000000E+03 0.  0.
         25    1    3    3    0    0 -0.97223243209E+02 -0.58004186332E+01  0.55893643957E+02  0.16810000420E+03  0.12509000000E+03 0.  0.
<mgrwt>
<rscale>  2 0.45489396E+03</rscale>
<asrwt>0</asrwt>
<pdfrwt beam="1">  1       21 0.33144350E-01 0.45489396E+03</pdfrwt>
<pdfrwt beam="2">  1       21 0.33754604E-01 0.45489396E+03</pdfrwt>
<totfact> 0.68610203E+04</totfact>
</mgrwt>
</event>
<event>
 7    0  0.4752811E-002  0.4544116E+03  0.7546771E-02  0.1026415E+00
         21   -1    0    0  502  501  0.00000000000E+00  0.00000000000E+00  0.37903854805E+03  0.37903854805E+03  0.00000000000E+00 0.  1.
         21   -1    0    0  501  502 -0.00000000000E+00 -0.00000000000E+00 -0.13619317975E+03  0.13619317975E+03  0.00000000000E+00 0.  1.
      99926    2    1    2    0    0  0.17763568394E-14  0.00000000000E+00  0.24284536830E+03  0.51523172780E+03  0.45441155401E+03 0.  0.
      99925    2    3    3    0    0  0.15119042102E+02  0.39969443863E+02  0.27103499525E+03  0.38007143391E+03  0.26299844932E+03 0.  0.
         25    1    4    4    0    0 -0.13714398942E+02  0.41986334079E+02  0.17571617605E+03  0.22016952471E+03  0.12509000000E+03 0.  0.
         25    1    4    4    0    0  0.28833441044E+02 -0.20168902164E+01  0.95318819204E+02  0.15990190919E+03  0.12509000000E+03 0.  0.
         25    1    3    3    0    0 -0.15119042102E+02 -0.39969443863E+02 -0.28189626951E+02  0.13516029389E+03  0.12509000000E+03 0.  0.
<mgrwt>
<rscale>  2 0.45441155E+03</rscale>
<asrwt>0</asrwt>
<pdfrwt beam="1">  1       21 0.55740963E-01 0.45441155E+03</pdfrwt>
<pdfrwt beam="2">  1       21 0.20028409E-01 0.45441155E+03</pdfrwt>
<totfact> 0.64514008E+04</totfact>
</mgrwt>
</event>
<event>
 7    0  0.4752811E-002  0.4533703E+03  0.7546771E-02  0.1026722E+00
         21   -1    0    0  502  501  0.00000000000E+00  0.00000000000E+00  0.13849379454E+04  0.13849379454E+04  0.00000000000E+00 0.  1.
         21   -1    0    0  501  502 -0.00000000000E+00 -0.00000000000E+00 -0.37103580551E+02  0.37103580551E+02  0.00000000000E+00 0.  1.
      99926    2    1    2    0    0  0.19984014443E-14 -0.71054273576E-14  0.13478343649E+04  0.14220415260E+04  0.45337029729E+03 0.  0.
      99925    2    3    3    0    0  0.12030610172E+01 -0.37055578049E+02  0.11786829055E+04  0.12084196930E+04  0.26383744898E+03 0.  0.
         25    1    4    4    0    0 -0.30816177136E+02 -0.38641711701E+02  0.68838725067E+03  0.70140383064E+03  0.12509000000E+03 0.  0.
         25    1    4    4    0    0  0.32019238153E+02  0.15861336517E+01  0.49029565482E+03  0.50701586234E+03  0.12509000000E+03 0.  0.
         25    1    3    3    0    0 -0.12030610172E+01  0.37055578049E+02  0.16915145941E+03  0.21362183301E+03  0.12509000000E+03 0.  0.
<mgrwt>
<rscale>  2 0.45337030E+03</rscale>
<asrwt>0</asrwt>
<pdfrwt beam="1">  1       21 0.20366731E+00 0.45337030E+03</pdfrwt>
<pdfrwt beam="2">  1       21 0.54564098E-02 0.45337030E+03</pdfrwt>
<totfact> 0.26079226E+04</totfact>
</mgrwt>
</event>
<event>
 7    0  0.4752811E-002  0.4530039E+03  0.7546771E-02  0.1026830E+00
         21   -1    0    0  502  501  0.00000000000E+00  0.00000000000E+00  0.16587290096E+03  0.16587290096E+03  0.00000000000E+00 0. -1.
         21   -1    0    0  501  502 -0.00000000000E+00 -0.00000000000E+00 -0.30929189871E+03  0.30929189871E+03  0.00000000000E+00 0. -1.
      99926    2    1    2    0    0  0.00000000000E+00  0.66613381478E-15 -0.14341899775E+03  0.47516479967E+03  0.45300394914E+03 0.  0.
      99925    2    3    3    0    0  0.31169469682E+02 -0.10054545693E+01  0.21709400158E+02  0.26567149984E+03  0.26294010914E+03 0.  0.
         25    1    3    3    0    0 -0.31169469682E+02  0.10054545693E+01 -0.16512839791E+03  0.20949329983E+03  0.12509000000E+03 0.  0.
         25    1    4    4    0    0  0.34319065842E+02  0.33434127075E+02  0.22832772202E+02  0.13588407824E+03  0.12509000000E+03 0.  0.
         25    1    4    4    0    0 -0.31495961605E+01 -0.34439581645E+02 -0.11233720432E+01  0.12978742160E+03  0.12509000000E+03 0.  0.
<mgrwt>
<rscale>  2 0.45300395E+03</rscale>
<asrwt>0</asrwt>
<pdfrwt beam="1">  1       21 0.24393074E-01 0.45300395E+03</pdfrwt>
<pdfrwt beam="2">  1       21 0.45484103E-01 0.45300395E+03</pdfrwt>
<totfact> 0.68126620E+04</totfact>
</mgrwt>
</event>
<event>
 6    0  0.4752811E-002  0.4597010E+03  0.7546771E-02  0.1024868E+00
         21   -1    0    0  502  501  0.00000000000E+00  0.00000000000E+00  0.91464301643E+02  0.91464301643E+02  0.00000000000E+00 0. -1.
         21   -1    0    0  501  502 -0.00000000000E+00 -0.00000000000E+00 -0.57761617498E+03  0.57761617498E+03  0.00000000000E+00 0. -1.
      99926    2    1    2    0    0  0.33306690739E-15  0.00000000000E+00 -0.48615187334E+03  0.66908047663E+03  0.45970103355E+03 0.  0.
         25    1    3    3    0    0  0.29769942504E+01  0.33715305048E+02 -0.17644378005E+03  0.21891893456E+03  0.12509000000E+03 0.  0.
         25    1    3    3    0    0 -0.38315916255E+01  0.87291106433E+02 -0.14910473045E+03  0.21334044881E+03  0.12509000000E+03 0.  0.
         25    1    3    3    0    0  0.85459737508E+00 -0.12100641148E+03 -0.16060336284E+03  0.23682109326E+03  0.12509000000E+03 0.  0.
<mgrwt>
<rscale>  2 0.45970103E+03</rscale>
<asrwt>0</asrwt>
<pdfrwt beam="1">  1       21 0.13450633E-01 0.45970103E+03</pdfrwt>
<pdfrwt beam="2">  1       21 0.84943553E-01 0.45970103E+03</pdfrwt>
<totfact> 0.52636037E+04</totfact>
</mgrwt>
</event>
<event>
 7    0  0.4752811E-002  0.4558488E+03  0.7546771E-02  0.1025992E+00
         21   -1    0    0  502  501  0.00000000000E+00  0.00000000000E+00  0.15986705064E+03  0.15986705064E+03  0.00000000000E+00 0. -1.
         21   -1    0    0  501  502 -0.00000000000E+00 -0.00000000000E+00 -0.32495463156E+03  0.32495463156E+03  0.00000000000E+00 0. -1.
      99926    2    1    2    0    0  0.00000000000E+00 -0.35527136788E-14 -0.16508758092E+03  0.48482168220E+03  0.45584882819E+03 0.  0.
      99925    2    3    3    0    0  0.35277793516E+02 -0.25789520220E+02  0.81921902179E+01  0.26668638186E+03  0.26295416373E+03 0.  0.
         25    1    3    3    0    0 -0.35277793516E+02  0.25789520220E+02 -0.17327977114E+03  0.21813530034E+03  0.12509000000E+03 0.  0.
         25    1    4    4    0    0  0.47227769134E+02 -0.15913689320E+01 -0.21194719121E+02  0.13538729206E+03  0.12509000000E+03 0.  0.
         25    1    4    4    0    0 -0.11949975618E+02 -0.24198151288E+02  0.29386909339E+02  0.13129908980E+03  0.12509000000E+03 0.  0.
<mgrwt>
<rscale>  2 0.45584883E+03</rscale>
<asrwt>0</asrwt>
<pdfrwt beam="1">  1       21 0.23509861E-01 0.45584883E+03</pdfrwt>
<pdfrwt beam="2">  1       21 0.47787445E-01 0.45584883E+03</pdfrwt>
<totfact> 0.65905553E+04</totfact>
</mgrwt>
</event>
<event>
 7    0  0.4752811E-002  0.3962887E+03  0.7546771E-02  0.1045072E+00
         21   -1    0    0  502  501  0.00000000000E+00  0.00000000000E+00  0.52210997706E+02  0.52210997706E+02  0.00000000000E+00 0. -1.
         21   -1    0    0  501  502 -0.00000000000E+00 -0.00000000000E+00 -0.75197152246E+03  0.75197152246E+03  0.00000000000E+00 0. -1.
      99926    2    1    2    0    0  0.00000000000E+00 -0.17763568394E-14 -0.69976052475E+03  0.80418252017E+03  0.39628869999E+03 0.  0.
      99925    2    3    3    0    0 -0.35624534792E+02  0.81914662128E+01 -0.49468655964E+03  0.56120300073E+03  0.26248391978E+03 0.  0.
         25    1    3    3    0    0  0.35624534792E+02 -0.81914662128E+01 -0.20507396512E+03  0.24297951944E+03  0.12509000000E+03 0.  0.
         25    1    4    4    0    0 -0.37944005058E+02 -0.24666374232E+02 -0.21124872783E+03  0.24964316663E+03  0.12509000000E+03 0.  0.
         25    1    4    4    0    0  0.23194702664E+01  0.32857840444E+02 -0.28343783181E+03  0.31155983409E+03  0.12509000000E+03 0.  0.
<mgrwt>
<rscale>  2 0.39628870E+03</rscale>
<asrwt>0</asrwt>
<pdfrwt beam="1">  1       21 0.76780886E-02 0.39628870E+03</pdfrwt>
<pdfrwt beam="2">  1       21 0.11058404E+00 0.39628870E+03</pdfrwt>
<totfact> 0.77602451E+04</totfact>
</mgrwt>
</event>
<event>
 7    0  0.4752811E-002  0.4223397E+03  0.7546771E-02  0.1036308E+00
         21   -1    0    0  502  501  0.00000000000E+00  0.00000000000E+00  0.51974922021E+02  0.51974922021E+02  0.00000000000E+00 0.  1.
         21   -1    0    0  501  502 -0.00000000000E+00 -0.00000000000E+00 -0.85796576259E+03  0.85796576259E+03  0.00000000000E+00 0.  1.
      99926    2    1    2    0    0  0.00000000000E+00  0.00000000000E+00 -0.80599084057E+03  0.90994068461E+03  0.42233969080E+03 0.  0.
      99925    2    3    3    0    0  0.36899828608E+02 -0.69161289188E+02 -0.52030071213E+03  0.58836450567E+03  0.26327757067E+03 0.  0.
         25    1    3    3    0    0 -0.36899828608E+02  0.69161289188E+02 -0.28569012844E+03  0.32157617894E+03  0.12509000000E+03 0.  0.
         25    1    4    4    0    0  0.32517429050E+02 -0.43900019251E+02 -0.18762031863E+03  0.23202044510E+03  0.12509000000E+03 0.  0.
         25    1    4    4    0    0  0.43823995589E+01 -0.25261269938E+02 -0.33268039349E+03  0.35634406056E+03  0.12509000000E+03 0.  0.
<mgrwt>
<rscale>  2 0.42233969E+03</rscale>
<asrwt>0</asrwt>
<pdfrwt beam="1">  1       21 0.76433711E-02 0.42233969E+03</pdfrwt>
<pdfrwt beam="2">  1       21 0.12617143E+00 0.42233969E+03</pdfrwt>
<totfact> 0.55744760E+04</totfact>
</mgrwt>
</event>
<event>
 7    0  0.4752811E-002  0.4444904E+03  0.7546771E-02  0.1029378E+00
         21   -1    0    0  502  501  0.00000000000E+00  0.00000000000E+00  0.76801500605E+03  0.76801500605E+03  0.00000000000E+00 0.  1.
         21   -1    0    0  501  502 -0.00000000000E+00 -0.00000000000E+00 -0.64312466446E+02  0.64312466446E+02  0.00000000000E+00 0.  1.
      99926    2    1    2    0    0  0.00000000000E+00  0.00000000000E+00  0.70370253960E+03  0.83232747250E+03  0.44449044672E+03 0.  0.
      99925    2    3    3    0    0 -0.88305982379E+02 -0.49157163442E+02  0.40963460594E+03  0.49715911040E+03  0.26296824414E+03 0.  0.
         25    1    3    3    0    0  0.88305982379E+02  0.49157163442E+02  0.29406793367E+03  0.33516836210E+03  0.12509000000E+03 0.  0.
         25    1    4    4    0    0 -0.30815431216E+02 -0.15051444177E+02  0.26249362116E+03  0.29279095959E+03  0.12509000000E+03 0.  0.
         25    1    4    4    0    0 -0.57490551163E+02 -0.34105719265E+02  0.14714098478E+03  0.20436815080E+03  0.12509000000E+03 0.  0.
<mgrwt>
<rscale>  2 0.44449045E+03</rscale>
<asrwt>0</asrwt>
<pdfrwt beam="1">  1       21 0.11294338E+00 0.44449045E+03</pdfrwt>
<pdfrwt beam="2">  1       21 0.94577161E-02 0.44449045E+03</pdfrwt>
<totfact> 0.50258286E+04</totfact>
</mgrwt>
</event>
<event>
 7    0  0.4752811E-002  0.4573129E+03  0.7546771E-02  0.1025563E+00
         21   -1    0    0  502  501  0.00000000000E+00  0.00000000000E+00  0.15965885035E+03  0.15965885035E+03  0.00000000000E+00 0.  1.
         21   -1    0    0  501  502 -0.00000000000E+00 -0.00000000000E+00 -0.32747174170E+03  0.32747174170E+03  0.00000000000E+00 0.  1.
      99926    2    1    2    0    0 -0.35527136788E-14  0.00000000000E+00 -0.16781289135E+03  0.48713059205E+03  0.45731285485E+03 0.  0.
      99925    2    3    3    0    0 -0.28805271897E+02 -0.37636545544E+02 -0.21738947580E+03  0.34447156123E+03  0.26297570051E+03 0.  0.
         25    1    4    4    0    0 -0.48291970800E+02 -0.34817891077E+02 -0.92240779020E+02  0.16643397909E+03  0.12509000000E+03 0.  0.
         25    1    4    4    0    0  0.19486698904E+02 -0.28186544664E+01 -0.12514869678E+03  0.17803758214E+03  0.12509000000E+03 0.  0.
         25    1    3    3    0    0  0.28805271897E+02  0.37636545544E+02  0.49576584448E+02  0.14265903082E+03  0.12509000000E+03 0.  0.
<mgrwt>
<rscale>  2 0.45731285E+03</rscale>
<asrwt>0</asrwt>
<pdfrwt beam="1">  1       21 0.23479243E-01 0.45731285E+03</pdfrwt>
<pdfrwt beam="2">  1       21 0.48157609E-01 0.45731285E+03</pdfrwt>
<totfact> 0.64983254E+04</totfact>
</mgrwt>
</event>
<event>
 7    0  0.4752811E-002  0.4513561E+03  0.7546771E-02  0.1027318E+00
         21   -1    0    0  502  501  0.00000000000E+00  0.00000000000E+00  0.11859232115E+03  0.11859232115E+03  0.00000000000E+00 0.  1.
         21   -1    0    0  501  502 -0.00000000000E+00 -0.00000000000E+00 -0.42945942878E+03  0.42945942878E+03  0.00000000000E+00 0.  1.
      99926    2    1    2    0    0  0.00000000000E+00  0.00000000000E+00 -0.31086710762E+03  0.54805174993E+03  0.45135613655E+03 0.  0.
      99925    2    3    3    0    0  0.97561336211E+02  0.46245974791E+02 -0.17303924335E+03  0.33287523454E+03  0.26307116437E+03 0.  0.
         25    1    4    4    0    0  0.97800672644E+01  0.29612168518E+02 -0.60777300080E+02  0.14252690464E+03  0.12509000000E+03 0.  0.
         25    1    4    4    0    0  0.87781268946E+02  0.16633806274E+02 -0.11226194327E+03  0.19034832990E+03  0.12509000000E+03 0.  0.
         25    1    3    3    0    0 -0.97561336211E+02 -0.46245974791E+02 -0.13782786427E+03  0.21517651539E+03  0.12509000000E+03 0.  0.
<mgrwt>
<rscale>  2 0.45135614E+03</rscale>
<asrwt>0</asrwt>
<pdfrwt beam="1">  1       21 0.17440047E-01 0.45135614E+03</pdfrwt>
<pdfrwt beam="2">  1       21 0.63155798E-01 0.45135614E+03</pdfrwt>
<totfact> 0.63815505E+04</totfact>
</mgrwt>
</event>
<event>
 7    0  0.4752811E-002  0.4801270E+03  0.7546771E-02  0.1019100E+00
         21   -1    0    0  502  501  0.00000000000E+00  0.00000000000E+00  0.11805957702E+03  0.11805957702E+03  0.00000000000E+00 0. -1.
         21   -1    0    0  501  502 -0.00000000000E+00 -0.00000000000E+00 -0.48814745382E+03  0.48814745382E+03  0.00000000000E+00 0. -1.
      99926    2    1    2    0    0  0.00000000000E+00  0.00000000000E+00 -0.37008787681E+03  0.60620703084E+03  0.48012699121E+03 0.  0.
      99925    2    3    3    0    0  0.72644597464E+02  0.83653829969E+02 -0.12956820957E+03  0.31333774390E+03  0.26290192089E+03 0.  0.
         25    1    3    3    0    0 -0.72644597464E+02 -0.83653829969E+02 -0.24051966724E+03  0.29286928695E+03  0.12509000000E+03 0.  0.
         25    1    4    4    0    0  0.32264514449E+02  0.19156500189E+02 -0.23882333757E+02  0.13276236047E+03  0.12509000000E+03 0.  0.
         25    1    4    4    0    0  0.40380083015E+02  0.64497329780E+02 -0.10568587581E+03  0.18057538343E+03  0.12509000000E+03 0.  0.
<mgrwt>
<rscale>  2 0.48012699E+03</rscale>
<asrwt>0</asrwt>
<pdfrwt beam="1">  1       21 0.17361703E-01 0.48012699E+03</pdfrwt>
<pdfrwt beam="2">  1       21 0.71786389E-01 0.48012699E+03</pdfrwt>
<totfact> 0.48028709E+04</totfact>
</mgrwt>
</event>
<event>
 7    0  0.4752811E-002  0.4276680E+03  0.7546771E-02  0.1034599E+00
         21   -1    0    0  502  501  0.00000000000E+00  0.00000000000E+00  0.13943948805E+03  0.13943948805E+03  0.00000000000E+00 0.  1.
         21   -1    0    0  501  502 -0.00000000000E+00 -0.00000000000E+00 -0.32791991014E+03  0.32791991014E+03  0.00000000000E+00 0.  1.
      99926    2    1    2    0    0 -0.71054273576E-14  0.00000000000E+00 -0.18848042210E+03  0.46735939819E+03  0.42766802261E+03 0.  0.
      99925    2    3    3    0    0  0.62826793987E+02  0.19720456818E+02 -0.63647041598E+02  0.27876728954E+03  0.26329480313E+03 0.  0.
         25    1    3    3    0    0 -0.62826793987E+02 -0.19720456818E+02 -0.12483338050E+03  0.18859210865E+03  0.12509000000E+03 0.  0.
         25    1    4    4    0    0  0.33024325764E+01 -0.21126190993E+02 -0.32995246533E+02  0.13112366835E+03  0.12509000000E+03 0.  0.
         25    1    4    4    0    0  0.59524361410E+02  0.40846647811E+02 -0.30651795065E+02  0.14764362119E+03  0.12509000000E+03 0.  0.
<mgrwt>
<rscale>  2 0.42766802E+03</rscale>
<asrwt>0</asrwt>
<pdfrwt beam="1">  1       21 0.20505807E-01 0.42766802E+03</pdfrwt>
<pdfrwt beam="2">  1       21 0.48223515E-01 0.42766802E+03</pdfrwt>
<totfact> 0.84536962E+04</totfact>
</mgrwt>
</event>
<event>
 7    0  0.4752811E-002  0.4321338E+03  0.7546771E-02  0.1033188E+00
         21   -1    0    0  502  501  0.00000000000E+00  0.00000000000E+00  0.78712266674E+03  0.78712266674E+03  0.00000000000E+00 0.  1.
         21   -1    0    0  501  502 -0.00000000000E+00 -0.00000000000E+00 -0.59310829887E+02  0.59310829887E+02  0.00000000000E+00 0.  1.
      99926    2    1    2    0    0  0.00000000000E+00  0.88817841970E-15  0.72781183685E+03  0.84643349663E+03  0.43213376904E+03 0.  0.
      99925    2    3    3    0    0 -0.85210243079E+02 -0.71738926079E+01  0.41652359427E+03  0.50022528134E+03  0.26347898825E+03 0.  0.
         25    1    4    4    0    0 -0.17305389921E+02 -0.16220771075E+02  0.14099351274E+03  0.18997175756E+03  0.12509000000E+03 0.  0.
         25    1    3    3    0    0  0.85210243079E+02  0.71738926079E+01  0.31128824258E+03  0.34620821528E+03  0.12509000000E+03 0.  0.
         25    1    4    4    0    0 -0.67904853158E+02  0.90468784667E+01  0.27553008153E+03  0.31025352379E+03  0.12509000000E+03 0.  0.
<mgrwt>
<rscale>  2 0.43213377E+03</rscale>
<asrwt>0</asrwt>
<pdfrwt beam="1">  1       21 0.11575333E+00 0.43213377E+03</pdfrwt>
<pdfrwt beam="2">  1       21 0.87221813E-02 0.43213377E+03</pdfrwt>
<totfact> 0.54783692E+04</totfact>
</mgrwt>
</event>
<event>
 7    0  0.4752811E-002  0.4492077E+03  0.7546771E-02  0.1027959E+00
         21   -1    0    0  502  501  0.00000000000E+00  0.00000000000E+00  0.57745671344E+03  0.57745671344E+03  0.00000000000E+00 0. -1.
         21   -1    0    0  501  502 -0.00000000000E+00 -0.00000000000E+00 -0.87360455858E+02  0.87360455858E+02  0.00000000000E+00 0. -1.
      99926    2    1    2    0    0 -0.35527136788E-14  0.14210854715E-13  0.49009625758E+03  0.66481716930E+03  0.44920766567E+03 0.  0.
      99925    2    3    3    0    0 -0.14687438705E+02  0.94633552850E+02  0.38263900369E+03  0.47411897923E+03  0.26306837351E+03 0.  0.
         25    1    4    4    0    0 -0.18926305320E+02  0.77103839837E+02  0.25217676031E+03  0.29247877477E+03  0.12509000000E+03 0.  0.
         25    1    4    4    0    0  0.42388666153E+01  0.17529713014E+02  0.13046224338E+03  0.18164020446E+03  0.12509000000E+03 0.  0.
         25    1    3    3    0    0  0.14687438705E+02 -0.94633552850E+02  0.10745725389E+03  0.19069819007E+03  0.12509000000E+03 0.  0.
<mgrwt>
<rscale>  2 0.44920767E+03</rscale>
<asrwt>0</asrwt>
<pdfrwt beam="1">  1       21 0.84920103E-01 0.44920767E+03</pdfrwt>
<pdfrwt beam="2">  1       21 0.12847126E-01 0.44920767E+03</pdfrwt>
<totfact> 0.57432696E+04</totfact>
</mgrwt>
</event>
<event>
 7    0  0.4752811E-002  0.4667142E+03  0.7546771E-02  0.1022852E+00
         21   -1    0    0  502  501  0.00000000000E+00  0.00000000000E+00  0.22434851522E+03  0.22434851522E+03  0.00000000000E+00 0.  1.
         21   -1    0    0  501  502 -0.00000000000E+00 -0.00000000000E+00 -0.24272739414E+03  0.24272739414E+03  0.00000000000E+00 0.  1.
      99926    2    1    2    0    0  0.00000000000E+00  0.00000000000E+00 -0.18378878924E+02  0.46707590936E+03  0.46671417582E+03 0.  0.
      99925    2    3    3    0    0  0.81328900522E+02  0.15558275615E+02 -0.10359272583E+03  0.29454951194E+03  0.26300477589E+03 0.  0.
         25    1    4    4    0    0  0.43024763190E+02  0.88908704955E+01 -0.95330832327E+02  0.16329621403E+03  0.12509000000E+03 0.  0.
         25    1    3    3    0    0 -0.81328900522E+02 -0.15558275615E+02  0.85213846910E+02  0.17252639742E+03  0.12509000000E+03 0.  0.
         25    1    4    4    0    0  0.38304137332E+02  0.66674051196E+01 -0.82618935077E+01  0.13125329791E+03  0.12509000000E+03 0.  0.
<mgrwt>
<rscale>  2 0.46671418E+03</rscale>
<asrwt>0</asrwt>
<pdfrwt beam="1">  1       21 0.32992429E-01 0.46671418E+03</pdfrwt>
<pdfrwt beam="2">  1       21 0.35695205E-01 0.46671418E+03</pdfrwt>
<totfact> 0.61698500E+04</totfact>
</mgrwt>
</event>
<event>
 7    0  0.4752811E-002  0.4604690E+03  0.7546771E-02  0.1024645E+00
         21   -1    0    0  502  501  0.00000000000E+00  0.00000000000E+00  0.44852755094E+03  0.44852755094E+03  0.00000000000E+00 0. -1.
         21   -1    0    0  501  502 -0.00000000000E+00 -0.00000000000E+00 -0.11818210710E+03  0.11818210710E+03  0.00000000000E+00 0. -1.
      99926    2    1    2    0    0  0.00000000000E+00  0.00000000000E+00  0.33034544384E+03  0.56670965804E+03  0.46046902638E+03 0.  0.
      99925    2    3    3    0    0  0.59542200302E+02 -0.10180932137E+03  0.19906134640E+03  0.35039175801E+03  0.26313219666E+03 0.  0.
         25    1    3    3    0    0 -0.59542200302E+02  0.10180932137E+03  0.13128409744E+03  0.21631790003E+03  0.12509000000E+03 0.  0.
         25    1    4    4    0    0  0.65234073745E+02 -0.76480078571E+02  0.11594788708E+03  0.19798006823E+03  0.12509000000E+03 0.  0.
         25    1    4    4    0    0 -0.56918734432E+01 -0.25329242797E+02  0.83113459313E+02  0.15241168978E+03  0.12509000000E+03 0.  0.
<mgrwt>
<rscale>  2 0.46046903E+03</rscale>
<asrwt>0</asrwt>
<pdfrwt beam="1">  1       21 0.65959934E-01 0.46046903E+03</pdfrwt>
<pdfrwt beam="2">  1       21 0.17379722E-01 0.46046903E+03</pdfrwt>
<totfact> 0.58216478E+04</totfact>
</mgrwt>
</event>
<event>
 7    0  0.4752811E-002  0.4381310E+03  0.7546771E-02  0.1031322E+00
         21   -1    0    0  502  501  0.00000000000E+00  0.00000000000E+00  0.47384978664E+03  0.47384978664E+03  0.00000000000E+00 0. -1.
         21   -1    0    0  501  502 -0.00000000000E+00 -0.00000000000E+00 -0.10127616472E+03  0.10127616472E+03  0.00000000000E+00 0. -1.
      99926    2    1    2    0    0  0.00000000000E+00  0.00000000000E+00  0.37257362192E+03  0.57512595136E+03  0.43813098062E+03 0.  0.
      99925    2    3    3    0    0  0.49899415821E+02 -0.35793667689E+02  0.33594332822E+03  0.43104116777E+03  0.26299701556E+03 0.  0.
         25    1    4    4    0    0  0.58640799729E+02  0.48537349091E+00  0.19443415844E+03  0.23851861363E+03  0.12509000000E+03 0.  0.
         25    1    3    3    0    0 -0.49899415821E+02  0.35793667689E+02  0.36630293701E+02  0.14408478359E+03  0.12509000000E+03 0.  0.
         25    1    4    4    0    0 -0.87413839083E+01 -0.36279041180E+02  0.14150916978E+03  0.19252255414E+03  0.12509000000E+03 0.  0.
<mgrwt>
<rscale>  2 0.43813098E+03</rscale>
<asrwt>0</asrwt>
<pdfrwt beam="1">  1       21 0.69683791E-01 0.43813098E+03</pdfrwt>
<pdfrwt beam="2">  1       21 0.14893554E-01 0.43813098E+03</pdfrwt>
<totfact> 0.68986842E+04</totfact>
</mgrwt>
</event>
<event>
 7    0  0.4752811E-002  0.4467839E+03  0.7546771E-02  0.1028685E+00
         21   -1    0    0  502  501  0.00000000000E+00  0.00000000000E+00  0.55977880654E+03  0.55977880654E+03  0.00000000000E+00 0.  1.
         21   -1    0    0  501  502 -0.00000000000E+00 -0.00000000000E+00 -0.89149414036E+02  0.89149414036E+02  0.00000000000E+00 0.  1.
      99926    2    1    2    0    0  0.35527136788E-14 -0.14210854715E-13  0.47062939250E+03  0.64892822057E+03  0.44678385196E+03 0.  0.
      99925    2    3    3    0    0  0.31115667064E+02 -0.10002862825E+03  0.28235618978E+03  0.39979328090E+03  0.26293675729E+03 0.  0.
         25    1    4    4    0    0 -0.99698807195E+01 -0.21045475203E+02  0.15326353486E+03  0.19919721325E+03  0.12509000000E+03 0.  0.
         25    1    4    4    0    0  0.41085547783E+02 -0.78983153043E+02  0.12909265492E+03  0.20059606765E+03  0.12509000000E+03 0.  0.
         25    1    3    3    0    0 -0.31115667064E+02  0.10002862825E+03  0.18827320272E+03  0.24913493968E+03  0.12509000000E+03 0.  0.
<mgrwt>
<rscale>  2 0.44678385E+03</rscale>
<asrwt>0</asrwt>
<pdfrwt beam="1">  1       21 0.82320411E-01 0.44678385E+03</pdfrwt>
<pdfrwt beam="2">  1       21 0.13110208E-01 0.44678385E+03</pdfrwt>
<totfact> 0.59528799E+04</totfact>
</mgrwt>
</event>
<event>
 7    0  0.4752811E-002  0.4577751E+03  0.7546771E-02  0.1025428E+00
         21   -1    0    0  502  501  0.00000000000E+00  0.00000000000E+00  0.36128722518E+03  0.36128722518E+03  0.00000000000E+00 0. -1.
         21   -1    0    0  501  502 -0.00000000000E+00 -0.00000000000E+00 -0.14500795211E+03  0.14500795211E+03  0.00000000000E+00 0. -1.
      99926    2    1    2    0    0  0.00000000000E+00  0.00000000000E+00  0.21627927307E+03  0.50629517729E+03  0.45777514413E+03 0.  0.
      99925    2    3    3    0    0 -0.20414125859E+02  0.11353359975E+03  0.12484404963E+03  0.31312550319E+03  0.26297324809E+03 0.  0.
         25    1    4    4    0    0  0.62998400833E+01  0.80540820661E+02  0.98183303429E+02  0.17836474133E+03  0.12509000000E+03 0.  0.
         25    1    3    3    0    0  0.20414125859E+02 -0.11353359975E+03  0.91435223440E+02  0.19316967410E+03  0.12509000000E+03 0.  0.
         25    1    4    4    0    0 -0.26713965943E+02  0.32992779090E+02  0.26660746204E+02  0.13476076186E+03  0.12509000000E+03 0.  0.
<mgrwt>
<rscale>  2 0.45777514E+03</rscale>
<asrwt>0</asrwt>
<pdfrwt beam="1">  1       21 0.53130474E-01 0.45777514E+03</pdfrwt>
<pdfrwt beam="2">  1       21 0.21324699E-01 0.45777514E+03</pdfrwt>
<totfact> 0.63422062E+04</totfact>
</mgrwt>
</event>
<event>
 7    0  0.4752811E-002  0.4612426E+03  0.7546771E-02  0.1024421E+00
         21   -1    0    0  502  501  0.00000000000E+00  0.00000000000E+00  0.61529514521E+02  0.61529514521E+02  0.00000000000E+00 0. -1.
         21   -1    0    0  501  502 -0.00000000000E+00 -0.00000000000E+00 -0.86440105720E+03  0.86440105720E+03  0.00000000000E+00 0. -1.
      99926    2    1    2    0    0  0.71054273576E-14  0.71054273576E-14 -0.80287154268E+03  0.92593057172E+03  0.46124257133E+03 0.  0.
      99925    2    3    3    0    0 -0.57355253350E+02 -0.54483700498E+02 -0.32419835911E+03  0.42489801442E+03  0.26301263829E+03 0.  0.
         25    1    4    4    0    0 -0.82141410098E+01 -0.12513604789E+02 -0.20403346300E+03  0.23979412950E+03  0.12509000000E+03 0.  0.
         25    1    4    4    0    0 -0.49141112340E+02 -0.41970095710E+02 -0.12016489610E+03  0.18510388492E+03  0.12509000000E+03 0.  0.
         25    1    3    3    0    0  0.57355253350E+02  0.54483700498E+02 -0.47867318357E+03  0.50103255730E+03  0.12509000000E+03 0.  0.
<mgrwt>
<rscale>  2 0.46124257E+03</rscale>
<asrwt>0</asrwt>
<pdfrwt beam="1">  1       21 0.90484581E-02 0.46124257E+03</pdfrwt>
<pdfrwt beam="2">  1       21 0.12711780E+00 0.46124257E+03</pdfrwt>
<totfact> 0.40134560E+04</totfact>
</mgrwt>
</event>
<event>
 7    0  0.4752811E-002  0.4508185E+03  0.7546771E-02  0.1027478E+00
         21   -1    0    0  502  501  0.00000000000E+00  0.00000000000E+00  0.27223291563E+04  0.27223291563E+04  0.00000000000E+00 0.  1.
         21   -1    0    0  501  502 -0.00000000000E+00 -0.00000000000E+00 -0.18663915553E+02  0.18663915553E+02  0.00000000000E+00 0.  1.
      99926    2    1    2    0    0  0.00000000000E+00  0.00000000000E+00  0.27036652407E+04  0.27409930718E+04  0.45081846227E+03 0.  0.
      99925    2    3    3    0    0  0.92410885478E+02  0.12086800355E+02  0.20538604008E+04  0.20727268819E+04  0.26299870444E+03 0.  0.
         25    1    4    4    0    0  0.84145104522E+02  0.20340414974E+02  0.10258279390E+04  0.10370460933E+04  0.12509000000E+03 0.  0.
         25    1    4    4    0    0  0.82657809563E+01 -0.82536146189E+01  0.10280324618E+04  0.10356807886E+04  0.12509000000E+03 0.  0.
         25    1    3    3    0    0 -0.92410885478E+02 -0.12086800355E+02  0.64980483995E+03  0.66826618995E+03  0.12509000000E+03 0.  0.
<mgrwt>
<rscale>  2 0.45081846E+03</rscale>
<asrwt>0</asrwt>
<pdfrwt beam="1">  1       21 0.40034225E+00 0.45081846E+03</pdfrwt>
<pdfrwt beam="2">  1       21 0.27446953E-02 0.45081846E+03</pdfrwt>
<totfact> 0.51319866E+03</totfact>
</mgrwt>
</event>
<event>
 7    0  0.4752811E-002  0.4464945E+03  0.7546771E-02  0.1028773E+00
         21   -1    0    0  502  501  0.00000000000E+00  0.00000000000E+00  0.16677523692E+03  0.16677523692E+03  0.00000000000E+00 0. -1.
         21   -1    0    0  501  502 -0.00000000000E+00 -0.00000000000E+00 -0.29884128580E+03  0.29884128580E+03  0.00000000000E+00 0. -1.
      99926    2    1    2    0    0  0.54817261841E-15  0.35527136788E-14 -0.13206604888E+03  0.46561652271E+03  0.44649446240E+03 0.  0.
      99925    2    3    3    0    0 -0.47639111636E-01 -0.57949968003E+01  0.25530633539E+02  0.26432616858E+03  0.26302647375E+03 0.  0.
         25    1    4    4    0    0 -0.95934136967E+01 -0.36269925473E+02 -0.83208379115E+01  0.13085979338E+03  0.12509000000E+03 0.  0.
         25    1    4    4    0    0  0.95457745850E+01  0.30474928673E+02  0.33851471451E+02  0.13346637520E+03  0.12509000000E+03 0.  0.
         25    1    3    3    0    0  0.47639111636E-01  0.57949968003E+01 -0.15759668242E+03  0.20129035413E+03  0.12509000000E+03 0.  0.
<mgrwt>
<rscale>  2 0.44649446E+03</rscale>
<asrwt>0</asrwt>
<pdfrwt beam="1">  1       21 0.24525771E-01 0.44649446E+03</pdfrwt>
<pdfrwt beam="2">  1       21 0.43947247E-01 0.44649446E+03</pdfrwt>
<totfact> 0.72535675E+04</totfact>
</mgrwt>
</event>
<event>
 7    0  0.4752811E-002  0.4691202E+03  0.7546771E-02  0.1022169E+00
         21   -1    0    0  502  501  0.00000000000E+00  0.00000000000E+00  0.90667435399E+03  0.90667435399E+03  0.00000000000E+00 0. -1.
         21   -1    0    0  501  502 -0.00000000000E+00 -0.00000000000E+00 -0.60681578635E+02  0.60681578635E+02  0.00000000000E+00 0. -1.
      99926    2    1    2    0    0  0.00000000000E+00  0.00000000000E+00  0.84599277535E+03  0.96735593262E+03  0.46912015991E+03 0.  0.
      99925    2    3    3    0    0 -0.10761710669E+03 -0.58993218234E+02  0.46736847479E+03  0.55014434299E+03  0.26299023830E+03 0.  0.
         25    1    3    3    0    0  0.10761710669E+03  0.58993218234E+02  0.37862430056E+03  0.41721158963E+03  0.12509000000E+03 0.  0.
         25    1    4    4    0    0 -0.87625969164E+02 -0.42181261290E+02  0.21287260406E+03  0.26536733585E+03  0.12509000000E+03 0.  0.
         25    1    4    4    0    0 -0.19991137528E+02 -0.16811956943E+02  0.25449587073E+03  0.28477700714E+03  0.12509000000E+03 0.  0.
<mgrwt>
<rscale>  2 0.46912016E+03</rscale>
<asrwt>0</asrwt>
<pdfrwt beam="1">  1       21 0.13333446E+00 0.46912016E+03</pdfrwt>
<pdfrwt beam="2">  1       21 0.89237621E-02 0.46912016E+03</pdfrwt>
<totfact> 0.36272690E+04</totfact>
</mgrwt>
</event>
<event>
 7    0  0.4752811E-002  0.4539534E+03  0.7546771E-02  0.1026550E+00
         21   -1    0    0  502  501  0.00000000000E+00  0.00000000000E+00  0.18868035462E+03  0.18868035462E+03  0.00000000000E+00 0. -1.
         21   -1    0    0  501  502 -0.00000000000E+00 -0.00000000000E+00 -0.27304597503E+03  0.27304597503E+03  0.00000000000E+00 0. -1.
      99926    2    1    2    0    0  0.00000000000E+00  0.00000000000E+00 -0.84365620419E+02  0.46172632965E+03  0.45395335177E+03 0.  0.
      99925    2    3    3    0    0 -0.63468122441E+02 -0.13475754935E+02  0.41396066040E+02  0.27285254000E+03  0.26177294696E+03 0.  0.
         25    1    4    4    0    0 -0.69723870460E+02  0.35192460686E+01  0.24541861872E+02  0.14533965147E+03  0.12509000000E+03 0.  0.
         25    1    4    4    0    0  0.62557480195E+01 -0.16995001004E+02  0.16854204169E+02  0.12751288853E+03  0.12509000000E+03 0.  0.
         25    1    3    3    0    0  0.63468122441E+02  0.13475754935E+02 -0.12576168646E+03  0.18887378965E+03  0.12509000000E+03 0.  0.
<mgrwt>
<rscale>  2 0.45395335E+03</rscale>
<asrwt>0</asrwt>
<pdfrwt beam="1">  1       21 0.27747111E-01 0.45395335E+03</pdfrwt>
<pdfrwt beam="2">  1       21 0.40153820E-01 0.45395335E+03</pdfrwt>
<totfact> 0.68623029E+04</totfact>
</mgrwt>
</event>
<event>
 7    0  0.4752811E-002  0.4727228E+03  0.7546771E-02  0.1021155E+00
         21   -1    0    0  502  501  0.00000000000E+00  0.00000000000E+00  0.38567336004E+03  0.38567336004E+03  0.00000000000E+00 0. -1.
         21   -1    0    0  501  502 -0.00000000000E+00 -0.00000000000E+00 -0.14485498932E+03  0.14485498932E+03  0.00000000000E+00 0. -1.
      99926    2    1    2    0    0 -0.14210854715E-13  0.17763568394E-14  0.24081837072E+03  0.53052834936E+03  0.47272279594E+03 0.  0.
      99925    2    3    3    0    0  0.10164826683E+03  0.14028941791E+02  0.23729710027E+03  0.36869791711E+03  0.26286699856E+03 0.  0.
         25    1    3    3    0    0 -0.10164826683E+03 -0.14028941791E+02  0.35212704551E+01  0.16183043225E+03  0.12509000000E+03 0.  0.
         25    1    4    4    0    0  0.18047453876E+02 -0.62868112191E+01  0.13828542455E+03  0.18744492879E+03  0.12509000000E+03 0.  0.
         25    1    4    4    0    0  0.83600812952E+02  0.20315753010E+02  0.99011675717E+02  0.18125298832E+03  0.12509000000E+03 0.  0.
<mgrwt>
<rscale>  2 0.47272280E+03</rscale>
<asrwt>0</asrwt>
<pdfrwt beam="1">  1       21 0.56716670E-01 0.47272280E+03</pdfrwt>
<pdfrwt beam="2">  1       21 0.21302204E-01 0.47272280E+03</pdfrwt>
<totfact> 0.55022173E+04</totfact>
</mgrwt>
</event>
<event>
 7    0  0.4752811E-002  0.4244093E+03  0.7546771E-02  0.1035641E+00
         21   -1    0    0  502  501  0.00000000000E+00  0.00000000000E+00  0.32825321639E+03  0.32825321639E+03  0.00000000000E+00 0.  1.
         21   -1    0    0  501  502 -0.00000000000E+00 -0.00000000000E+00 -0.13718313864E+03  0.13718313864E+03  0.00000000000E+00 0.  1.
      99926    2    1    2    0    0  0.00000000000E+00 -0.14210854715E-13  0.19107007775E+03  0.46543635503E+03  0.42440926707E+03 0.  0.
      99925    2    3    3    0    0  0.23090600948E+02 -0.72577519487E+02  0.92564083337E+02  0.28893816461E+03  0.26290013552E+03 0.  0.
         25    1    4    4    0    0 -0.14054556894E+02 -0.44736224738E+02  0.14553909154E+02  0.13438074544E+03  0.12509000000E+03 0.  0.
         25    1    4    4    0    0  0.37145157842E+02 -0.27841294749E+02  0.78010174184E+02  0.15455741917E+03  0.12509000000E+03 0.  0.
         25    1    3    3    0    0 -0.23090600948E+02  0.72577519487E+02  0.98505994411E+02  0.17649819042E+03  0.12509000000E+03 0.  0.
<mgrwt>
<rscale>  2 0.42440927E+03</rscale>
<asrwt>0</asrwt>
<pdfrwt beam="1">  1       21 0.48272532E-01 0.42440927E+03</pdfrwt>
<pdfrwt beam="2">  1       21 0.20173991E-01 0.42440927E+03</pdfrwt>
<totfact> 0.87074985E+04</totfact>
</mgrwt>
</event>
<event>
 7    0  0.4752811E-002  0.4547219E+03  0.7546771E-02  0.1026323E+00
         21   -1    0    0  502  501  0.00000000000E+00  0.00000000000E+00  0.82337141849E+02  0.82337141849E+02  0.00000000000E+00 0.  1.
         21   -1    0    0  501  502 -0.00000000000E+00 -0.00000000000E+00 -0.62782130633E+03  0.62782130633E+03  0.00000000000E+00 0.  1.
      99926    2    1    2    0    0  0.00000000000E+00 -0.71054273576E-14 -0.54548416448E+03  0.71015844818E+03  0.45472194561E+03 0.  0.
      99925    2    3    3    0    0 -0.58618285944E+02 -0.36782423056E+02 -0.48297173621E+03  0.55413164958E+03  0.26269970878E+03 0.  0.
         25    1    4    4    0    0 -0.25204331962E+02 -0.58472596667E+02 -0.24631377515E+03  0.28350006497E+03  0.12509000000E+03 0.  0.
         25    1    4    4    0    0 -0.33413953982E+02  0.21690173611E+02 -0.23665796106E+03  0.27063158461E+03  0.12509000000E+03 0.  0.
         25    1    3    3    0    0  0.58618285944E+02  0.36782423056E+02 -0.62512428266E+02  0.15602679860E+03  0.12509000000E+03 0.  0.
<mgrwt>
<rscale>  2 0.45472195E+03</rscale>
<asrwt>0</asrwt>
<pdfrwt beam="1">  1       21 0.12108404E-01 0.45472195E+03</pdfrwt>
<pdfrwt beam="2">  1       21 0.92326660E-01 0.45472195E+03</pdfrwt>
<totfact> 0.52469589E+04</totfact>
</mgrwt>
</event>
<event>
 7    0  0.4752811E-002  0.4358084E+03  0.7546771E-02  0.1032041E+00
         21   -1    0    0  502  501  0.00000000000E+00  0.00000000000E+00  0.48070769605E+02  0.48070769605E+02  0.00000000000E+00 0.  1.
         21   -1    0    0  501  502 -0.00000000000E+00 -0.00000000000E+00 -0.98775705009E+03  0.98775705009E+03  0.00000000000E+00 0.  1.
      99926    2    1    2    0    0  0.00000000000E+00  0.88817841970E-15 -0.93968628049E+03  0.10358278197E+04  0.43580840552E+03 0.  0.
      99925    2    3    3    0    0 -0.38795093750E+02  0.63609905643E+01 -0.80504010207E+03  0.84788468212E+03  0.26319830306E+03 0.  0.
         25    1    3    3    0    0  0.38795093750E+02 -0.63609905643E+01 -0.13464617842E+03  0.18794313758E+03  0.12509000000E+03 0.  0.
         25    1    4    4    0    0  0.89007285647E+01  0.18530047908E+02 -0.31001019440E+03  0.33492747629E+03  0.12509000000E+03 0.  0.
         25    1    4    4    0    0 -0.47695822315E+02 -0.12169057343E+02 -0.49502990767E+03  0.51295720583E+03  0.12509000000E+03 0.  0.
<mgrwt>
<rscale>  2 0.43580841E+03</rscale>
<asrwt>0</asrwt>
<pdfrwt beam="1">  1       21 0.70692314E-02 0.43580841E+03</pdfrwt>
<pdfrwt beam="2">  1       21 0.14525838E+00 0.43580841E+03</pdfrwt>
<totfact> 0.44038713E+04</totfact>
</mgrwt>
</event>
<event>
 7    0  0.4752811E-002  0.4535442E+03  0.7546771E-02  0.1026670E+00
         21   -1    0    0  502  501  0.00000000000E+00  0.00000000000E+00  0.98418222970E+02  0.98418222970E+02  0.00000000000E+00 0. -1.
         21   -1    0    0  501  502 -0.00000000000E+00 -0.00000000000E+00 -0.52252087282E+03  0.52252087282E+03  0.00000000000E+00 0. -1.
      99926    2    1    2    0    0  0.26645352591E-14  0.00000000000E+00 -0.42410264985E+03  0.62093909579E+03  0.45354415779E+03 0.  0.
      99925    2    3    3    0    0  0.43640993912E+01  0.42237648881E+02 -0.40866363695E+03  0.48793933802E+03  0.26320289716E+03 0.  0.
         25    1    3    3    0    0 -0.43640993912E+01 -0.42237648881E+02 -0.15439012895E+02  0.13299975777E+03  0.12509000000E+03 0.  0.
         25    1    4    4    0    0  0.38021670394E+02  0.70879594016E+01 -0.22723419485E+03  0.26225707617E+03  0.12509000000E+03 0.  0.
         25    1    4    4    0    0 -0.33657571003E+02  0.35149689479E+02 -0.18142944210E+03  0.22568226186E+03  0.12509000000E+03 0.  0.
<mgrwt>
<rscale>  2 0.45354416E+03</rscale>
<asrwt>0</asrwt>
<pdfrwt beam="1">  1       21 0.14473268E-01 0.45354416E+03</pdfrwt>
<pdfrwt beam="2">  1       21 0.76841304E-01 0.45354416E+03</pdfrwt>
<totfact> 0.58072280E+04</totfact>
</mgrwt>
</event>
<event>
 7    0  0.4752811E-002  0.4607414E+03  0.7546771E-02  0.1024566E+00
         21   -1    0    0  502  501  0.00000000000E+00  0.00000000000E+00  0.23387146151E+03  0.23387146151E+03  0.00000000000E+00 0.  1.
         21   -1    0    0  501  502 -0.00000000000E+00 -0.00000000000E+00 -0.22692234262E+03  0.22692234262E+03  0.00000000000E+00 0.  1.
      99926    2    1    2    0    0  0.35527136788E-14  0.00000000000E+00  0.69491188909E+01  0.46079380414E+03  0.46074140218E+03 0.  0.
      99925    2    3    3    0    0  0.31676817529E+02  0.11300695539E+03 -0.11628511667E+02  0.28826372214E+03  0.26303375921E+03 0.  0.
         25    1    4    4    0    0  0.16657827413E+02  0.93728647245E+02  0.15490575073E+02  0.15795571704E+03  0.12509000000E+03 0.  0.
         25    1    4    4    0    0  0.15018990116E+02  0.19278308148E+02 -0.27119086740E+02  0.13030800511E+03  0.12509000000E+03 0.  0.
         25    1    3    3    0    0 -0.31676817529E+02 -0.11300695539E+03  0.18577630558E+02  0.17253008200E+03  0.12509000000E+03 0.  0.
<mgrwt>
<rscale>  2 0.46074140E+03</rscale>
<asrwt>0</asrwt>
<pdfrwt beam="1">  1       21 0.34392862E-01 0.46074140E+03</pdfrwt>
<pdfrwt beam="2">  1       21 0.33370932E-01 0.46074140E+03</pdfrwt>
<totfact> 0.65090112E+04</totfact>
</mgrwt>
</event>
<event>
 7    0  0.4752811E-002  0.4563162E+03  0.7546771E-02  0.1025855E+00
         21   -1    0    0  502  501  0.00000000000E+00  0.00000000000E+00  0.57203646026E+02  0.57203646026E+02  0.00000000000E+00 0.  1.
         21   -1    0    0  501  502 -0.00000000000E+00 -0.00000000000E+00 -0.91001390202E+03  0.91001390202E+03  0.00000000000E+00 0.  1.
      99926    2    1    2    0    0  0.35527136788E-14  0.00000000000E+00 -0.85281025600E+03  0.96721754805E+03  0.45631617604E+03 0.  0.
      99925    2    3    3    0    0 -0.30161539281E+02 -0.93672100547E+02 -0.41220125458E+03  0.49874344940E+03  0.26296572623E+03 0.  0.
         25    1    3    3    0    0  0.30161539281E+02  0.93672100547E+02 -0.44060900142E+03  0.46847409865E+03  0.12509000000E+03 0.  0.
         25    1    4    4    0    0 -0.55162373601E+02 -0.44316750781E+02 -0.20004356595E+03  0.24631645954E+03  0.12509000000E+03 0.  0.
         25    1    4    4    0    0  0.25000834321E+02 -0.49355349766E+02 -0.21215768863E+03  0.25242698987E+03  0.12509000000E+03 0.  0.
<mgrwt>
<rscale>  2 0.45631618E+03</rscale>
<asrwt>0</asrwt>
<pdfrwt beam="1">  1       21 0.84123014E-02 0.45631618E+03</pdfrwt>
<pdfrwt beam="2">  1       21 0.13382557E+00 0.45631618E+03</pdfrwt>
<totfact> 0.40037811E+04</totfact>
</mgrwt>
</event>
<event>
 7    0  0.4752811E-002  0.4521666E+03  0.7546771E-02  0.1027078E+00
         21   -1    0    0  502  501  0.00000000000E+00  0.00000000000E+00  0.44370112078E+02  0.44370112078E+02  0.00000000000E+00 0. -1.
         21   -1    0    0  501  502 -0.00000000000E+00 -0.00000000000E+00 -0.11519839733E+04  0.11519839733E+04  0.00000000000E+00 0. -1.
      99926    2    1    2    0    0 -0.35527136788E-14  0.17763568394E-14 -0.11076138613E+04  0.11963540854E+04  0.45216659766E+03 0.  0.
      99925    2    3    3    0    0 -0.21772722687E+02 -0.15436523869E+02 -0.98248864358E+03  0.10174234678E+04  0.26297193832E+03 0.  0.
         25    1    4    4    0    0 -0.35730057426E+02  0.63971249214E+01 -0.60641889930E+03  0.62024910298E+03  0.12509000000E+03 0.  0.
         25    1    3    3    0    0  0.21772722687E+02  0.15436523869E+02 -0.12512521769E+03  0.17893061763E+03  0.12509000000E+03 0.  0.
         25    1    4    4    0    0  0.13957334739E+02 -0.21833648791E+02 -0.37606974427E+03  0.39717436482E+03  0.12509000000E+03 0.  0.
<mgrwt>
<rscale>  2 0.45216660E+03</rscale>
<asrwt>0</asrwt>
<pdfrwt beam="1">  1       21 0.65250169E-02 0.45216660E+03</pdfrwt>
<pdfrwt beam="2">  1       21 0.16940940E+00 0.45216660E+03</pdfrwt>
<totfact> 0.32993987E+04</totfact>
</mgrwt>
</event>
<event>
 7    0  0.4752811E-002  0.4526073E+03  0.7546771E-02  0.1026947E+00
         21   -1    0    0  502  501  0.00000000000E+00  0.00000000000E+00  0.24852641867E+03  0.24852641867E+03  0.00000000000E+00 0.  1.
         21   -1    0    0  501  502 -0.00000000000E+00 -0.00000000000E+00 -0.20606797481E+03  0.20606797481E+03  0.00000000000E+00 0.  1.
      99926    2    1    2    0    0 -0.14210854715E-13  0.00000000000E+00  0.42458443857E+02  0.45459439348E+03  0.45260727251E+03 0.  0.
      99925    2    3    3    0    0 -0.10040540511E+03 -0.33336530501E+02  0.60271960552E+02  0.28979937195E+03  0.26297984165E+03 0.  0.
         25    1    3    3    0    0  0.10040540511E+03  0.33336530501E+02 -0.17813516695E+02  0.16479502152E+03  0.12509000000E+03 0.  0.
         25    1    4    4    0    0 -0.81012908347E+02 -0.25262884569E+02  0.60876859670E+02  0.16295645062E+03  0.12509000000E+03 0.  0.
         25    1    4    4    0    0 -0.19392496767E+02 -0.80736459316E+01 -0.60489911896E+00  0.12684292133E+03  0.12509000000E+03 0.  0.
<mgrwt>
<rscale>  2 0.45260727E+03</rscale>
<asrwt>0</asrwt>
<pdfrwt beam="1">  1       21 0.36548003E-01 0.45260727E+03</pdfrwt>
<pdfrwt beam="2">  1       21 0.30304114E-01 0.45260727E+03</pdfrwt>
<totfact> 0.69900469E+04</totfact>
</mgrwt>
</event>
<event>
 7    0  0.4752811E-002  0.4531785E+03  0.7546771E-02  0.1026778E+00
         21   -1    0    0  502  501  0.00000000000E+00  0.00000000000E+00  0.47045087985E+03  0.47045087985E+03  0.00000000000E+00 0.  1.
         21   -1    0    0  501  502 -0.00000000000E+00 -0.00000000000E+00 -0.10913507364E+03  0.10913507364E+03  0.00000000000E+00 0.  1.
      99926    2    1    2    0    0  0.00000000000E+00  0.00000000000E+00  0.36131580621E+03  0.57958595348E+03  0.45317851412E+03 0.  0.
      99925    2    3    3    0    0  0.37531564595E+02 -0.81209591428E+02  0.31271628390E+03  0.41830037524E+03  0.26302112772E+03 0.  0.
         25    1    4    4    0    0 -0.11668112367E+02 -0.35182585211E+02  0.19046896482E+03  0.23086769763E+03  0.12509000000E+03 0.  0.
         25    1    4    4    0    0  0.49199676962E+02 -0.46027006217E+02  0.12224731908E+03  0.18743267761E+03  0.12509000000E+03 0.  0.
         25    1    3    3    0    0 -0.37531564595E+02  0.81209591428E+02  0.48599522309E+02  0.16128557824E+03  0.12509000000E+03 0.  0.
<mgrwt>
<rscale>  2 0.45317851E+03</rscale>
<asrwt>0</asrwt>
<pdfrwt beam="1">  1       21 0.69183952E-01 0.45317851E+03</pdfrwt>
<pdfrwt beam="2">  1       21 0.16049276E-01 0.45317851E+03</pdfrwt>
<totfact> 0.60823890E+04</totfact>
</mgrwt>
</event>
<event>
 7    0  0.4752811E-002  0.4569945E+03  0.7546771E-02  0.1025657E+00
         21   -1    0    0  502  501  0.00000000000E+00  0.00000000000E+00  0.39800713593E+03  0.39800713593E+03  0.00000000000E+00 0.  1.
         21   -1    0    0  501  502 -0.00000000000E+00 -0.00000000000E+00 -0.13118105325E+03  0.13118105325E+03  0.00000000000E+00 0.  1.
      99926    2    1    2    0    0  0.00000000000E+00  0.11102230246E-15  0.26682608267E+03  0.52918818918E+03  0.45699450891E+03 0.  0.
      99925    2    3    3    0    0  0.11495447586E+03  0.96637750070E-01  0.16386377712E+03  0.33053450730E+03  0.26303456466E+03 0.  0.
         25    1    4    4    0    0  0.49958774661E+02  0.66947240861E+01  0.12565900914E+03  0.18433229010E+03  0.12509000000E+03 0.  0.
         25    1    3    3    0    0 -0.11495447586E+03 -0.96637750070E-01  0.10296230555E+03  0.19865368188E+03  0.12509000000E+03 0.  0.
         25    1    4    4    0    0  0.64995701200E+02 -0.65980863360E+01  0.38204767987E+02  0.14620221720E+03  0.12509000000E+03 0.  0.
<mgrwt>
<rscale>  2 0.45699451E+03</rscale>
<asrwt>0</asrwt>
<pdfrwt beam="1">  1       21 0.58530461E-01 0.45699451E+03</pdfrwt>
<pdfrwt beam="2">  1       21 0.19291331E-01 0.45699451E+03</pdfrwt>
<totfact> 0.62271215E+04</totfact>
</mgrwt>
</event>
<event>
 7    0  0.4752811E-002  0.4519610E+03  0.7546771E-02  0.1027139E+00
         21   -1    0    0  502  501  0.00000000000E+00  0.00000000000E+00  0.10524018029E+03  0.10524018029E+03  0.00000000000E+00 0.  1.
         21   -1    0    0  501  502 -0.00000000000E+00 -0.00000000000E+00 -0.48524423314E+03  0.48524423314E+03  0.00000000000E+00 0.  1.
      99926    2    1    2    0    0  0.14210854715E-13  0.00000000000E+00 -0.38000405285E+03  0.59048441343E+03  0.45196101859E+03 0.  0.
      99925    2    3    3    0    0 -0.96607473896E+02 -0.47875153019E+02 -0.20971608283E+03  0.35327030103E+03  0.26304759247E+03 0.  0.
         25    1    4    4    0    0 -0.20349164095E+02 -0.44030687356E+02 -0.12822215477E+03  0.18558345557E+03  0.12509000000E+03 0.  0.
         25    1    4    4    0    0 -0.76258309801E+02 -0.38444656627E+01 -0.81493928059E+02  0.16768684546E+03  0.12509000000E+03 0.  0.
         25    1    3    3    0    0  0.96607473896E+02  0.47875153019E+02 -0.17028797002E+03  0.23721411240E+03  0.12509000000E+03 0.  0.
<mgrwt>
<rscale>  2 0.45196102E+03</rscale>
<asrwt>0</asrwt>
<pdfrwt beam="1">  1       21 0.15476497E-01 0.45196102E+03</pdfrwt>
<pdfrwt beam="2">  1       21 0.71359448E-01 0.45196102E+03</pdfrwt>
<totfact> 0.60712948E+04</totfact>
</mgrwt>
</event>
<event>
 7    0  0.4752811E-002  0.4519780E+03  0.7546771E-02  0.1027134E+00
         21   -1    0    0  502  501  0.00000000000E+00  0.00000000000E+00  0.39899103518E+03  0.39899103518E+03  0.00000000000E+00 0.  1.
         21   -1    0    0  501  502 -0.00000000000E+00 -0.00000000000E+00 -0.12800041313E+03  0.12800041313E+03  0.00000000000E+00 0.  1.
      99926    2    1    2    0    0  0.00000000000E+00  0.00000000000E+00  0.27099062205E+03  0.52699144831E+03  0.45197795229E+03 0.  0.
      99925    2    3    3    0    0  0.99506989563E+02  0.46236763352E+02  0.17681910573E+03  0.33579714441E+03  0.26354363356E+03 0.  0.
         25    1    4    4    0    0  0.79475779653E+02 -0.21260163719E+00  0.71057316827E+02  0.16435660962E+03  0.12509000000E+03 0.  0.
         25    1    3    3    0    0 -0.99506989563E+02 -0.46236763352E+02  0.94171516317E+02  0.19119430390E+03  0.12509000000E+03 0.  0.
         25    1    4    4    0    0  0.20031209910E+02  0.46449364990E+02  0.10576178890E+03  0.17144053479E+03  0.12509000000E+03 0.  0.
<mgrwt>
<rscale>  2 0.45197795E+03</rscale>
<asrwt>0</asrwt>
<pdfrwt beam="1">  1       21 0.58675152E-01 0.45197795E+03</pdfrwt>
<pdfrwt beam="2">  1       21 0.18823590E-01 0.45197795E+03</pdfrwt>
<totfact> 0.64952619E+04</totfact>
</mgrwt>
</event>
<event>
 7    0  0.4752811E-002  0.4645740E+03  0.7546771E-02  0.1023463E+00
         21   -1    0    0  502  501  0.00000000000E+00  0.00000000000E+00  0.10875762969E+04  0.10875762969E+04  0.00000000000E+00 0.  1.
         21   -1    0    0  501  502 -0.00000000000E+00 -0.00000000000E+00 -0.49612377100E+02  0.49612377100E+02  0.00000000000E+00 0.  1.
      99926    2    1    2    0    0  0.00000000000E+00  0.14210854715E-13  0.10379639198E+04  0.11371886740E+04  0.46457397847E+03 0.  0.
      99925    2    3    3    0    0 -0.65270496027E+02  0.10158122010E+03  0.61104083910E+03  0.67622250728E+03  0.26330019061E+03 0.  0.
         25    1    4    4    0    0 -0.50303222484E+02  0.79700202688E+02  0.39862386287E+03  0.42828848765E+03  0.12509000000E+03 0.  0.
         25    1    4    4    0    0 -0.14967273544E+02  0.21881017410E+02  0.21241697623E+03  0.24793401963E+03  0.12509000000E+03 0.  0.
         25    1    3    3    0    0  0.65270496027E+02 -0.10158122010E+03  0.42692308070E+03  0.46096616672E+03  0.12509000000E+03 0.  0.
<mgrwt>
<rscale>  2 0.46457398E+03</rscale>
<asrwt>0</asrwt>
<pdfrwt beam="1">  1       21 0.15993768E+00 0.46457398E+03</pdfrwt>
<pdfrwt beam="2">  1       21 0.72959385E-02 0.46457398E+03</pdfrwt>
<totfact> 0.31774706E+04</totfact>
</mgrwt>
</event>
<event>
 7    0  0.4752811E-002  0.4564288E+03  0.7546771E-02  0.1025822E+00
         21   -1    0    0  502  501  0.00000000000E+00  0.00000000000E+00  0.90334075877E+02  0.90334075877E+02  0.00000000000E+00 0.  1.
         21   -1    0    0  501  502 -0.00000000000E+00 -0.00000000000E+00 -0.57654670293E+03  0.57654670293E+03  0.00000000000E+00 0.  1.
      99926    2    1    2    0    0  0.00000000000E+00  0.17763568394E-14 -0.48621262705E+03  0.66688077880E+03  0.45642880544E+03 0.  0.
      99925    2    3    3    0    0  0.11242451119E+03  0.70176760605E+01 -0.27538679603E+03  0.39709649902E+03  0.26298141305E+03 0.  0.
         25    1    4    4    0    0  0.52909797579E+02  0.25063104070E+02 -0.89528717454E+02  0.16459193545E+03  0.12509000000E+03 0.  0.
         25    1    3    3    0    0 -0.11242451119E+03 -0.70176760605E+01 -0.21082583102E+03  0.26978427979E+03  0.12509000000E+03 0.  0.
         25    1    4    4    0    0  0.59514713615E+02 -0.18045428010E+02 -0.18585807858E+03  0.23250456357E+03  0.12509000000E+03 0.  0.
<mgrwt>
<rscale>  2 0.45642881E+03</rscale>
<asrwt>0</asrwt>
<pdfrwt beam="1">  1       21 0.13284423E-01 0.45642881E+03</pdfrwt>
<pdfrwt beam="2">  1       21 0.84786281E-01 0.45642881E+03</pdfrwt>
<totfact> 0.54125884E+04</totfact>
</mgrwt>
</event>
<event>
 7    0  0.4752811E-002  0.4460782E+03  0.7546771E-02  0.1028898E+00
         21   -1    0    0  502  501  0.00000000000E+00  0.00000000000E+00  0.15239397369E+04  0.15239397369E+04  0.00000000000E+00 0.  1.
         21   -1    0    0  501  502 -0.00000000000E+00 -0.00000000000E+00 -0.32643309906E+02  0.32643309906E+02  0.00000000000E+00 0.  1.
      99926    2    1    2    0    0  0.00000000000E+00  0.00000000000E+00  0.14912964270E+04  0.15565830468E+04  0.44607818646E+03 0.  0.
      99925    2    3    3    0    0  0.91901292262E+02  0.32571521855E+02  0.10781717358E+04  0.11140604258E+04  0.26300111944E+03 0.  0.
         25    1    3    3    0    0 -0.91901292262E+02 -0.32571521855E+02  0.41312469117E+03  0.44252262101E+03  0.12509000000E+03 0.  0.
         25    1    4    4    0    0  0.22736946151E+02  0.43500700153E+02  0.59994264458E+03  0.61480725802E+03  0.12509000000E+03 0.  0.
         25    1    4    4    0    0  0.69164346111E+02 -0.10929178298E+02  0.47822909122E+03  0.49925316774E+03  0.12509000000E+03 0.  0.
<mgrwt>
<rscale>  2 0.44607819E+03</rscale>
<asrwt>0</asrwt>
<pdfrwt beam="1">  1       21 0.22410874E+00 0.44607819E+03</pdfrwt>
<pdfrwt beam="2">  1       21 0.48004878E-02 0.44607819E+03</pdfrwt>
<totfact> 0.24049590E+04</totfact>
</mgrwt>
</event>
<event>
 7    0  0.4752811E-002  0.4508296E+03  0.7546771E-02  0.1027475E+00
         21   -1    0    0  502  501  0.00000000000E+00  0.00000000000E+00  0.67125390609E+03  0.67125390609E+03  0.00000000000E+00 0. -1.
         21   -1    0    0  501  502 -0.00000000000E+00 -0.00000000000E+00 -0.75696894780E+02  0.75696894780E+02  0.00000000000E+00 0. -1.
      99926    2    1    2    0    0  0.00000000000E+00  0.00000000000E+00  0.59555701131E+03  0.74695080087E+03  0.45082961881E+03 0.  0.
      99925    2    3    3    0    0 -0.75174480007E+02 -0.63986568521E+02  0.29827018327E+03  0.40964908190E+03  0.26287218316E+03 0.  0.
         25    1    4    4    0    0 -0.72552345792E+02 -0.25263872113E+02  0.18739596002E+03  0.23804802046E+03  0.12509000000E+03 0.  0.
         25    1    3    3    0    0  0.75174480007E+02  0.63986568521E+02  0.29728682804E+03  0.33730171897E+03  0.12509000000E+03 0.  0.
         25    1    4    4    0    0 -0.26221342141E+01 -0.38722696408E+02  0.11087422325E+03  0.17160106144E+03  0.12509000000E+03 0.  0.
<mgrwt>
<rscale>  2 0.45082962E+03</rscale>
<asrwt>0</asrwt>
<pdfrwt beam="1">  1       21 0.98713807E-01 0.45082962E+03</pdfrwt>
<pdfrwt beam="2">  1       21 0.11131897E-01 0.45082962E+03</pdfrwt>
<totfact> 0.52114227E+04</totfact>
</mgrwt>
</event>
<event>
 7    0  0.4752811E-002  0.4353956E+03  0.7546771E-02  0.1032169E+00
         21   -1    0    0  502  501  0.00000000000E+00  0.00000000000E+00  0.43219301672E+02  0.43219301672E+02  0.00000000000E+00 0. -1.
         21   -1    0    0  501  502 -0.00000000000E+00 -0.00000000000E+00 -0.10965549017E+04  0.10965549017E+04  0.00000000000E+00 0. -1.
      99926    2    1    2    0    0  0.35527136788E-14  0.00000000000E+00 -0.10533356000E+04  0.11397742034E+04  0.43539562284E+03 0.  0.
      99925    2    3    3    0    0  0.22698198728E+02 -0.66288457538E+02 -0.83792807612E+03  0.88101316055E+03  0.26296646265E+03 0.  0.
         25    1    4    4    0    0  0.48598066909E+02 -0.28090192471E+02 -0.37555511686E+03  0.39979993111E+03  0.12509000000E+03 0.  0.
         25    1    4    4    0    0 -0.25899868181E+02 -0.38198265066E+02 -0.46237295926E+03  0.48121322943E+03  0.12509000000E+03 0.  0.
         25    1    3    3    0    0 -0.22698198728E+02  0.66288457538E+02 -0.21540752392E+03  0.25876104283E+03  0.12509000000E+03 0.  0.
<mgrwt>
<rscale>  2 0.43539562E+03</rscale>
<asrwt>0</asrwt>
<pdfrwt beam="1">  1       21 0.63557793E-02 0.43539562E+03</pdfrwt>
<pdfrwt beam="2">  1       21 0.16125808E+00 0.43539562E+03</pdfrwt>
<totfact> 0.39879825E+04</totfact>
</mgrwt>
</event>
<event>
 7    0  0.4752811E-002  0.4585343E+03  0.7546771E-02  0.1025207E+00
         21   -1    0    0  502  501  0.00000000000E+00  0.00000000000E+00  0.26107268314E+03  0.26107268314E+03  0.00000000000E+00 0.  1.
         21   -1    0    0  501  502 -0.00000000000E+00 -0.00000000000E+00 -0.20133638090E+03  0.20133638090E+03  0.00000000000E+00 0.  1.
      99926    2    1    2    0    0  0.17763568394E-14  0.00000000000E+00  0.59736302243E+02  0.46240906404E+03  0.45853431355E+03 0.  0.
      99925    2    3    3    0    0  0.12521412236E+02  0.35697244873E+02 -0.73595052086E+02  0.27571188355E+03  0.26300139160E+03 0.  0.
         25    1    4    4    0    0  0.29580704825E+02  0.58610042215E+01 -0.68767040441E+02  0.14589648186E+03  0.12509000000E+03 0.  0.
         25    1    4    4    0    0 -0.17059292589E+02  0.29836240651E+02 -0.48280116450E+01  0.12981540169E+03  0.12509000000E+03 0.  0.
         25    1    3    3    0    0 -0.12521412236E+02 -0.35697244873E+02  0.13333135433E+03  0.18669718049E+03  0.12509000000E+03 0.  0.
<mgrwt>
<rscale>  2 0.45853431E+03</rscale>
<asrwt>0</asrwt>
<pdfrwt beam="1">  1       21 0.38393042E-01 0.45853431E+03</pdfrwt>
<pdfrwt beam="2">  1       21 0.29608291E-01 0.45853431E+03</pdfrwt>
<totfact> 0.66121912E+04</totfact>
</mgrwt>
</event>
<event>
 7    0  0.4752811E-002  0.4562820E+03  0.7546771E-02  0.1025865E+00
         21   -1    0    0  502  501  0.00000000000E+00  0.00000000000E+00  0.37629038579E+02  0.37629038579E+02  0.00000000000E+00 0.  1.
         21   -1    0    0  501  502 -0.00000000000E+00 -0.00000000000E+00 -0.13831957593E+04  0.13831957593E+04  0.00000000000E+00 0.  1.
      99926    2    1    2    0    0  0.00000000000E+00  0.00000000000E+00 -0.13455667208E+04  0.14208247979E+04  0.45628204694E+03 0.  0.
      99925    2    3    3    0    0 -0.11214280134E+03 -0.28962187910E+01 -0.91686581921E+03  0.96037244744E+03  0.26284579391E+03 0.  0.
         25    1    4    4    0    0 -0.72160840288E+02  0.18339304669E+02 -0.37117167893E+03  0.39869717871E+03  0.12509000000E+03 0.  0.
         25    1    4    4    0    0 -0.39981961053E+02 -0.21235523460E+02 -0.54569414028E+03  0.56167526873E+03  0.12509000000E+03 0.  0.
         25    1    3    3    0    0  0.11214280134E+03  0.28962187910E+01 -0.42870090154E+03  0.46045235048E+03  0.12509000000E+03 0.  0.
<mgrwt>
<rscale>  2 0.45628205E+03</rscale>
<asrwt>0</asrwt>
<pdfrwt beam="1">  1       21 0.55336826E-02 0.45628205E+03</pdfrwt>
<pdfrwt beam="2">  1       21 0.20341112E+00 0.45628205E+03</pdfrwt>
<totfact> 0.25527070E+04</totfact>
</mgrwt>
</event>
<event>
 7    0  0.4752811E-002  0.4567061E+03  0.7546771E-02  0.1025741E+00
         21   -1    0    0  502  501  0.00000000000E+00  0.00000000000E+00  0.77610721073E+03  0.77610721073E+03  0.00000000000E+00 0.  1.
         21   -1    0    0  501  502 -0.00000000000E+00 -0.00000000000E+00 -0.67188044662E+02  0.67188044662E+02  0.00000000000E+00 0.  1.
      99926    2    1    2    0    0  0.35527136788E-14  0.00000000000E+00  0.70891916606E+03  0.84329525539E+03  0.45670614595E+03 0.  0.
      99925    2    3    3    0    0 -0.24996385938E+02 -0.11188966491E+03  0.43627537607E+03  0.52216247795E+03  0.26300823787E+03 0.  0.
         25    1    3    3    0    0  0.24996385938E+02  0.11188966491E+03  0.27264378999E+03  0.32113277744E+03  0.12509000000E+03 0.  0.
         25    1    4    4    0    0 -0.34481442185E+02 -0.19730631024E+02  0.19894490923E+03  0.23833768620E+03  0.12509000000E+03 0.  0.
         25    1    4    4    0    0  0.94850562478E+01 -0.92159033888E+02  0.23733046684E+03  0.28382479175E+03  0.12509000000E+03 0.  0.
<mgrwt>
<rscale>  2 0.45670615E+03</rscale>
<asrwt>0</asrwt>
<pdfrwt beam="1">  1       21 0.11413341E+00 0.45670615E+03</pdfrwt>
<pdfrwt beam="2">  1       21 0.98805953E-02 0.45670615E+03</pdfrwt>
<totfact> 0.45133659E+04</totfact>
</mgrwt>
</event>
<event>
 7    0  0.4752811E-002  0.4553308E+03  0.7546771E-02  0.1026144E+00
         21   -1    0    0  502  501  0.00000000000E+00  0.00000000000E+00  0.25498528496E+02  0.25498528496E+02  0.00000000000E+00 0.  1.
         21   -1    0    0  501  502 -0.00000000000E+00 -0.00000000000E+00 -0.20327269342E+04  0.20327269342E+04  0.00000000000E+00 0.  1.
      99926    2    1    2    0    0  0.00000000000E+00 -0.14210854715E-13 -0.20072284057E+04  0.20582254627E+04  0.45533084963E+03 0.  0.
      99925    2    3    3    0    0 -0.19591460141E+02 -0.99227840730E+02 -0.14953905113E+04  0.15217037689E+04  0.26298210824E+03 0.  0.
         25    1    4    4    0    0  0.19920986079E+00 -0.60454405469E+02 -0.55970274647E+03  0.57668834506E+03  0.12509000000E+03 0.  0.
         25    1    3    3    0    0  0.19591460141E+02  0.99227840730E+02 -0.51183789442E+03  0.53652169383E+03  0.12509000000E+03 0.  0.
         25    1    4    4    0    0 -0.19790670002E+02 -0.38773435262E+02 -0.93568776482E+03  0.94501542381E+03  0.12509000000E+03 0.  0.
<mgrwt>
<rscale>  2 0.45533085E+03</rscale>
<asrwt>0</asrwt>
<pdfrwt beam="1">  1       21 0.37497844E-02 0.45533085E+03</pdfrwt>
<pdfrwt beam="2">  1       21 0.29893037E+00 0.45533085E+03</pdfrwt>
<totfact> 0.12749583E+04</totfact>
</mgrwt>
</event>
<event>
 7    0  0.4752811E-002  0.4556378E+03  0.7546771E-02  0.1026054E+00
         21   -1    0    0  502  501  0.00000000000E+00  0.00000000000E+00  0.91661399779E+03  0.91661399779E+03  0.00000000000E+00 0. -1.
         21   -1    0    0  501  502 -0.00000000000E+00 -0.00000000000E+00 -0.56623009589E+02  0.56623009589E+02  0.00000000000E+00 0. -1.
      99926    2    1    2    0    0 -0.14210854715E-13  0.00000000000E+00  0.85999098820E+03  0.97323700738E+03  0.45563776484E+03 0.  0.
      99925    2    3    3    0    0 -0.73175542595E+02 -0.46444527900E+02  0.69860021491E+03  0.75141220261E+03  0.26280464942E+03 0.  0.
         25    1    4    4    0    0 -0.63017438987E+02 -0.46706556663E+02  0.43690834975E+03  0.46118230043E+03  0.12509000000E+03 0.  0.
         25    1    4    4    0    0 -0.10158103608E+02  0.26202876314E+00  0.26169186516E+03  0.29022990218E+03  0.12509000000E+03 0.  0.
         25    1    3    3    0    0  0.73175542595E+02  0.46444527900E+02  0.16139077329E+03  0.22182480476E+03  0.12509000000E+03 0.  0.
<mgrwt>
<rscale>  2 0.45563776E+03</rscale>
<asrwt>0</asrwt>
<pdfrwt beam="1">  1       21 0.13479617E+00 0.45563776E+03</pdfrwt>
<pdfrwt beam="2">  1       21 0.83269138E-02 0.45563776E+03</pdfrwt>
<totfact> 0.40014035E+04</totfact>
</mgrwt>
</event>
<event>
 7    0  0.4752811E-002  0.4515031E+03  0.7546771E-02  0.1027275E+00
         21   -1    0    0  502  501  0.00000000000E+00  0.00000000000E+00  0.47828014920E+02  0.47828014920E+02  0.00000000000E+00 0.  1.
         21   -1    0    0  501  502 -0.00000000000E+00 -0.00000000000E+00 -0.10655630354E+04  0.10655630354E+04  0.00000000000E+00 0.  1.
      99926    2    1    2    0    0  0.00000000000E+00  0.00000000000E+00 -0.10177350204E+04  0.11133910503E+04  0.45150311074E+03 0.  0.
      99925    2    3    3    0    0 -0.29577148508E+02 -0.92516082978E+02 -0.51552297969E+03  0.58679967616E+03  0.26293703434E+03 0.  0.
         25    1    4    4    0    0 -0.40064375391E+02 -0.62613111226E+02 -0.21356260658E+03  0.25842223376E+03  0.12509000000E+03 0.  0.
         25    1    3    3    0    0  0.29577148508E+02  0.92516082978E+02 -0.50221204075E+03  0.52659137412E+03  0.12509000000E+03 0.  0.
         25    1    4    4    0    0  0.10487226883E+02 -0.29902971752E+02 -0.30196037311E+03  0.32837744240E+03  0.12509000000E+03 0.  0.
<mgrwt>
<rscale>  2 0.45150311E+03</rscale>
<asrwt>0</asrwt>
<pdfrwt beam="1">  1       21 0.70335317E-02 0.45150311E+03</pdfrwt>
<pdfrwt beam="2">  1       21 0.15670045E+00 0.45150311E+03</pdfrwt>
<totfact> 0.35999925E+04</totfact>
</mgrwt>
</event>
<event>
 7    0  0.4752811E-002  0.4525107E+03  0.7546771E-02  0.1026976E+00
         21   -1    0    0  502  501  0.00000000000E+00  0.00000000000E+00  0.50750725086E+03  0.50750725086E+03  0.00000000000E+00 0. -1.
         21   -1    0    0  501  502 -0.00000000000E+00 -0.00000000000E+00 -0.10086845765E+03  0.10086845765E+03  0.00000000000E+00 0. -1.
      99926    2    1    2    0    0 -0.35527136788E-14  0.00000000000E+00  0.40663879321E+03  0.60837570851E+03  0.45251065685E+03 0.  0.
      99925    2    3    3    0    0  0.84000440263E+01 -0.31138820249E+02  0.39899149037E+03  0.47896869090E+03  0.26301446844E+03 0.  0.
         25    1    4    4    0    0 -0.36240090274E+02 -0.18420945281E+02  0.20168834177E+03  0.24078698195E+03  0.12509000000E+03 0.  0.
         25    1    4    4    0    0  0.44640134301E+02 -0.12717874968E+02  0.19730314860E+03  0.23818170896E+03  0.12509000000E+03 0.  0.
         25    1    3    3    0    0 -0.84000440263E+01  0.31138820249E+02  0.76473028413E+01  0.12940701761E+03  0.12509000000E+03 0.  0.
<mgrwt>
<rscale>  2 0.45251066E+03</rscale>
<asrwt>0</asrwt>
<pdfrwt beam="1">  1       21 0.74633418E-01 0.45251066E+03</pdfrwt>
<pdfrwt beam="2">  1       21 0.14833597E-01 0.45251066E+03</pdfrwt>
<totfact> 0.59323614E+04</totfact>
</mgrwt>
</event>
<event>
 7    0  0.4752811E-002  0.4168581E+03  0.7546771E-02  0.1038094E+00
         21   -1    0    0  502  501  0.00000000000E+00  0.00000000000E+00  0.19424443351E+02  0.19424443351E+02  0.00000000000E+00 0.  1.
         21   -1    0    0  501  502 -0.00000000000E+00 -0.00000000000E+00 -0.22364945923E+04  0.22364945923E+04  0.00000000000E+00 0.  1.
      99926    2    1    2    0    0 -0.71054273576E-14  0.00000000000E+00 -0.22170701489E+04  0.22559190356E+04  0.41685806944E+03 0.  0.
      99925    2    3    3    0    0  0.48162917017E+02 -0.39732814103E+02 -0.16410903683E+04  0.16632145740E+04  0.26307177540E+03 0.  0.
         25    1    4    4    0    0  0.50522659612E+02 -0.51562218513E+02 -0.83939654285E+03  0.85173074722E+03  0.12509000000E+03 0.  0.
         25    1    3    3    0    0 -0.48162917017E+02  0.39732814103E+02 -0.57597978057E+03  0.59270446161E+03  0.12509000000E+03 0.  0.
         25    1    4    4    0    0 -0.23597425957E+01  0.11829404410E+02 -0.80169382550E+03  0.81148382678E+03  0.12509000000E+03 0.  0.
<mgrwt>
<rscale>  2 0.41685807E+03</rscale>
<asrwt>0</asrwt>
<pdfrwt beam="1">  1       21 0.28565364E-02 0.41685807E+03</pdfrwt>
<pdfrwt beam="2">  1       21 0.32889619E+00 0.41685807E+03</pdfrwt>
<totfact> 0.13557400E+04</totfact>
</mgrwt>
</event>
<event>
 7    0  0.4752811E-002  0.4493573E+03  0.7546771E-02  0.1027914E+00
         21   -1    0    0  502  501  0.00000000000E+00  0.00000000000E+00  0.10934911917E+03  0.10934911917E+03  0.00000000000E+00 0.  1.
         21   -1    0    0  501  502 -0.00000000000E+00 -0.00000000000E+00 -0.46164518445E+03  0.46164518445E+03  0.00000000000E+00 0.  1.
      99926    2    1    2    0    0  0.71054273576E-14  0.00000000000E+00 -0.35229606528E+03  0.57099430362E+03  0.44935729343E+03 0.  0.
      99925    2    3    3    0    0 -0.49721920541E+02 -0.64258105716E+02 -0.13285619084E+03  0.30565915682E+03  0.26301212743E+03 0.  0.
         25    1    3    3    0    0  0.49721920541E+02  0.64258105716E+02 -0.21943987444E+03  0.26533514680E+03  0.12509000000E+03 0.  0.
         25    1    4    4    0    0  0.66412580111E+01 -0.36930288309E+02 -0.35875082318E+02  0.13543442005E+03  0.12509000000E+03 0.  0.
         25    1    4    4    0    0 -0.56363178552E+02 -0.27327817407E+02 -0.96981108520E+02  0.17022473678E+03  0.12509000000E+03 0.  0.
<mgrwt>
<rscale>  2 0.44935729E+03</rscale>
<asrwt>0</asrwt>
<pdfrwt beam="1">  1       21 0.16080753E-01 0.44935729E+03</pdfrwt>
<pdfrwt beam="2">  1       21 0.67888997E-01 0.44935729E+03</pdfrwt>
<totfact> 0.63276609E+04</totfact>
</mgrwt>
</event>
<event>
 7    0  0.4752811E-002  0.4549827E+03  0.7546771E-02  0.1026246E+00
         21   -1    0    0  502  501  0.00000000000E+00  0.00000000000E+00  0.79936647432E+03  0.79936647432E+03  0.00000000000E+00 0. -1.
         21   -1    0    0  501  502 -0.00000000000E+00 -0.00000000000E+00 -0.64741674400E+02  0.64741674400E+02  0.00000000000E+00 0. -1.
      99926    2    1    2    0    0  0.14210854715E-13  0.00000000000E+00  0.73462479992E+03  0.86410814872E+03  0.45498274256E+03 0.  0.
      99925    2    3    3    0    0 -0.87382770002E+02 -0.64298127184E+02  0.52306343301E+03  0.59545276031E+03  0.26305633837E+03 0.  0.
         25    1    4    4    0    0 -0.52806896725E+01 -0.26476357735E+02  0.27466870726E+03  0.30301697980E+03  0.12509000000E+03 0.  0.
         25    1    4    4    0    0 -0.82102080330E+02 -0.37821769449E+02  0.24839472576E+03  0.29243578051E+03  0.12509000000E+03 0.  0.
         25    1    3    3    0    0  0.87382770002E+02  0.64298127184E+02  0.21156136690E+03  0.26865538840E+03  0.12509000000E+03 0.  0.
<mgrwt>
<rscale>  2 0.45498274E+03</rscale>
<asrwt>0</asrwt>
<pdfrwt beam="1">  1       21 0.11755389E+00 0.45498274E+03</pdfrwt>
<pdfrwt beam="2">  1       21 0.95208350E-02 0.45498274E+03</pdfrwt>
<totfact> 0.44820713E+04</totfact>
</mgrwt>
</event>
<event>
 7    0  0.4752811E-002  0.4618043E+03  0.7546771E-02  0.1024259E+00
         21   -1    0    0  502  501  0.00000000000E+00  0.00000000000E+00  0.26852771560E+03  0.26852771560E+03  0.00000000000E+00 0. -1.
         21   -1    0    0  501  502 -0.00000000000E+00 -0.00000000000E+00 -0.19854862933E+03  0.19854862933E+03  0.00000000000E+00 0. -1.
      99926    2    1    2    0    0 -0.35527136788E-14  0.00000000000E+00  0.69979086277E+02  0.46707634493E+03  0.46180433029E+03 0.  0.
      99925    2    3    3    0    0 -0.84176872819E+01 -0.33401775135E+02  0.15951863181E+03  0.30943315809E+03  0.26289950435E+03 0.  0.
         25    1    4    4    0    0  0.32342407135E+02  0.72717484334E+00  0.79781794186E+02  0.15185256951E+03  0.12509000000E+03 0.  0.
         25    1    4    4    0    0 -0.40760094417E+02 -0.34128949978E+02  0.79736837627E+02  0.15758058858E+03  0.12509000000E+03 0.  0.
         25    1    3    3    0    0  0.84176872819E+01  0.33401775135E+02 -0.89539545536E+02  0.15764318684E+03  0.12509000000E+03 0.  0.
<mgrwt>
<rscale>  2 0.46180433E+03</rscale>
<asrwt>0</asrwt>
<pdfrwt beam="1">  1       21 0.39489370E-01 0.46180433E+03</pdfrwt>
<pdfrwt beam="2">  1       21 0.29198328E-01 0.46180433E+03</pdfrwt>
<totfact> 0.64117315E+04</totfact>
</mgrwt>
</event>
<event>
 7    0  0.4752811E-002  0.4562849E+03  0.7546771E-02  0.1025864E+00
         21   -1    0    0  502  501  0.00000000000E+00  0.00000000000E+00  0.20810248383E+03  0.20810248383E+03  0.00000000000E+00 0. -1.
         21   -1    0    0  501  502 -0.00000000000E+00 -0.00000000000E+00 -0.25011226027E+03  0.25011226027E+03  0.00000000000E+00 0. -1.
      99926    2    1    2    0    0  0.00000000000E+00  0.14210854715E-13 -0.42009776442E+02  0.45821474411E+03  0.45628492239E+03 0.  0.
      99925    2    3    3    0    0  0.29888760814E+02 -0.94870182748E+02 -0.83107295615E+02  0.29319897583E+03  0.26299263725E+03 0.  0.
         25    1    3    3    0    0 -0.29888760814E+02  0.94870182748E+02  0.41097519173E+02  0.16501576828E+03  0.12509000000E+03 0.  0.
         25    1    4    4    0    0  0.47159232207E+02 -0.72420665711E+02 -0.56586329871E+02  0.16222905668E+03  0.12509000000E+03 0.  0.
         25    1    4    4    0    0 -0.17270471393E+02 -0.22449517036E+02 -0.26520965744E+02  0.13096991915E+03  0.12509000000E+03 0.  0.
<mgrwt>
<rscale>  2 0.45628492E+03</rscale>
<asrwt>0</asrwt>
<pdfrwt beam="1">  1       21 0.30603306E-01 0.45628492E+03</pdfrwt>
<pdfrwt beam="2">  1       21 0.36781215E-01 0.45628492E+03</pdfrwt>
<totfact> 0.67615088E+04</totfact>
</mgrwt>
</event>
<event>
 7    0  0.4752811E-002  0.4568119E+03  0.7546771E-02  0.1025710E+00
         21   -1    0    0  502  501  0.00000000000E+00  0.00000000000E+00  0.52837660830E+02  0.52837660830E+02  0.00000000000E+00 0. -1.
         21   -1    0    0  501  502 -0.00000000000E+00 -0.00000000000E+00 -0.98735036146E+03  0.98735036146E+03  0.00000000000E+00 0. -1.
      99926    2    1    2    0    0  0.00000000000E+00  0.00000000000E+00 -0.93451270063E+03  0.10401880223E+04  0.45681192419E+03 0.  0.
      99925    2    3    3    0    0 -0.74545868037E+02 -0.83709409163E+02 -0.64291474507E+03  0.70367468317E+03  0.26316219081E+03 0.  0.
         25    1    4    4    0    0 -0.67178710897E+02 -0.53752912062E+02 -0.41450001464E+03  0.44142963765E+03  0.12509000000E+03 0.  0.
         25    1    3    3    0    0  0.74545868037E+02  0.83709409163E+02 -0.29159795556E+03  0.33651333913E+03  0.12509000000E+03 0.  0.
         25    1    4    4    0    0 -0.73671571391E+01 -0.29956497102E+02 -0.22841473043E+03  0.26224504552E+03  0.12509000000E+03 0.  0.
<mgrwt>
<rscale>  2 0.45681192E+03</rscale>
<asrwt>0</asrwt>
<pdfrwt beam="1">  1       21 0.77702444E-02 0.45681192E+03</pdfrwt>
<pdfrwt beam="2">  1       21 0.14519858E+00 0.45681192E+03</pdfrwt>
<totfact> 0.37111801E+04</totfact>
</mgrwt>
</event>
<event>
 7    0  0.4752811E-002  0.4182763E+03  0.7546771E-02  0.1037629E+00
         21   -1    0    0  502  501  0.00000000000E+00  0.00000000000E+00  0.20291370623E+04  0.20291370623E+04  0.00000000000E+00 0. -1.
         21   -1    0    0  501  502 -0.00000000000E+00 -0.00000000000E+00 -0.21555348483E+02  0.21555348483E+02  0.00000000000E+00 0. -1.
      99926    2    1    2    0    0  0.00000000000E+00  0.00000000000E+00  0.20075817138E+04  0.20506924108E+04  0.41827625559E+03 0.  0.
      99925    2    3    3    0    0 -0.25173834732E+02 -0.68809740304E+02  0.13416781309E+04  0.13691914260E+04  0.26309019743E+03 0.  0.
         25    1    4    4    0    0 -0.36219381089E+01 -0.65171668350E+02  0.57435768205E+03  0.59143445945E+03  0.12509000000E+03 0.  0.
         25    1    4    4    0    0 -0.21551896623E+02 -0.36380719531E+01  0.76732044881E+03  0.77775696659E+03  0.12509000000E+03 0.  0.
         25    1    3    3    0    0  0.25173834732E+02  0.68809740304E+02  0.66590358293E+03  0.68150098472E+03  0.12509000000E+03 0.  0.
<mgrwt>
<rscale>  2 0.41827626E+03</rscale>
<asrwt>0</asrwt>
<pdfrwt beam="1">  1       21 0.29840238E+00 0.41827626E+03</pdfrwt>
<pdfrwt beam="2">  1       21 0.31699056E-02 0.41827626E+03</pdfrwt>
<totfact> 0.17342502E+04</totfact>
</mgrwt>
</event>
<event>
 7    0  0.4752811E-002  0.4554315E+03  0.7546771E-02  0.1026115E+00
         21   -1    0    0  502  501  0.00000000000E+00  0.00000000000E+00  0.17602206338E+03  0.17602206338E+03  0.00000000000E+00 0. -1.
         21   -1    0    0  501  502 -0.00000000000E+00 -0.00000000000E+00 -0.29459072906E+03  0.29459072906E+03  0.00000000000E+00 0. -1.
      99926    2    1    2    0    0  0.00000000000E+00  0.00000000000E+00 -0.11856866567E+03  0.47061279244E+03  0.45543152276E+03 0.  0.
      99925    2    3    3    0    0  0.45198624198E+02  0.43289066256E+02  0.23208196199E+02  0.27145193898E+03  0.26311722847E+03 0.  0.
         25    1    4    4    0    0  0.30574211040E+02 -0.14673952464E+02 -0.60949260417E+01  0.12974884772E+03  0.12509000000E+03 0.  0.
         25    1    4    4    0    0  0.14624413158E+02  0.57963018720E+02  0.29303122241E+02  0.14170309126E+03  0.12509000000E+03 0.  0.
         25    1    3    3    0    0 -0.45198624198E+02 -0.43289066256E+02 -0.14177686187E+03  0.19916085346E+03  0.12509000000E+03 0.  0.
<mgrwt>
<rscale>  2 0.45543152E+03</rscale>
<asrwt>0</asrwt>
<pdfrwt beam="1">  1       21 0.25885598E-01 0.45543152E+03</pdfrwt>
<pdfrwt beam="2">  1       21 0.43322166E-01 0.45543152E+03</pdfrwt>
<totfact> 0.67159957E+04</totfact>
</mgrwt>
</event>
<event>
 7    0  0.4752811E-002  0.4533770E+03  0.7546771E-02  0.1026720E+00
         21   -1    0    0  502  501  0.00000000000E+00  0.00000000000E+00  0.28948388119E+03  0.28948388119E+03  0.00000000000E+00 0. -1.
         21   -1    0    0  501  502 -0.00000000000E+00 -0.00000000000E+00 -0.17751482517E+03  0.17751482517E+03  0.00000000000E+00 0. -1.
      99926    2    1    2    0    0  0.00000000000E+00  0.00000000000E+00  0.11196905602E+03  0.46699870637E+03  0.45337701998E+03 0.  0.
      99925    2    3    3    0    0  0.22406708506E+02 -0.51731965796E+02 -0.28605843287E+02  0.27056279497E+03  0.26307351612E+03 0.  0.
         25    1    4    4    0    0 -0.22992600440E+01 -0.61655138741E+02  0.14836342900E+00  0.13947821637E+03  0.12509000000E+03 0.  0.
         25    1    3    3    0    0 -0.22406708506E+02  0.51731965796E+02  0.14057489931E+03  0.19643591140E+03  0.12509000000E+03 0.  0.
         25    1    4    4    0    0  0.24705968550E+02  0.99231729445E+01 -0.28754206716E+02  0.13108457860E+03  0.12509000000E+03 0.  0.
<mgrwt>
<rscale>  2 0.45337702E+03</rscale>
<asrwt>0</asrwt>
<pdfrwt beam="1">  1       21 0.42571159E-01 0.45337702E+03</pdfrwt>
<pdfrwt beam="2">  1       21 0.26105121E-01 0.45337702E+03</pdfrwt>
<totfact> 0.68537807E+04</totfact>
</mgrwt>
</event>
<event>
 7    0  0.4752811E-002  0.4582604E+03  0.7546771E-02  0.1025287E+00
         21   -1    0    0  502  501  0.00000000000E+00  0.00000000000E+00  0.54835314786E+02  0.54835314786E+02  0.00000000000E+00 0.  1.
         21   -1    0    0  501  502 -0.00000000000E+00 -0.00000000000E+00 -0.95742410241E+03  0.95742410241E+03  0.00000000000E+00 0.  1.
      99926    2    1    2    0    0  0.00000000000E+00  0.00000000000E+00 -0.90258878762E+03  0.10122594172E+04  0.45826041522E+03 0.  0.
      99925    2    3    3    0    0  0.82349462149E+02 -0.80795960385E+02 -0.59638842448E+03  0.66195156456E+03  0.26304239171E+03 0.  0.
         25    1    3    3    0    0 -0.82349462149E+02  0.80795960385E+02 -0.30620036314E+03  0.35030785264E+03  0.12509000000E+03 0.  0.
         25    1    4    4    0    0  0.19303249037E+02 -0.43532710489E+02 -0.36654480044E+03  0.39021828652E+03  0.12509000000E+03 0.  0.
         25    1    4    4    0    0  0.63046213112E+02 -0.37263249896E+02 -0.22984362404E+03  0.27173327803E+03  0.12509000000E+03 0.  0.
<mgrwt>
<rscale>  2 0.45826042E+03</rscale>
<asrwt>0</asrwt>
<pdfrwt beam="1">  1       21 0.80640182E-02 0.45826042E+03</pdfrwt>
<pdfrwt beam="2">  1       21 0.14079764E+00 0.45826042E+03</pdfrwt>
<totfact> 0.37723702E+04</totfact>
</mgrwt>
</event>
<event>
 7    0  0.4752811E-002  0.4580921E+03  0.7546771E-02  0.1025336E+00
         21   -1    0    0  502  501  0.00000000000E+00  0.00000000000E+00  0.21394339128E+04  0.21394339128E+04  0.00000000000E+00 0. -1.
         21   -1    0    0  501  502 -0.00000000000E+00 -0.00000000000E+00 -0.24521487193E+02  0.24521487193E+02  0.00000000000E+00 0. -1.
      99926    2    1    2    0    0  0.00000000000E+00 -0.35527136788E-14  0.21149124256E+04  0.21639554000E+04  0.45809213612E+03 0.  0.
      99925    2    3    3    0    0  0.65782402347E+02 -0.24846612589E+02  0.17631925494E+04  0.17840882416E+04  0.26301750681E+03 0.  0.
         25    1    4    4    0    0  0.44083578254E+02 -0.43511261449E+02  0.10761184325E+04  0.10851336234E+04  0.12509000000E+03 0.  0.
         25    1    4    4    0    0  0.21698824094E+02  0.18664648861E+02  0.68707411693E+03  0.69895461823E+03  0.12509000000E+03 0.  0.
         25    1    3    3    0    0 -0.65782402347E+02  0.24846612589E+02  0.35171987617E+03  0.37986715837E+03  0.12509000000E+03 0.  0.
<mgrwt>
<rscale>  2 0.45809214E+03</rscale>
<asrwt>0</asrwt>
<pdfrwt beam="1">  1       21 0.31462251E+00 0.45809214E+03</pdfrwt>
<pdfrwt beam="2">  1       21 0.36061025E-02 0.45809214E+03</pdfrwt>
<totfact> 0.10947685E+04</totfact>
</mgrwt>
</event>
<event>
 7    0  0.4752811E-002  0.4609644E+03  0.7546771E-02  0.1024502E+00
         21   -1    0    0  502  501  0.00000000000E+00  0.00000000000E+00  0.83262621205E+03  0.83262621205E+03  0.00000000000E+00 0.  1.
         21   -1    0    0  501  502 -0.00000000000E+00 -0.00000000000E+00 -0.63800594711E+02  0.63800594711E+02  0.00000000000E+00 0.  1.
      99926    2    1    2    0    0  0.00000000000E+00  0.00000000000E+00  0.76882561734E+03  0.89642680676E+03  0.46096441295E+03 0.  0.
      99925    2    3    3    0    0  0.91766742621E+02 -0.65387773641E+02  0.55578928167E+03  0.62489654250E+03  0.26248288939E+03 0.  0.
         25    1    4    4    0    0  0.59152561737E+02  0.42946253140E+01  0.25420467860E+03  0.28945638029E+03  0.12509000000E+03 0.  0.
         25    1    3    3    0    0 -0.91766742621E+02  0.65387773641E+02  0.21303633567E+03  0.27153026426E+03  0.12509000000E+03 0.  0.
         25    1    4    4    0    0  0.32614180884E+02 -0.69682398955E+02  0.30158460307E+03  0.33544016222E+03  0.12509000000E+03 0.  0.
<mgrwt>
<rscale>  2 0.46096441E+03</rscale>
<asrwt>0</asrwt>
<pdfrwt beam="1">  1       21 0.12244503E+00 0.46096441E+03</pdfrwt>
<pdfrwt beam="2">  1       21 0.93824409E-02 0.46096441E+03</pdfrwt>
<totfact> 0.41420033E+04</totfact>
</mgrwt>
</event>
<event>
 7    0  0.4752811E-002  0.4594584E+03  0.7546771E-02  0.1024938E+00
         21   -1    0    0  502  501  0.00000000000E+00  0.00000000000E+00  0.17849247669E+03  0.17849247669E+03  0.00000000000E+00 0. -1.
         21   -1    0    0  501  502 -0.00000000000E+00 -0.00000000000E+00 -0.29567360717E+03  0.29567360717E+03  0.00000000000E+00 0. -1.
      99926    2    1    2    0    0  0.00000000000E+00 -0.71054273576E-14 -0.11718113048E+03  0.47416608387E+03  0.45945843963E+03 0.  0.
      99925    2    3    3    0    0  0.15394609807E+02  0.46261501725E+02  0.37363236883E+02  0.26945020726E+03  0.26235525946E+03 0.  0.
         25    1    4    4    0    0  0.27883063352E+02  0.34457234846E+01  0.46389155459E+02  0.13634074987E+03  0.12509000000E+03 0.  0.
         25    1    3    3    0    0 -0.15394609807E+02 -0.46261501725E+02 -0.15454436736E+03  0.20471587661E+03  0.12509000000E+03 0.  0.
         25    1    4    4    0    0 -0.12488453545E+02  0.42815778240E+02 -0.90259185758E+01  0.13310945738E+03  0.12509000000E+03 0.  0.
<mgrwt>
<rscale>  2 0.45945844E+03</rscale>
<asrwt>0</asrwt>
<pdfrwt beam="1">  1       21 0.26248894E-01 0.45945844E+03</pdfrwt>
<pdfrwt beam="2">  1       21 0.43481412E-01 0.45945844E+03</pdfrwt>
<totfact> 0.64804459E+04</totfact>
</mgrwt>
</event>
<event>
 7    0  0.4752811E-002  0.4571071E+03  0.7546771E-02  0.1025624E+00
         21   -1    0    0  502  501  0.00000000000E+00  0.00000000000E+00  0.10070481077E+03  0.10070481077E+03  0.00000000000E+00 0. -1.
         21   -1    0    0  501  502 -0.00000000000E+00 -0.00000000000E+00 -0.51871133526E+03  0.51871133526E+03  0.00000000000E+00 0. -1.
      99926    2    1    2    0    0  0.17763568394E-14  0.00000000000E+00 -0.41800652449E+03  0.61941614603E+03  0.45710710719E+03 0.  0.
      99925    2    3    3    0    0  0.10665227743E+02 -0.13997452040E+02 -0.11036440863E+03  0.28684907715E+03  0.26418254035E+03 0.  0.
         25    1    4    4    0    0  0.41946048079E+02  0.14404559717E+02 -0.56883753622E+02  0.14439609349E+03  0.12509000000E+03 0.  0.
         25    1    4    4    0    0 -0.31280820335E+02 -0.28402011757E+02 -0.53480655003E+02  0.14245298366E+03  0.12509000000E+03 0.  0.
         25    1    3    3    0    0 -0.10665227743E+02  0.13997452040E+02 -0.30764211587E+03  0.33256706888E+03  0.12509000000E+03 0.  0.
<mgrwt>
<rscale>  2 0.45710711E+03</rscale>
<asrwt>0</asrwt>
<pdfrwt beam="1">  1       21 0.14809531E-01 0.45710711E+03</pdfrwt>
<pdfrwt beam="2">  1       21 0.76281080E-01 0.45710711E+03</pdfrwt>
<totfact> 0.56551914E+04</totfact>
</mgrwt>
</event>
<event>
 7    0  0.4752811E-002  0.4528219E+03  0.7546771E-02  0.1026884E+00
         21   -1    0    0  502  501  0.00000000000E+00  0.00000000000E+00  0.14765307869E+03  0.14765307869E+03  0.00000000000E+00 0.  1.
         21   -1    0    0  501  502 -0.00000000000E+00 -0.00000000000E+00 -0.34717815387E+03  0.34717815387E+03  0.00000000000E+00 0.  1.
      99926    2    1    2    0    0 -0.14210854715E-13  0.00000000000E+00 -0.19952507518E+03  0.49483123256E+03  0.45282192205E+03 0.  0.
      99925    2    3    3    0    0 -0.11001810321E+03  0.12011036330E+02 -0.13755402312E+03  0.31668475513E+03  0.26290659336E+03 0.  0.
         25    1    4    4    0    0 -0.57116178369E+02  0.32664144656E+02 -0.10340397656E+03  0.17512593939E+03  0.12509000000E+03 0.  0.
         25    1    3    3    0    0  0.11001810321E+03 -0.12011036330E+02 -0.61971052059E+02  0.17814647743E+03  0.12509000000E+03 0.  0.
         25    1    4    4    0    0 -0.52901924838E+02 -0.20653108327E+02 -0.34150046560E+02  0.14155881575E+03  0.12509000000E+03 0.  0.
<mgrwt>
<rscale>  2 0.45282192E+03</rscale>
<asrwt>0</asrwt>
<pdfrwt beam="1">  1       21 0.21713689E-01 0.45282192E+03</pdfrwt>
<pdfrwt beam="2">  1       21 0.51055610E-01 0.45282192E+03</pdfrwt>
<totfact> 0.66782586E+04</totfact>
</mgrwt>
</event>
<event>
 7    0  0.4752811E-002  0.4480622E+03  0.7546771E-02  0.1028301E+00
         21   -1    0    0  502  501  0.00000000000E+00  0.00000000000E+00  0.24279119508E+04  0.24279119508E+04  0.00000000000E+00 0.  1.
         21   -1    0    0  501  502 -0.00000000000E+00 -0.00000000000E+00 -0.20672059488E+02  0.20672059488E+02  0.00000000000E+00 0.  1.
      99926    2    1    2    0    0  0.00000000000E+00  0.00000000000E+00  0.24072398914E+04  0.24485840103E+04  0.44806222907E+03 0.  0.
      99925    2    3    3    0    0 -0.99747526474E+01  0.38278224453E+02  0.98845595948E+03  0.10237471524E+04  0.26353051083E+03 0.  0.
         25    1    3    3    0    0  0.99747526474E+01 -0.38278224453E+02  0.14187839319E+04  0.14248368579E+04  0.12509000000E+03 0.  0.
         25    1    4    4    0    0  0.15102631356E+02  0.34823611809E+02  0.62529718919E+03  0.63881519732E+03  0.12509000000E+03 0.  0.
         25    1    4    4    0    0 -0.25077384003E+02  0.34546126438E+01  0.36315877029E+03  0.38493195512E+03  0.12509000000E+03 0.  0.
<mgrwt>
<rscale>  2 0.44806223E+03</rscale>
<asrwt>0</asrwt>
<pdfrwt beam="1">  1       21 0.35704568E+00 0.44806223E+03</pdfrwt>
<pdfrwt beam="2">  1       21 0.30400104E-02 0.44806223E+03</pdfrwt>
<totfact> 0.81005059E+03</totfact>
</mgrwt>
</event>
<event>
 7    0  0.4752811E-002  0.4666542E+03  0.7546771E-02  0.1022869E+00
         21   -1    0    0  502  501  0.00000000000E+00  0.00000000000E+00  0.97424853656E+02  0.97424853656E+02  0.00000000000E+00 0. -1.
         21   -1    0    0  501  502 -0.00000000000E+00 -0.00000000000E+00 -0.55880548739E+03  0.55880548739E+03  0.00000000000E+00 0. -1.
      99926    2    1    2    0    0 -0.71054273576E-14  0.00000000000E+00 -0.46138063373E+03  0.65623034105E+03  0.46665423102E+03 0.  0.
      99925    2    3    3    0    0 -0.40799112486E+02 -0.50683105336E+02 -0.13931069188E+03  0.30464834450E+03  0.26300152127E+03 0.  0.
         25    1    4    4    0    0 -0.18200989773E+02 -0.45686370062E+01 -0.28108944238E+02  0.12957534225E+03  0.12509000000E+03 0.  0.
         25    1    3    3    0    0  0.40799112486E+02  0.50683105336E+02 -0.32206994186E+03  0.35158199655E+03  0.12509000000E+03 0.  0.
         25    1    4    4    0    0 -0.22598122712E+02 -0.46114468330E+02 -0.11120174764E+03  0.17507300225E+03  0.12509000000E+03 0.  0.
<mgrwt>
<rscale>  2 0.46665423E+03</rscale>
<asrwt>0</asrwt>
<pdfrwt beam="1">  1       21 0.14327184E-01 0.46665423E+03</pdfrwt>
<pdfrwt beam="2">  1       21 0.82177278E-01 0.46665423E+03</pdfrwt>
<totfact> 0.50535518E+04</totfact>
</mgrwt>
</event>
<event>
 7    0  0.4752811E-002  0.4162166E+03  0.7546771E-02  0.1038305E+00
         21   -1    0    0  502  501  0.00000000000E+00  0.00000000000E+00  0.11434661639E+03  0.11434661639E+03  0.00000000000E+00 0. -1.
         21   -1    0    0  501  502 -0.00000000000E+00 -0.00000000000E+00 -0.37875256602E+03  0.37875256602E+03  0.00000000000E+00 0. -1.
      99926    2    1    2    0    0 -0.71054273576E-14  0.00000000000E+00 -0.26440594962E+03  0.49309918241E+03  0.41621664731E+03 0.  0.
      99925    2    3    3    0    0  0.44769958609E+02  0.45310488942E+02 -0.21022655469E+03  0.34263222744E+03  0.26295294138E+03 0.  0.
         25    1    4    4    0    0  0.52538966417E+02  0.44875894065E+02 -0.13422973432E+03  0.19605947704E+03  0.12509000000E+03 0.  0.
         25    1    4    4    0    0 -0.77690078078E+01  0.43459487703E+00 -0.75996820375E+02  0.14657275041E+03  0.12509000000E+03 0.  0.
         25    1    3    3    0    0 -0.44769958609E+02 -0.45310488942E+02 -0.54179394932E+02  0.15046695497E+03  0.12509000000E+03 0.  0.
<mgrwt>
<rscale>  2 0.41621665E+03</rscale>
<asrwt>0</asrwt>
<pdfrwt beam="1">  1       21 0.16815679E-01 0.41621665E+03</pdfrwt>
<pdfrwt beam="2">  1       21 0.55698907E-01 0.41621665E+03</pdfrwt>
<totfact> 0.90573335E+04</totfact>
</mgrwt>
</event>
<event>
 7    0  0.4752811E-002  0.4559929E+03  0.7546771E-02  0.1025950E+00
         21   -1    0    0  502  501  0.00000000000E+00  0.00000000000E+00  0.60546019813E+03  0.60546019813E+03  0.00000000000E+00 0. -1.
         21   -1    0    0  501  502 -0.00000000000E+00 -0.00000000000E+00 -0.85855973098E+02  0.85855973098E+02  0.00000000000E+00 0. -1.
      99926    2    1    2    0    0  0.00000000000E+00 -0.44408920985E-15  0.51960422503E+03  0.69131617122E+03  0.45599287048E+03 0.  0.
      99925    2    3    3    0    0  0.11411294179E+03 -0.39670434442E+01  0.32911658757E+03  0.43642296017E+03  0.26288737328E+03 0.  0.
         25    1    4    4    0    0  0.33797338499E+02  0.16457082070E+02  0.10951450852E+03  0.17045243124E+03  0.12509000000E+03 0.  0.
         25    1    3    3    0    0 -0.11411294179E+03  0.39670434442E+01  0.19048763745E+03  0.25489321105E+03  0.12509000000E+03 0.  0.
         25    1    4    4    0    0  0.80315603289E+02 -0.20424125514E+02  0.21960207905E+03  0.26597052893E+03  0.12509000000E+03 0.  0.
<mgrwt>
<rscale>  2 0.45599287E+03</rscale>
<asrwt>0</asrwt>
<pdfrwt beam="1">  1       21 0.89038263E-01 0.45599287E+03</pdfrwt>
<pdfrwt beam="2">  1       21 0.12625879E-01 0.45599287E+03</pdfrwt>
<totfact> 0.52961911E+04</totfact>
</mgrwt>
</event>
<event>
 7    0  0.4752811E-002  0.4568954E+03  0.7546771E-02  0.1025685E+00
         21   -1    0    0  502  501  0.00000000000E+00  0.00000000000E+00  0.67914317870E+03  0.67914317870E+03  0.00000000000E+00 0. -1.
         21   -1    0    0  501  502 -0.00000000000E+00 -0.00000000000E+00 -0.76844418869E+02  0.76844418869E+02  0.00000000000E+00 0. -1.
      99926    2    1    2    0    0  0.00000000000E+00  0.00000000000E+00  0.60229875983E+03  0.75598759757E+03  0.45689544929E+03 0.  0.
      99925    2    3    3    0    0 -0.66104396452E+02  0.80233060199E+01  0.53337068562E+03  0.59840348611E+03  0.26299862973E+03 0.  0.
         25    1    3    3    0    0  0.66104396452E+02 -0.80233060199E+01  0.68928074214E+02  0.15758411146E+03  0.12509000000E+03 0.  0.
         25    1    4    4    0    0 -0.39778755611E+02  0.15690241099E+02  0.35506446413E+03  0.37887572481E+03  0.12509000000E+03 0.  0.
         25    1    4    4    0    0 -0.26325640842E+02 -0.76669350788E+01  0.17830622149E+03  0.21952776130E+03  0.12509000000E+03 0.  0.
<mgrwt>
<rscale>  2 0.45689545E+03</rscale>
<asrwt>0</asrwt>
<pdfrwt beam="1">  1       21 0.99873994E-01 0.45689545E+03</pdfrwt>
<pdfrwt beam="2">  1       21 0.11300650E-01 0.45689545E+03</pdfrwt>
<totfact> 0.49229051E+04</totfact>
</mgrwt>
</event>
<event>
 7    0  0.4752811E-002  0.4553288E+03  0.7546771E-02  0.1026145E+00
         21   -1    0    0  502  501  0.00000000000E+00  0.00000000000E+00  0.28529918661E+02  0.28529918661E+02  0.00000000000E+00 0.  1.
         21   -1    0    0  501  502 -0.00000000000E+00 -0.00000000000E+00 -0.18167272551E+04  0.18167272551E+04  0.00000000000E+00 0.  1.
      99926    2    1    2    0    0  0.00000000000E+00  0.71054273576E-14 -0.17881973364E+04  0.18452571737E+04  0.45532880786E+03 0.  0.
      99925    2    3    3    0    0  0.50504852228E+02  0.40234862928E+02 -0.15029098531E+04  0.15271282054E+04  0.26308353183E+03 0.  0.
         25    1    3    3    0    0 -0.50504852228E+02 -0.40234862928E+02 -0.28528748329E+03  0.31812896837E+03  0.12509000000E+03 0.  0.
         25    1    4    4    0    0  0.19621246827E+02  0.26191449560E+01 -0.93689079162E+03  0.94541192967E+03  0.12509000000E+03 0.  0.
         25    1    4    4    0    0  0.30883605401E+02  0.37615717972E+02 -0.56601906151E+03  0.58171627569E+03  0.12509000000E+03 0.  0.
<mgrwt>
<rscale>  2 0.45532881E+03</rscale>
<asrwt>0</asrwt>
<pdfrwt beam="1">  1       21 0.41955750E-02 0.45532881E+03</pdfrwt>
<pdfrwt beam="2">  1       21 0.26716586E+00 0.45532881E+03</pdfrwt>
<totfact> 0.16363453E+04</totfact>
</mgrwt>
</event>
<event>
 6    0  0.4752811E-002  0.4575171E+03  0.7546771E-02  0.1025504E+00
         21   -1    0    0  502  501  0.00000000000E+00  0.00000000000E+00  0.37556429116E+03  0.37556429116E+03  0.00000000000E+00 0.  1.
         21   -1    0    0  501  502 -0.00000000000E+00 -0.00000000000E+00 -0.13933825817E+03  0.13933825817E+03  0.00000000000E+00 0.  1.
      99926    2    1    2    0    0  0.00000000000E+00  0.00000000000E+00  0.23622603298E+03  0.51490254933E+03  0.45751709984E+03 0.  0.
         25    1    3    3    0    0  0.33035578298E+02  0.81856537660E+02  0.16391064901E+03  0.22429010488E+03  0.12509000000E+03 0.  0.
         25    1    3    3    0    0 -0.26125167919E+02 -0.38035800455E+02 -0.11200476399E+02  0.13379912289E+03  0.12509000000E+03 0.  0.
         25    1    3    3    0    0 -0.69104103787E+01 -0.43820737205E+02  0.83515860378E+02  0.15681332155E+03  0.12509000000E+03 0.  0.
<mgrwt>
<rscale>  2 0.45751710E+03</rscale>
<asrwt>0</asrwt>
<pdfrwt beam="1">  1       21 0.55230043E-01 0.45751710E+03</pdfrwt>
<pdfrwt beam="2">  1       21 0.20490920E-01 0.45751710E+03</pdfrwt>
<totfact> 0.62968699E+04</totfact>
</mgrwt>
</event>
<event>
 7    0  0.4752811E-002  0.4570199E+03  0.7546771E-02  0.1025649E+00
         21   -1    0    0  502  501  0.00000000000E+00  0.00000000000E+00  0.29770317555E+03  0.29770317555E+03  0.00000000000E+00 0.  1.
         21   -1    0    0  501  502 -0.00000000000E+00 -0.00000000000E+00 -0.17539885225E+03  0.17539885225E+03  0.00000000000E+00 0.  1.
      99926    2    1    2    0    0 -0.71054273576E-14  0.17763568394E-14  0.12230432330E+03  0.47310202780E+03  0.45701989149E+03 0.  0.
      99925    2    3    3    0    0  0.60521191618E+02 -0.14651695742E+02  0.17684912952E+03  0.32310159177E+03  0.26313786723E+03 0.  0.
         25    1    3    3    0    0 -0.60521191618E+02  0.14651695742E+02 -0.54544806226E+02  0.15000043603E+03  0.12509000000E+03 0.  0.
         25    1    4    4    0    0  0.41624636624E+02  0.12949891411E+02  0.49297097658E+02  0.14134363091E+03  0.12509000000E+03 0.  0.
         25    1    4    4    0    0  0.18896554994E+02 -0.27601587153E+02  0.12755203186E+03  0.18175796086E+03  0.12509000000E+03 0.  0.
<mgrwt>
<rscale>  2 0.45701989E+03</rscale>
<asrwt>0</asrwt>
<pdfrwt beam="1">  1       21 0.43779879E-01 0.45701989E+03</pdfrwt>
<pdfrwt beam="2">  1       21 0.25793949E-01 0.45701989E+03</pdfrwt>
<totfact> 0.66139461E+04</totfact>
</mgrwt>
</event>
<event>
 7    0  0.4752811E-002  0.4511610E+03  0.7546771E-02  0.1027376E+00
         21   -1    0    0  502  501  0.00000000000E+00  0.00000000000E+00  0.74388155493E+03  0.74388155493E+03  0.00000000000E+00 0.  1.
         21   -1    0    0  501  502 -0.00000000000E+00 -0.00000000000E+00 -0.68406807549E+02  0.68406807549E+02  0.00000000000E+00 0.  1.
      99926    2    1    2    0    0  0.14210854715E-13  0.71054273576E-14  0.67547474738E+03  0.81228836248E+03  0.45116100171E+03 0.  0.
      99925    2    3    3    0    0  0.66568086827E+02  0.38997772791E+02  0.28654326148E+03  0.39651517276E+03  0.26299259507E+03 0.  0.
         25    1    3    3    0    0 -0.66568086827E+02 -0.38997772791E+02  0.38893148590E+03  0.41577318972E+03  0.12509000000E+03 0.  0.
         25    1    4    4    0    0  0.53567668104E+02  0.35715347154E+02  0.10459107820E+03  0.17530511352E+03  0.12509000000E+03 0.  0.
         25    1    4    4    0    0  0.13000418723E+02  0.32824256374E+01  0.18195218329E+03  0.22121005924E+03  0.12509000000E+03 0.  0.
<mgrwt>
<rscale>  2 0.45116100E+03</rscale>
<asrwt>0</asrwt>
<pdfrwt beam="1">  1       21 0.10939434E+00 0.45116100E+03</pdfrwt>
<pdfrwt beam="2">  1       21 0.10059825E-01 0.45116100E+03</pdfrwt>
<totfact> 0.48624526E+04</totfact>
</mgrwt>
</event>
<event>
 7    0  0.4752811E-002  0.4555085E+03  0.7546771E-02  0.1026092E+00
         21   -1    0    0  502  501  0.00000000000E+00  0.00000000000E+00  0.29588077356E+03  0.29588077356E+03  0.00000000000E+00 0. -1.
         21   -1    0    0  501  502 -0.00000000000E+00 -0.00000000000E+00 -0.17531383976E+03  0.17531383976E+03  0.00000000000E+00 0. -1.
      99926    2    1    2    0    0  0.00000000000E+00  0.00000000000E+00  0.12056693380E+03  0.47119461331E+03  0.45550848301E+03 0.  0.
      99925    2    3    3    0    0 -0.93267876841E+02  0.37030622465E+02  0.20715260351E+02  0.28228185927E+03  0.26302806354E+03 0.  0.
         25    1    3    3    0    0  0.93267876841E+02 -0.37030622465E+02  0.99851673450E+02  0.18891275405E+03  0.12509000000E+03 0.  0.
         25    1    4    4    0    0 -0.50621955158E+02  0.34027436952E+02  0.48165618057E+02  0.14726806739E+03  0.12509000000E+03 0.  0.
         25    1    4    4    0    0 -0.42645921683E+02  0.30031855131E+01 -0.27450357707E+02  0.13501379188E+03  0.12509000000E+03 0.  0.
<mgrwt>
<rscale>  2 0.45550848E+03</rscale>
<asrwt>0</asrwt>
<pdfrwt beam="1">  1       21 0.43511878E-01 0.45550848E+03</pdfrwt>
<pdfrwt beam="2">  1       21 0.25781447E-01 0.45550848E+03</pdfrwt>
<totfact> 0.67075976E+04</totfact>
</mgrwt>
</event>
<event>
 7    0  0.4752811E-002  0.4604832E+03  0.7546771E-02  0.1024641E+00
         21   -1    0    0  502  501  0.00000000000E+00  0.00000000000E+00  0.48227223183E+03  0.48227223183E+03  0.00000000000E+00 0.  1.
         21   -1    0    0  501  502 -0.00000000000E+00 -0.00000000000E+00 -0.10991967058E+03  0.10991967058E+03  0.00000000000E+00 0.  1.
      99926    2    1    2    0    0  0.88817841970E-15  0.00000000000E+00  0.37235256125E+03  0.59219190242E+03  0.46048324554E+03 0.  0.
      99925    2    3    3    0    0  0.67265592941E+01  0.44484382403E+02  0.92581827505E+02  0.28244478227E+03  0.26302006268E+03 0.  0.
         25    1    4    4    0    0 -0.32735091951E+02  0.12072332829E+02  0.28729789178E+02  0.13300464786E+03  0.12509000000E+03 0.  0.
         25    1    4    4    0    0  0.39461651245E+02  0.32412049574E+02  0.63852038326E+02  0.14944013442E+03  0.12509000000E+03 0.  0.
         25    1    3    3    0    0 -0.67265592941E+01 -0.44484382403E+02  0.27977073374E+03  0.30974712014E+03  0.12509000000E+03 0.  0.
<mgrwt>
<rscale>  2 0.46048325E+03</rscale>
<asrwt>0</asrwt>
<pdfrwt beam="1">  1       21 0.70922386E-01 0.46048325E+03</pdfrwt>
<pdfrwt beam="2">  1       21 0.16164658E-01 0.46048325E+03</pdfrwt>
<totfact> 0.56665631E+04</totfact>
</mgrwt>
</event>
<event>
 7    0  0.4752811E-002  0.4568974E+03  0.7546771E-02  0.1025685E+00
         21   -1    0    0  502  501  0.00000000000E+00  0.00000000000E+00  0.14380178765E+03  0.14380178765E+03  0.00000000000E+00 0.  1.
         21   -1    0    0  501  502 -0.00000000000E+00 -0.00000000000E+00 -0.36292184445E+03  0.36292184445E+03  0.00000000000E+00 0.  1.
      99926    2    1    2    0    0  0.00000000000E+00  0.00000000000E+00 -0.21912005679E+03  0.50672363210E+03  0.45689740647E+03 0.  0.
      99925    2    3    3    0    0 -0.32983239594E+02 -0.76573265356E+02 -0.22541037087E+03  0.35626288900E+03  0.26298679002E+03 0.  0.
         25    1    3    3    0    0  0.32983239594E+02  0.76573265356E+02  0.62903140722E+01  0.15046074309E+03  0.12509000000E+03 0.  0.
         25    1    4    4    0    0 -0.26696097136E+01 -0.74244914116E+02 -0.99997260508E+02  0.17654006428E+03  0.12509000000E+03 0.  0.
         25    1    4    4    0    0 -0.30313629880E+02 -0.23283512398E+01 -0.12541311036E+03  0.17972282472E+03  0.12509000000E+03 0.  0.
<mgrwt>
<rscale>  2 0.45689741E+03</rscale>
<asrwt>0</asrwt>
<pdfrwt beam="1">  1       21 0.21147322E-01 0.45689741E+03</pdfrwt>
<pdfrwt beam="2">  1       21 0.53370859E-01 0.45689741E+03</pdfrwt>
<totfact> 0.63834067E+04</totfact>
</mgrwt>
</event>
<event>
 7    0  0.4752811E-002  0.4544111E+03  0.7546771E-02  0.1026415E+00
         21   -1    0    0  502  501  0.00000000000E+00  0.00000000000E+00  0.57692901168E+02  0.57692901168E+02  0.00000000000E+00 0. -1.
         21   -1    0    0  501  502 -0.00000000000E+00 -0.00000000000E+00 -0.89477845513E+03  0.89477845513E+03  0.00000000000E+00 0. -1.
      99926    2    1    2    0    0  0.88817841970E-15 -0.14210854715E-13 -0.83708555396E+03  0.95247135629E+03  0.45441111333E+03 0.  0.
      99925    2    3    3    0    0 -0.22148304673E+01 -0.10380296237E+03 -0.61846283213E+03  0.68003170597E+03  0.26299598081E+03 0.  0.
         25    1    3    3    0    0  0.22148304673E+01  0.10380296237E+03 -0.21862272183E+03  0.27243965033E+03  0.12509000000E+03 0.  0.
         25    1    4    4    0    0 -0.32417557474E+02 -0.75754045660E+02 -0.36082688729E+03  0.39068289463E+03  0.12509000000E+03 0.  0.
         25    1    4    4    0    0  0.30202727007E+02 -0.28048916710E+02 -0.25763594484E+03  0.28934881134E+03  0.12509000000E+03 0.  0.
<mgrwt>
<rscale>  2 0.45441111E+03</rscale>
<asrwt>0</asrwt>
<pdfrwt beam="1">  1       21 0.84842501E-02 0.45441111E+03</pdfrwt>
<pdfrwt beam="2">  1       21 0.13158507E+00 0.45441111E+03</pdfrwt>
<totfact> 0.41230434E+04</totfact>
</mgrwt>
</event>
<event>
 7    0  0.4752811E-002  0.4575078E+03  0.7546771E-02  0.1025507E+00
         21   -1    0    0  502  501  0.00000000000E+00  0.00000000000E+00  0.46413840427E+03  0.46413840427E+03  0.00000000000E+00 0. -1.
         21   -1    0    0  501  502 -0.00000000000E+00 -0.00000000000E+00 -0.11274295798E+03  0.11274295798E+03  0.00000000000E+00 0. -1.
      99926    2    1    2    0    0 -0.71054273576E-14  0.17763568394E-14  0.35139544629E+03  0.57688136225E+03  0.45750775560E+03 0.  0.
      99925    2    3    3    0    0 -0.57301190292E+02 -0.10978999844E+02  0.94955760357E+02  0.28565501477E+03  0.26301753970E+03 0.  0.
         25    1    4    4    0    0 -0.68718521830E+02  0.33807323256E+01  0.44592916957E+02  0.14956503915E+03  0.12509000000E+03 0.  0.
         25    1    4    4    0    0  0.11417331538E+02 -0.14359732169E+02  0.50362843400E+02  0.13608997561E+03  0.12509000000E+03 0.  0.
         25    1    3    3    0    0  0.57301190292E+02  0.10978999844E+02  0.25643968593E+03  0.29122634748E+03  0.12509000000E+03 0.  0.
<mgrwt>
<rscale>  2 0.45750776E+03</rscale>
<asrwt>0</asrwt>
<pdfrwt beam="1">  1       21 0.68255647E-01 0.45750776E+03</pdfrwt>
<pdfrwt beam="2">  1       21 0.16579847E-01 0.45750776E+03</pdfrwt>
<totfact> 0.58946847E+04</totfact>
</mgrwt>
</event>
<event>
 7    0  0.4752811E-002  0.4549908E+03  0.7546771E-02  0.1026244E+00
         21   -1    0    0  502  501  0.00000000000E+00  0.00000000000E+00  0.43883164336E+03  0.43883164336E+03  0.00000000000E+00 0.  1.
         21   -1    0    0  501  502 -0.00000000000E+00 -0.00000000000E+00 -0.11793622226E+03  0.11793622226E+03  0.00000000000E+00 0.  1.
      99926    2    1    2    0    0  0.00000000000E+00  0.00000000000E+00  0.32089542110E+03  0.55676786561E+03  0.45499075254E+03 0.  0.
      99925    2    3    3    0    0 -0.83844660923E+01 -0.83003924209E+02  0.29551579486E+03  0.40428316398E+03  0.26297403095E+03 0.  0.
         25    1    4    4    0    0 -0.35276311987E+02 -0.30110004241E+02  0.11068576471E+03  0.17334900389E+03  0.12509000000E+03 0.  0.
         25    1    3    3    0    0  0.83844660923E+01  0.83003924209E+02  0.25379626242E+02  0.15248470164E+03  0.12509000000E+03 0.  0.
         25    1    4    4    0    0  0.26891845895E+02 -0.52893919968E+02  0.18483003015E+03  0.23093416008E+03  0.12509000000E+03 0.  0.
<mgrwt>
<rscale>  2 0.45499075E+03</rscale>
<asrwt>0</asrwt>
<pdfrwt beam="1">  1       21 0.64534065E-01 0.45499075E+03</pdfrwt>
<pdfrwt beam="2">  1       21 0.17343562E-01 0.45499075E+03</pdfrwt>
<totfact> 0.61425983E+04</totfact>
</mgrwt>
</event>
<event>
 7    0  0.4752811E-002  0.4573410E+03  0.7546771E-02  0.1025555E+00
         21   -1    0    0  502  501  0.00000000000E+00  0.00000000000E+00  0.16108477892E+03  0.16108477892E+03  0.00000000000E+00 0. -1.
         21   -1    0    0  501  502 -0.00000000000E+00 -0.00000000000E+00 -0.32461287154E+03  0.32461287154E+03  0.00000000000E+00 0. -1.
      99926    2    1    2    0    0 -0.14210854715E-13  0.71054273576E-14 -0.16352809262E+03  0.48569765046E+03  0.45734097847E+03 0.  0.
      99925    2    3    3    0    0  0.10437236275E+03 -0.46313554724E+02 -0.85187806148E+02  0.29908777923E+03  0.26297909025E+03 0.  0.
         25    1    4    4    0    0  0.11811000475E+02 -0.24827692141E+02 -0.53682262118E+02  0.13887118994E+03  0.12509000000E+03 0.  0.
         25    1    4    4    0    0  0.92561362279E+02 -0.21485862583E+02 -0.31505544030E+02  0.16021658929E+03  0.12509000000E+03 0.  0.
         25    1    3    3    0    0 -0.10437236275E+03  0.46313554724E+02 -0.78340286473E+02  0.18660987124E+03  0.12509000000E+03 0.  0.
<mgrwt>
<rscale>  2 0.45734098E+03</rscale>
<asrwt>0</asrwt>
<pdfrwt beam="1">  1       21 0.23688938E-01 0.45734098E+03</pdfrwt>
<pdfrwt beam="2">  1       21 0.47737187E-01 0.45734098E+03</pdfrwt>
<totfact> 0.65069988E+04</totfact>
</mgrwt>
</event>
<event>
 7    0  0.4752811E-002  0.4506875E+03  0.7546771E-02  0.1027517E+00
         21   -1    0    0  502  501  0.00000000000E+00  0.00000000000E+00  0.77523347542E+02  0.77523347542E+02  0.00000000000E+00 0. -1.
         21   -1    0    0  501  502 -0.00000000000E+00 -0.00000000000E+00 -0.65502583515E+03  0.65502583515E+03  0.00000000000E+00 0. -1.
      99926    2    1    2    0    0  0.00000000000E+00  0.00000000000E+00 -0.57750248761E+03  0.73254918269E+03  0.45068745475E+03 0.  0.
      99925    2    3    3    0    0 -0.41671080096E+02 -0.39938671752E+02 -0.21444180826E+03  0.34422954450E+03  0.26301542494E+03 0.  0.
         25    1    4    4    0    0 -0.16798096164E+02 -0.55652930567E+02 -0.13582316316E+03  0.19358425676E+03  0.12509000000E+03 0.  0.
         25    1    3    3    0    0  0.41671080096E+02  0.39938671752E+02 -0.36306067935E+03  0.38831963819E+03  0.12509000000E+03 0.  0.
         25    1    4    4    0    0 -0.24872983932E+02  0.15714258816E+02 -0.78618645100E+02  0.15064528774E+03  0.12509000000E+03 0.  0.
<mgrwt>
<rscale>  2 0.45068745E+03</rscale>
<asrwt>0</asrwt>
<pdfrwt beam="1">  1       21 0.11400492E-01 0.45068745E+03</pdfrwt>
<pdfrwt beam="2">  1       21 0.96327328E-01 0.45068745E+03</pdfrwt>
<totfact> 0.52943725E+04</totfact>
</mgrwt>
</event>
<event>
 7    0  0.4752811E-002  0.4531873E+03  0.7546771E-02  0.1026776E+00
         21   -1    0    0  502  501  0.00000000000E+00  0.00000000000E+00  0.21309042599E+03  0.21309042599E+03  0.00000000000E+00 0. -1.
         21   -1    0    0  501  502 -0.00000000000E+00 -0.00000000000E+00 -0.24095259044E+03  0.24095259044E+03  0.00000000000E+00 0. -1.
      99926    2    1    2    0    0 -0.14210854715E-13  0.00000000000E+00 -0.27862164449E+02  0.45404301643E+03  0.45318733496E+03 0.  0.
      99925    2    3    3    0    0 -0.67197259341E+02 -0.47586025945E+02  0.57678297812E+02  0.28157684493E+03  0.26301869142E+03 0.  0.
         25    1    4    4    0    0 -0.22582565092E+02 -0.21284380586E+02 -0.11766815957E+02  0.12941778533E+03  0.12509000000E+03 0.  0.
         25    1    3    3    0    0  0.67197259341E+02  0.47586025945E+02 -0.85540462261E+02  0.17246617150E+03  0.12509000000E+03 0.  0.
         25    1    4    4    0    0 -0.44614694248E+02 -0.26301645359E+02  0.69445113769E+02  0.15215905960E+03  0.12509000000E+03 0.  0.
<mgrwt>
<rscale>  2 0.45318733E+03</rscale>
<asrwt>0</asrwt>
<pdfrwt beam="1">  1       21 0.31336827E-01 0.45318733E+03</pdfrwt>
<pdfrwt beam="2">  1       21 0.35434204E-01 0.45318733E+03</pdfrwt>
<totfact> 0.69617427E+04</totfact>
</mgrwt>
</event>
<event>
 7    0  0.4752811E-002  0.4391934E+03  0.7546771E-02  0.1030995E+00
         21   -1    0    0  502  501  0.00000000000E+00  0.00000000000E+00  0.98652780128E+02  0.98652780128E+02  0.00000000000E+00 0.  1.
         21   -1    0    0  501  502 -0.00000000000E+00 -0.00000000000E+00 -0.48881253723E+03  0.48881253723E+03  0.00000000000E+00 0.  1.
      99926    2    1    2    0    0  0.35527136788E-14  0.00000000000E+00 -0.39015975710E+03  0.58746531735E+03  0.43919342326E+03 0.  0.
      99925    2    3    3    0    0 -0.24684864074E+02  0.50787666785E+02 -0.14261890989E+03  0.30442343221E+03  0.26295388000E+03 0.  0.
         25    1    4    4    0    0  0.73877333450E+01 -0.82553087093E+01 -0.82325247265E+02  0.15015885976E+03  0.12509000000E+03 0.  0.
         25    1    3    3    0    0  0.24684864074E+02 -0.50787666785E+02 -0.24754084721E+03  0.28304188515E+03  0.12509000000E+03 0.  0.
         25    1    4    4    0    0 -0.32072597419E+02  0.59042975494E+02 -0.60293662625E+02  0.15426457245E+03  0.12509000000E+03 0.  0.
<mgrwt>
<rscale>  2 0.43919342E+03</rscale>
<asrwt>0</asrwt>
<pdfrwt beam="1">  1       21 0.14507762E-01 0.43919342E+03</pdfrwt>
<pdfrwt beam="2">  1       21 0.71884197E-01 0.43919342E+03</pdfrwt>
<totfact> 0.67502486E+04</totfact>
</mgrwt>
</event>
<event>
 7    0  0.4752811E-002  0.4432973E+03  0.7546771E-02  0.1029740E+00
         21   -1    0    0  502  501  0.00000000000E+00  0.00000000000E+00  0.16279690720E+03  0.16279690720E+03  0.00000000000E+00 0. -1.
         21   -1    0    0  501  502 -0.00000000000E+00 -0.00000000000E+00 -0.30177557743E+03  0.30177557743E+03  0.00000000000E+00 0. -1.
      99926    2    1    2    0    0  0.17763568394E-14  0.00000000000E+00 -0.13897867023E+03  0.46457248463E+03  0.44329732990E+03 0.  0.
      99925    2    3    3    0    0 -0.14838271979E+02 -0.80297872161E+02 -0.24542562816E+02  0.27639423571E+03  0.26291350965E+03 0.  0.
         25    1    4    4    0    0 -0.32999546129E+02 -0.20439314627E+02  0.12907114250E+02  0.13160865217E+03  0.12509000000E+03 0.  0.
         25    1    4    4    0    0  0.18161274150E+02 -0.59858557533E+02 -0.37449677066E+02  0.14478558354E+03  0.12509000000E+03 0.  0.
         25    1    3    3    0    0  0.14838271979E+02  0.80297872161E+02 -0.11443610741E+03  0.18817824893E+03  0.12509000000E+03 0.  0.
<mgrwt>
<rscale>  2 0.44329733E+03</rscale>
<asrwt>0</asrwt>
<pdfrwt beam="1">  1       21 0.23940722E-01 0.44329733E+03</pdfrwt>
<pdfrwt beam="2">  1       21 0.44378760E-01 0.44329733E+03</pdfrwt>
<totfact> 0.74524516E+04</totfact>
</mgrwt>
</event>
<event>
 7    0  0.4752811E-002  0.4536731E+03  0.7546771E-02  0.1026632E+00
         21   -1    0    0  502  501  0.00000000000E+00  0.00000000000E+00  0.32903050814E+02  0.32903050814E+02  0.00000000000E+00 0.  1.
         21   -1    0    0  501  502 -0.00000000000E+00 -0.00000000000E+00 -0.15638315441E+04  0.15638315441E+04  0.00000000000E+00 0.  1.
      99926    2    1    2    0    0  0.14210854715E-13  0.26645352591E-14 -0.15309284933E+04  0.15967345950E+04  0.45367313679E+03 0.  0.
      99925    2    3    3    0    0 -0.67559629980E+02 -0.59914734092E+01 -0.65112346917E+03  0.70549692183E+03  0.26299036723E+03 0.  0.
         25    1    4    4    0    0 -0.18511994380E+02  0.34841216732E+02 -0.31560147607E+03  0.34177244494E+03  0.12509000000E+03 0.  0.
         25    1    3    3    0    0  0.67559629980E+02  0.59914734092E+01 -0.87980502417E+03  0.89123767313E+03  0.12509000000E+03 0.  0.
         25    1    4    4    0    0 -0.49047635600E+02 -0.40832690142E+02 -0.33552199309E+03  0.36372447689E+03  0.12509000000E+03 0.  0.
<mgrwt>
<rscale>  2 0.45367314E+03</rscale>
<asrwt>0</asrwt>
<pdfrwt beam="1">  1       21 0.48386835E-02 0.45367314E+03</pdfrwt>
<pdfrwt beam="2">  1       21 0.22997525E+00 0.45367314E+03</pdfrwt>
<totfact> 0.21726660E+04</totfact>
</mgrwt>
</event>
<event>
 7    0  0.4752811E-002  0.4606300E+03  0.7546771E-02  0.1024599E+00
         21   -1    0    0  502  501  0.00000000000E+00  0.00000000000E+00  0.53385669359E+02  0.53385669359E+02  0.00000000000E+00 0. -1.
         21   -1    0    0  501  502 -0.00000000000E+00 -0.00000000000E+00 -0.99361851405E+03  0.99361851405E+03  0.00000000000E+00 0. -1.
      99926    2    1    2    0    0  0.00000000000E+00  0.00000000000E+00 -0.94023284470E+03  0.10470041834E+04  0.46062995760E+03 0.  0.
      99925    2    3    3    0    0 -0.90551072382E+02  0.75824818390E+02 -0.60572091478E+03  0.67084645167E+03  0.26303656652E+03 0.  0.
         25    1    4    4    0    0 -0.41960850823E+01  0.35662266438E+02 -0.24708350472E+03  0.27926183194E+03  0.12509000000E+03 0.  0.
         25    1    3    3    0    0  0.90551072382E+02 -0.75824818390E+02 -0.33451192992E+03  0.37615773174E+03  0.12509000000E+03 0.  0.
         25    1    4    4    0    0 -0.86354987299E+02  0.40162551952E+02 -0.35863741006E+03  0.39158461973E+03  0.12509000000E+03 0.  0.
<mgrwt>
<rscale>  2 0.46062996E+03</rscale>
<asrwt>0</asrwt>
<pdfrwt beam="1">  1       21 0.78508337E-02 0.46062996E+03</pdfrwt>
<pdfrwt beam="2">  1       21 0.14612037E+00 0.46062996E+03</pdfrwt>
<totfact> 0.35788715E+04</totfact>
</mgrwt>
</event>
<event>
 7    0  0.4752811E-002  0.4569670E+03  0.7546771E-02  0.1025665E+00
         21   -1    0    0  502  501  0.00000000000E+00  0.00000000000E+00  0.20817536001E+03  0.20817536001E+03  0.00000000000E+00 0. -1.
         21   -1    0    0  501  502 -0.00000000000E+00 -0.00000000000E+00 -0.25077270637E+03  0.25077270637E+03  0.00000000000E+00 0. -1.
      99926    2    1    2    0    0  0.00000000000E+00  0.14210854715E-13 -0.42597346361E+02  0.45894806638E+03  0.45696695035E+03 0.  0.
      99925    2    3    3    0    0 -0.41468028756E+02  0.10065180009E+03 -0.64113338224E+02  0.29173314995E+03  0.26295879595E+03 0.  0.
         25    1    4    4    0    0 -0.87590649252E+01  0.12181617024E+02 -0.45562666954E+02  0.13397230211E+03  0.12509000000E+03 0.  0.
         25    1    3    3    0    0  0.41468028756E+02 -0.10065180009E+03  0.21515991862E+02  0.16721491643E+03  0.12509000000E+03 0.  0.
         25    1    4    4    0    0 -0.32708963831E+02  0.88470183070E+02 -0.18550671269E+02  0.15776084784E+03  0.12509000000E+03 0.  0.
<mgrwt>
<rscale>  2 0.45696695E+03</rscale>
<asrwt>0</asrwt>
<pdfrwt beam="1">  1       21 0.30614024E-01 0.45696695E+03</pdfrwt>
<pdfrwt beam="2">  1       21 0.36878339E-01 0.45696695E+03</pdfrwt>
<totfact> 0.67196771E+04</totfact>
</mgrwt>
</event>
<event>
 7    0  0.4752811E-002  0.4548075E+03  0.7546771E-02  0.1026298E+00
         21   -1    0    0  502  501  0.00000000000E+00  0.00000000000E+00  0.59016638106E+03  0.59016638106E+03  0.00000000000E+00 0.  1.
         21   -1    0    0  501  502 -0.00000000000E+00 -0.00000000000E+00 -0.87623538676E+02  0.87623538676E+02  0.00000000000E+00 0.  1.
      99926    2    1    2    0    0 -0.71054273576E-14  0.53290705182E-14  0.50254284238E+03  0.67778991974E+03  0.45480750529E+03 0.  0.
      99925    2    3    3    0    0 -0.50014790356E+02 -0.62157324445E+01  0.16534542682E+03  0.31462367716E+03  0.26288559009E+03 0.  0.
         25    1    4    4    0    0 -0.23362849805E+02 -0.43216478693E+02  0.88138958243E+02  0.16071549658E+03  0.12509000000E+03 0.  0.
         25    1    4    4    0    0 -0.26651940551E+02  0.37000746249E+02  0.77206468574E+02  0.15390818057E+03  0.12509000000E+03 0.  0.
         25    1    3    3    0    0  0.50014790356E+02  0.62157324445E+01  0.33719741557E+03  0.36316624258E+03  0.12509000000E+03 0.  0.
<mgrwt>
<rscale>  2 0.45480751E+03</rscale>
<asrwt>0</asrwt>
<pdfrwt beam="1">  1       21 0.86789172E-01 0.45480751E+03</pdfrwt>
<pdfrwt beam="2">  1       21 0.12885815E-01 0.45480751E+03</pdfrwt>
<totfact> 0.54208145E+04</totfact>
</mgrwt>
</event>
<event>
 7    0  0.4752811E-002  0.4500617E+03  0.7546771E-02  0.1027704E+00
         21   -1    0    0  502  501  0.00000000000E+00  0.00000000000E+00  0.19509898536E+03  0.19509898536E+03  0.00000000000E+00 0.  1.
         21   -1    0    0  501  502 -0.00000000000E+00 -0.00000000000E+00 -0.25955485614E+03  0.25955485614E+03  0.00000000000E+00 0.  1.
      99926    2    1    2    0    0  0.00000000000E+00  0.00000000000E+00 -0.64455870773E+02  0.45465384150E+03  0.45006172501E+03 0.  0.
      99925    2    3    3    0    0 -0.52135459577E+01  0.95622271990E+02 -0.92102065892E+02  0.29470816270E+03  0.26305761852E+03 0.  0.
         25    1    4    4    0    0  0.35148767516E+02  0.40050692552E+02 -0.58987362165E+02  0.14821103477E+03  0.12509000000E+03 0.  0.
         25    1    4    4    0    0 -0.40362313474E+02  0.55571579438E+02 -0.33114703727E+02  0.14649712793E+03  0.12509000000E+03 0.  0.
         25    1    3    3    0    0  0.52135459577E+01 -0.95622271990E+02  0.27646195119E+02  0.15994567880E+03  0.12509000000E+03 0.  0.
<mgrwt>
<rscale>  2 0.45006173E+03</rscale>
<asrwt>0</asrwt>
<pdfrwt beam="1">  1       21 0.28691027E-01 0.45006173E+03</pdfrwt>
<pdfrwt beam="2">  1       21 0.38169831E-01 0.45006173E+03</pdfrwt>
<totfact> 0.71340308E+04</totfact>
</mgrwt>
</event>
<event>
 7    0  0.4752811E-002  0.4557353E+03  0.7546771E-02  0.1026025E+00
         21   -1    0    0  502  501  0.00000000000E+00  0.00000000000E+00  0.81505153207E+03  0.81505153207E+03  0.00000000000E+00 0. -1.
         21   -1    0    0  501  502 -0.00000000000E+00 -0.00000000000E+00 -0.63705977934E+02  0.63705977934E+02  0.00000000000E+00 0. -1.
      99926    2    1    2    0    0 -0.14210854715E-13  0.00000000000E+00  0.75134555414E+03  0.87875751000E+03  0.45573525173E+03 0.  0.
      99925    2    3    3    0    0 -0.10402772958E+03  0.43633015874E+02  0.50123160818E+03  0.57721132340E+03  0.26308587614E+03 0.  0.
         25    1    3    3    0    0  0.10402772958E+03 -0.43633015874E+02  0.25011394596E+03  0.30154618661E+03  0.12509000000E+03 0.  0.
         25    1    4    4    0    0 -0.30157411982E+02  0.45943618569E+01  0.16855543114E+03  0.21210615061E+03  0.12509000000E+03 0.  0.
         25    1    4    4    0    0 -0.73870317595E+02  0.39038654017E+02  0.33267617704E+03  0.36510517279E+03  0.12509000000E+03 0.  0.
<mgrwt>
<rscale>  2 0.45573525E+03</rscale>
<asrwt>0</asrwt>
<pdfrwt beam="1">  1       21 0.11986051E+00 0.45573525E+03</pdfrwt>
<pdfrwt beam="2">  1       21 0.93685266E-02 0.45573525E+03</pdfrwt>
<totfact> 0.43911504E+04</totfact>
</mgrwt>
</event>
<event>
 7    0  0.4752811E-002  0.4634527E+03  0.7546771E-02  0.1023785E+00
         21   -1    0    0  502  501  0.00000000000E+00  0.00000000000E+00  0.65898950254E+02  0.65898950254E+02  0.00000000000E+00 0. -1.
         21   -1    0    0  501  502 -0.00000000000E+00 -0.00000000000E+00 -0.81483991622E+03  0.81483991622E+03  0.00000000000E+00 0. -1.
      99926    2    1    2    0    0  0.71054273576E-14  0.00000000000E+00 -0.74894096596E+03  0.88073886647E+03  0.46345267333E+03 0.  0.
      99925    2    3    3    0    0 -0.43729969764E+02  0.61400407557E+02 -0.28846193590E+03  0.39765423048E+03  0.26312787433E+03 0.  0.
         25    1    4    4    0    0 -0.41073515666E+02  0.60404545004E+02 -0.12184087965E+03  0.18928404793E+03  0.12509000000E+03 0.  0.
         25    1    3    3    0    0  0.43729969764E+02 -0.61400407557E+02 -0.46047903006E+03  0.48308463599E+03  0.12509000000E+03 0.  0.
         25    1    4    4    0    0 -0.26564540980E+01  0.99586255232E+00 -0.16662105625E+03  0.20837018255E+03  0.12509000000E+03 0.  0.
<mgrwt>
<rscale>  2 0.46345267E+03</rscale>
<asrwt>0</asrwt>
<pdfrwt beam="1">  1       21 0.96910222E-02 0.46345267E+03</pdfrwt>
<pdfrwt beam="2">  1       21 0.11982940E+00 0.46345267E+03</pdfrwt>
<totfact> 0.41275906E+04</totfact>
</mgrwt>
</event>
<event>
 7    0  0.4752811E-002  0.4579660E+03  0.7546771E-02  0.1025373E+00
         21   -1    0    0  502  501  0.00000000000E+00  0.00000000000E+00  0.56133050343E+02  0.56133050343E+02  0.00000000000E+00 0. -1.
         21   -1    0    0  501  502 -0.00000000000E+00 -0.00000000000E+00 -0.93408816369E+03  0.93408816369E+03  0.00000000000E+00 0. -1.
      99926    2    1    2    0    0  0.00000000000E+00  0.71054273576E-14 -0.87795511335E+03  0.99022121403E+03  0.45796601584E+03 0.  0.
      99925    2    3    3    0    0  0.39718373475E+02 -0.60317340344E+02 -0.74720272755E+03  0.79538942702E+03  0.26290053979E+03 0.  0.
         25    1    4    4    0    0  0.18203838636E+02  0.11068804237E+02 -0.35992568662E+03  0.38163844953E+03  0.12509000000E+03 0.  0.
         25    1    4    4    0    0  0.21514534839E+02 -0.71386144581E+02 -0.38727704093E+03  0.41375097749E+03  0.12509000000E+03 0.  0.
         25    1    3    3    0    0 -0.39718373475E+02  0.60317340344E+02 -0.13075238580E+03  0.19483178701E+03  0.12509000000E+03 0.  0.
<mgrwt>
<rscale>  2 0.45796602E+03</rscale>
<asrwt>0</asrwt>
<pdfrwt beam="1">  1       21 0.82548608E-02 0.45796602E+03</pdfrwt>
<pdfrwt beam="2">  1       21 0.13736590E+00 0.45796602E+03</pdfrwt>
<totfact> 0.38646140E+04</totfact>
</mgrwt>
</event>
<event>
 7    0  0.4752811E-002  0.4546770E+03  0.7546771E-02  0.1026336E+00
         21   -1    0    0  502  501  0.00000000000E+00  0.00000000000E+00  0.13037307529E+03  0.13037307529E+03  0.00000000000E+00 0. -1.
         21   -1    0    0  501  502 -0.00000000000E+00 -0.00000000000E+00 -0.39642224106E+03  0.39642224106E+03  0.00000000000E+00 0. -1.
      99926    2    1    2    0    0  0.17763568394E-14  0.00000000000E+00 -0.26604916577E+03  0.52679531635E+03  0.45467696964E+03 0.  0.
      99925    2    3    3    0    0 -0.10321956132E+02  0.32186966845E+02 -0.42737307002E+02  0.26861274920E+03  0.26302811259E+03 0.  0.
         25    1    3    3    0    0  0.10321956132E+02 -0.32186966845E+02 -0.22331185876E+03  0.25818256715E+03  0.12509000000E+03 0.  0.
         25    1    4    4    0    0  0.67069305901E+01 -0.27543191271E+01 -0.55422453449E+02  0.13700994722E+03  0.12509000000E+03 0.  0.
         25    1    4    4    0    0 -0.17028886722E+02  0.34941285972E+02  0.12685146447E+02  0.13160280198E+03  0.12509000000E+03 0.  0.
<mgrwt>
<rscale>  2 0.45467697E+03</rscale>
<asrwt>0</asrwt>
<pdfrwt beam="1">  1       21 0.19172511E-01 0.45467697E+03</pdfrwt>
<pdfrwt beam="2">  1       21 0.58297389E-01 0.45467697E+03</pdfrwt>
<totfact> 0.63586658E+04</totfact>
</mgrwt>
</event>
<event>
 7    0  0.4752811E-002  0.4412603E+03  0.7546771E-02  0.1030361E+00
         21   -1    0    0  502  501  0.00000000000E+00  0.00000000000E+00  0.80561980119E+02  0.80561980119E+02  0.00000000000E+00 0.  1.
         21   -1    0    0  501  502 -0.00000000000E+00 -0.00000000000E+00 -0.60422620275E+03  0.60422620275E+03  0.00000000000E+00 0.  1.
      99926    2    1    2    0    0  0.00000000000E+00  0.00000000000E+00 -0.52366422263E+03  0.68478818287E+03  0.44126028298E+03 0.  0.
      99925    2    3    3    0    0 -0.14257349930E+02  0.98603184677E+02 -0.32692734002E+03  0.43125560284E+03  0.26300959921E+03 0.  0.
         25    1    4    4    0    0 -0.19540527087E+02  0.79748061632E+02 -0.21696107749E+03  0.26355493314E+03  0.12509000000E+03 0.  0.
         25    1    4    4    0    0  0.52831771568E+01  0.18855123045E+02 -0.10996626253E+03  0.16770066971E+03  0.12509000000E+03 0.  0.
         25    1    3    3    0    0  0.14257349930E+02 -0.98603184677E+02 -0.19673688261E+03  0.25353258003E+03  0.12509000000E+03 0.  0.
<mgrwt>
<rscale>  2 0.44126028E+03</rscale>
<asrwt>0</asrwt>
<pdfrwt beam="1">  1       21 0.11847350E-01 0.44126028E+03</pdfrwt>
<pdfrwt beam="2">  1       21 0.88856793E-01 0.44126028E+03</pdfrwt>
<totfact> 0.59964836E+04</totfact>
</mgrwt>
</event>
<event>
 7    0  0.4752811E-002  0.4500713E+03  0.7546771E-02  0.1027701E+00
         21   -1    0    0  502  501  0.00000000000E+00  0.00000000000E+00  0.69342362336E+02  0.69342362336E+02  0.00000000000E+00 0. -1.
         21   -1    0    0  501  502 -0.00000000000E+00 -0.00000000000E+00 -0.73030471526E+03  0.73030471526E+03  0.00000000000E+00 0. -1.
      99926    2    1    2    0    0 -0.88817841970E-15  0.00000000000E+00 -0.66096235293E+03  0.79964707760E+03  0.45007134626E+03 0.  0.
      99925    2    3    3    0    0  0.42850335598E+01  0.84933068397E+01 -0.22590944213E+03  0.34686783662E+03  0.26304319467E+03 0.  0.
         25    1    3    3    0    0 -0.42850335598E+01 -0.84933068397E+01 -0.43505291079E+03  0.45277924098E+03  0.12509000000E+03 0.  0.
         25    1    4    4    0    0  0.66833398333E+01 -0.26328302196E+02 -0.77409959350E+02  0.14959163223E+03  0.12509000000E+03 0.  0.
         25    1    4    4    0    0 -0.23983062735E+01  0.34821609035E+02 -0.14849948278E+03  0.19727620438E+03  0.12509000000E+03 0.  0.
<mgrwt>
<rscale>  2 0.45007135E+03</rscale>
<asrwt>0</asrwt>
<pdfrwt beam="1">  1       21 0.10197407E-01 0.45007135E+03</pdfrwt>
<pdfrwt beam="2">  1       21 0.10739775E+00 0.45007135E+03</pdfrwt>
<totfact> 0.49675616E+04</totfact>
</mgrwt>
</event>
<event>
 7    0  0.4752811E-002  0.4625118E+03  0.7546771E-02  0.1024055E+00
         21   -1    0    0  502  501  0.00000000000E+00  0.00000000000E+00  0.73632209118E+03  0.73632209118E+03  0.00000000000E+00 0. -1.
         21   -1    0    0  501  502 -0.00000000000E+00 -0.00000000000E+00 -0.72630291930E+02  0.72630291930E+02  0.00000000000E+00 0. -1.
      99926    2    1    2    0    0  0.00000000000E+00  0.00000000000E+00  0.66369179925E+03  0.80895238311E+03  0.46251178769E+03 0.  0.
      99925    2    3    3    0    0 -0.38240437925E+02 -0.11098004760E+03  0.37063048587E+03  0.46937714320E+03  0.26300008260E+03 0.  0.
         25    1    4    4    0    0 -0.29072916586E+02 -0.97279693111E+02  0.22427378938E+03  0.27614274185E+03  0.12509000000E+03 0.  0.
         25    1    4    4    0    0 -0.91675213385E+01 -0.13700354489E+02  0.14635669648E+03  0.19323440135E+03  0.12509000000E+03 0.  0.
         25    1    3    3    0    0  0.38240437925E+02  0.11098004760E+03  0.29306131339E+03  0.33957523991E+03  0.12509000000E+03 0.  0.
<mgrwt>
<rscale>  2 0.46251179E+03</rscale>
<asrwt>0</asrwt>
<pdfrwt beam="1">  1       21 0.10828266E+00 0.46251179E+03</pdfrwt>
<pdfrwt beam="2">  1       21 0.10680926E-01 0.46251179E+03</pdfrwt>
<totfact> 0.44644430E+04</totfact>
</mgrwt>
</event>
<event>
 7    0  0.4752811E-002  0.4534879E+03  0.7546771E-02  0.1026687E+00
         21   -1    0    0  502  501  0.00000000000E+00  0.00000000000E+00  0.10430007884E+03  0.10430007884E+03  0.00000000000E+00 0.  1.
         21   -1    0    0  501  502 -0.00000000000E+00 -0.00000000000E+00 -0.49293175318E+03  0.49293175318E+03  0.00000000000E+00 0.  1.
      99926    2    1    2    0    0  0.00000000000E+00  0.35527136788E-14 -0.38863167434E+03  0.59723183202E+03  0.45348790820E+03 0.  0.
      99925    2    3    3    0    0  0.88157303214E+02 -0.19362270138E+02 -0.15783226246E+03  0.31963052756E+03  0.26288028352E+03 0.  0.
         25    1    4    4    0    0  0.43951076373E+02  0.30498757565E+02 -0.71833662854E+02  0.15384880418E+03  0.12509000000E+03 0.  0.
         25    1    3    3    0    0 -0.88157303214E+02  0.19362270138E+02 -0.23079941188E+03  0.27760130446E+03  0.12509000000E+03 0.  0.
         25    1    4    4    0    0  0.44206226840E+02 -0.49861027703E+02 -0.85998599602E+02  0.16578172339E+03  0.12509000000E+03 0.  0.
<mgrwt>
<rscale>  2 0.45348791E+03</rscale>
<asrwt>0</asrwt>
<pdfrwt beam="1">  1       21 0.15338247E-01 0.45348791E+03</pdfrwt>
<pdfrwt beam="2">  1       21 0.72489962E-01 0.45348791E+03</pdfrwt>
<totfact> 0.59557405E+04</totfact>
</mgrwt>
</event>
<event>
 7    0  0.4752811E-002  0.4570918E+03  0.7546771E-02  0.1025628E+00
         21   -1    0    0  502  501  0.00000000000E+00  0.00000000000E+00  0.97430842003E+02  0.97430842003E+02  0.00000000000E+00 0. -1.
         21   -1    0    0  501  502 -0.00000000000E+00 -0.00000000000E+00 -0.53610578929E+03  0.53610578929E+03  0.00000000000E+00 0. -1.
      99926    2    1    2    0    0  0.00000000000E+00  0.00000000000E+00 -0.43867494729E+03  0.63353663130E+03  0.45709184396E+03 0.  0.
      99925    2    3    3    0    0  0.83718030702E+02 -0.66664600171E+02 -0.33440629574E+03  0.43867171045E+03  0.26296847974E+03 0.  0.
         25    1    4    4    0    0  0.51659050237E+02 -0.71676339090E+02 -0.20390643625E+03  0.25501274067E+03  0.12509000000E+03 0.  0.
         25    1    3    3    0    0 -0.83718030702E+02  0.66664600171E+02 -0.10426865155E+03  0.19486492084E+03  0.12509000000E+03 0.  0.
         25    1    4    4    0    0  0.32058980465E+02  0.50117389190E+01 -0.13049985949E+03  0.18365896978E+03  0.12509000000E+03 0.  0.
<mgrwt>
<rscale>  2 0.45709184E+03</rscale>
<asrwt>0</asrwt>
<pdfrwt beam="1">  1       21 0.14328065E-01 0.45709184E+03</pdfrwt>
<pdfrwt beam="2">  1       21 0.78839086E-01 0.45709184E+03</pdfrwt>
<totfact> 0.55734082E+04</totfact>
</mgrwt>
</event>
<event>
 7    0  0.4752811E-002  0.4566608E+03  0.7546771E-02  0.1025754E+00
         21   -1    0    0  502  501  0.00000000000E+00  0.00000000000E+00  0.16687973599E+03  0.16687973599E+03  0.00000000000E+00 0.  1.
         21   -1    0    0  501  502 -0.00000000000E+00 -0.00000000000E+00 -0.31240926201E+03  0.31240926201E+03  0.00000000000E+00 0.  1.
      99926    2    1    2    0    0  0.14210854715E-13  0.22204460493E-15 -0.14552952602E+03  0.47928899801E+03  0.45666081578E+03 0.  0.
      99925    2    3    3    0    0  0.10773062174E+03  0.62504996119E+00 -0.50008977701E+02  0.28855892487E+03  0.26298113568E+03 0.  0.
         25    1    4    4    0    0  0.32113204157E+02 -0.14626873563E+02  0.87921746531E+01  0.13026900532E+03  0.12509000000E+03 0.  0.
         25    1    3    3    0    0 -0.10773062174E+03 -0.62504996119E+00 -0.95520548318E+02  0.19073007314E+03  0.12509000000E+03 0.  0.
         25    1    4    4    0    0  0.75617417584E+02  0.15251923525E+02 -0.58801152354E+02  0.15828991955E+03  0.12509000000E+03 0.  0.
<mgrwt>
<rscale>  2 0.45666082E+03</rscale>
<asrwt>0</asrwt>
<pdfrwt beam="1">  1       21 0.24541138E-01 0.45666082E+03</pdfrwt>
<pdfrwt beam="2">  1       21 0.45942538E-01 0.45666082E+03</pdfrwt>
<totfact> 0.65879184E+04</totfact>
</mgrwt>
</event>
<event>
 7    0  0.4752811E-002  0.4469308E+03  0.7546771E-02  0.1028641E+00
         21   -1    0    0  502  501  0.00000000000E+00  0.00000000000E+00  0.21095035543E+03  0.21095035543E+03  0.00000000000E+00 0. -1.
         21   -1    0    0  501  502 -0.00000000000E+00 -0.00000000000E+00 -0.23672290614E+03  0.23672290614E+03  0.00000000000E+00 0. -1.
      99926    2    1    2    0    0  0.00000000000E+00  0.00000000000E+00 -0.25772550712E+02  0.44767326157E+03  0.44693078295E+03 0.  0.
      99925    2    3    3    0    0 -0.52742552866E+02 -0.35629377395E+02  0.67831209239E+02  0.27897115312E+03  0.26300684765E+03 0.  0.
         25    1    4    4    0    0 -0.25366875423E+02 -0.55000508865E+02  0.52465800776E+02  0.14855538595E+03  0.12509000000E+03 0.  0.
         25    1    3    3    0    0  0.52742552866E+02  0.35629377395E+02 -0.93603759951E+02  0.16870210844E+03  0.12509000000E+03 0.  0.
         25    1    4    4    0    0 -0.27375677442E+02  0.19371131470E+02  0.15365408462E+02  0.13041576717E+03  0.12509000000E+03 0.  0.
<mgrwt>
<rscale>  2 0.44693078E+03</rscale>
<asrwt>0</asrwt>
<pdfrwt beam="1">  1       21 0.31022111E-01 0.44693078E+03</pdfrwt>
<pdfrwt beam="2">  1       21 0.34812192E-01 0.44693078E+03</pdfrwt>
<totfact> 0.73719085E+04</totfact>
</mgrwt>
</event>
<event>
 7    0  0.4752811E-002  0.4532155E+03  0.7546771E-02  0.1026767E+00
         21   -1    0    0  502  501  0.00000000000E+00  0.00000000000E+00  0.16572868703E+03  0.16572868703E+03  0.00000000000E+00 0.  1.
         21   -1    0    0  501  502 -0.00000000000E+00 -0.00000000000E+00 -0.30985024535E+03  0.30985024535E+03  0.00000000000E+00 0.  1.
      99926    2    1    2    0    0  0.00000000000E+00  0.00000000000E+00 -0.14412155832E+03  0.47557893238E+03  0.45321550873E+03 0.  0.
      99925    2    3    3    0    0 -0.20012754431E+02 -0.72590873238E+02 -0.17709898389E+03  0.32589605455E+03  0.26300996761E+03 0.  0.
         25    1    4    4    0    0 -0.28927873904E+02 -0.54933734048E+02 -0.12995220769E+03  0.19076063904E+03  0.12509000000E+03 0.  0.
         25    1    4    4    0    0  0.89151194734E+01 -0.17657139191E+02 -0.47146776203E+02  0.13513541551E+03  0.12509000000E+03 0.  0.
         25    1    3    3    0    0  0.20012754431E+02  0.72590873238E+02  0.32977425566E+02  0.14968287783E+03  0.12509000000E+03 0.  0.
<mgrwt>
<rscale>  2 0.45321551E+03</rscale>
<asrwt>0</asrwt>
<pdfrwt beam="1">  1       21 0.24371866E-01 0.45321551E+03</pdfrwt>
<pdfrwt beam="2">  1       21 0.45566212E-01 0.45321551E+03</pdfrwt>
<totfact> 0.67981044E+04</totfact>
</mgrwt>
</event>
<event>
 7    0  0.4752811E-002  0.4702507E+03  0.7546771E-02  0.1021849E+00
         21   -1    0    0  502  501  0.00000000000E+00  0.00000000000E+00  0.33575575802E+03  0.33575575802E+03  0.00000000000E+00 0.  1.
         21   -1    0    0  501  502 -0.00000000000E+00 -0.00000000000E+00 -0.16465517232E+03  0.16465517232E+03  0.00000000000E+00 0.  1.
      99926    2    1    2    0    0  0.14210854715E-13  0.00000000000E+00  0.17110058570E+03  0.50041093033E+03  0.47025066589E+03 0.  0.
      99925    2    3    3    0    0 -0.10939253713E+03  0.20782148045E+02  0.17070225902E+03  0.33294065948E+03  0.26327095670E+03 0.  0.
         25    1    4    4    0    0 -0.31235427533E+02 -0.20784494817E+02  0.58989847357E+02  0.14330023499E+03  0.12509000000E+03 0.  0.
         25    1    4    4    0    0 -0.78157109594E+02  0.41566642862E+02  0.11171241166E+03  0.18964042448E+03  0.12509000000E+03 0.  0.
         25    1    3    3    0    0  0.10939253713E+03 -0.20782148045E+02  0.39832668172E+00  0.16747027086E+03  0.12509000000E+03 0.  0.
<mgrwt>
<rscale>  2 0.47025067E+03</rscale>
<asrwt>0</asrwt>
<pdfrwt beam="1">  1       21 0.49375847E-01 0.47025067E+03</pdfrwt>
<pdfrwt beam="2">  1       21 0.24213996E-01 0.47025067E+03</pdfrwt>
<totfact> 0.57907116E+04</totfact>
</mgrwt>
</event>
<event>
 7    0  0.4752811E-002  0.4509854E+03  0.7546771E-02  0.1027429E+00
         21   -1    0    0  502  501  0.00000000000E+00  0.00000000000E+00  0.36800480901E+03  0.36800480901E+03  0.00000000000E+00 0. -1.
         21   -1    0    0  501  502 -0.00000000000E+00 -0.00000000000E+00 -0.13816929353E+03  0.13816929353E+03  0.00000000000E+00 0. -1.
      99926    2    1    2    0    0  0.00000000000E+00  0.00000000000E+00  0.22983551548E+03  0.50617410254E+03  0.45098542981E+03 0.  0.
      99925    2    3    3    0    0  0.64997376822E+01  0.90513646611E+02  0.76057857837E+02  0.28816024311E+03  0.26271003246E+03 0.  0.
         25    1    4    4    0    0  0.51209503358E+01  0.76657938512E+02  0.68708137534E+02  0.16208325001E+03  0.12509000000E+03 0.  0.
         25    1    4    4    0    0  0.13787873464E+01  0.13855708099E+02  0.73497203031E+01  0.12607699310E+03  0.12509000000E+03 0.  0.
         25    1    3    3    0    0 -0.64997376822E+01 -0.90513646611E+02  0.15377765764E+03  0.21801385943E+03  0.12509000000E+03 0.  0.
<mgrwt>
<rscale>  2 0.45098543E+03</rscale>
<asrwt>0</asrwt>
<pdfrwt beam="1">  1       21 0.54118354E-01 0.45098543E+03</pdfrwt>
<pdfrwt beam="2">  1       21 0.20319014E-01 0.45098543E+03</pdfrwt>
<totfact> 0.66946823E+04</totfact>
</mgrwt>
</event>
<event>
 7    0  0.4752811E-002  0.4542086E+03  0.7546771E-02  0.1026474E+00
         21   -1    0    0  502  501  0.00000000000E+00  0.00000000000E+00  0.10389509666E+03  0.10389509666E+03  0.00000000000E+00 0. -1.
         21   -1    0    0  501  502 -0.00000000000E+00 -0.00000000000E+00 -0.49642732373E+03  0.49642732373E+03  0.00000000000E+00 0. -1.
      99926    2    1    2    0    0 -0.71054273576E-14  0.00000000000E+00 -0.39253222706E+03  0.60032242039E+03  0.45420860752E+03 0.  0.
      99925    2    3    3    0    0  0.53318935345E+02 -0.98767898362E+02 -0.24249805937E+03  0.37503201627E+03  0.26314577294E+03 0.  0.
         25    1    4    4    0    0  0.49747557202E+02 -0.83855921357E+02 -0.15375931752E+03  0.22089832688E+03  0.12509000000E+03 0.  0.
         25    1    3    3    0    0 -0.53318935345E+02  0.98767898362E+02 -0.15003416769E+03  0.22529040412E+03  0.12509000000E+03 0.  0.
         25    1    4    4    0    0  0.35713781431E+01 -0.14911977005E+02 -0.88738741847E+02  0.15413368939E+03  0.12509000000E+03 0.  0.
<mgrwt>
<rscale>  2 0.45420861E+03</rscale>
<asrwt>0</asrwt>
<pdfrwt beam="1">  1       21 0.15278691E-01 0.45420861E+03</pdfrwt>
<pdfrwt beam="2">  1       21 0.73004016E-01 0.45420861E+03</pdfrwt>
<totfact> 0.59026650E+04</totfact>
</mgrwt>
</event>
<event>
 7    0  0.4752811E-002  0.4523309E+03  0.7546771E-02  0.1027029E+00
         21   -1    0    0  502  501  0.00000000000E+00  0.00000000000E+00  0.79167633442E+02  0.79167633442E+02  0.00000000000E+00 0. -1.
         21   -1    0    0  501  502 -0.00000000000E+00 -0.00000000000E+00 -0.64610765991E+03  0.64610765991E+03  0.00000000000E+00 0. -1.
      99926    2    1    2    0    0  0.14210854715E-13  0.00000000000E+00 -0.56694002647E+03  0.72527529335E+03  0.45233091596E+03 0.  0.
      99925    2    3    3    0    0  0.10904619538E+03  0.10892981108E+02 -0.33525701740E+03  0.44008368310E+03  0.26318558215E+03 0.  0.
         25    1    4    4    0    0  0.97084983039E+02  0.16637065174E+01 -0.20232103954E+03  0.25692328230E+03  0.12509000000E+03 0.  0.
         25    1    3    3    0    0 -0.10904619538E+03 -0.10892981108E+02 -0.23168300907E+03  0.28519161025E+03  0.12509000000E+03 0.  0.
         25    1    4    4    0    0  0.11961212343E+02  0.92292745909E+01 -0.13293597786E+03  0.18316040080E+03  0.12509000000E+03 0.  0.
<mgrwt>
<rscale>  2 0.45233092E+03</rscale>
<asrwt>0</asrwt>
<pdfrwt beam="1">  1       21 0.11642299E-01 0.45233092E+03</pdfrwt>
<pdfrwt beam="2">  1       21 0.95015830E-01 0.45233092E+03</pdfrwt>
<totfact> 0.52648575E+04</totfact>
</mgrwt>
</event>
<event>
 7    0  0.4752811E-002  0.4579973E+03  0.7546771E-02  0.1025364E+00
         21   -1    0    0  502  501  0.00000000000E+00  0.00000000000E+00  0.17359562067E+03  0.17359562067E+03  0.00000000000E+00 0.  1.
         21   -1    0    0  501  502 -0.00000000000E+00 -0.00000000000E+00 -0.30208360437E+03  0.30208360437E+03  0.00000000000E+00 0.  1.
      99926    2    1    2    0    0  0.35527136788E-14  0.00000000000E+00 -0.12848798371E+03  0.47567922504E+03  0.45799733970E+03 0.  0.
      99925    2    3    3    0    0  0.29828278611E+02 -0.77600248094E+02 -0.16461409430E+03  0.32119903642E+03  0.26298193141E+03 0.  0.
         25    1    3    3    0    0 -0.29828278611E+02  0.77600248094E+02  0.36126110593E+02  0.15448018862E+03  0.12509000000E+03 0.  0.
         25    1    4    4    0    0 -0.74101417147E+01 -0.72250706399E+02 -0.76464488067E+02  0.16361357160E+03  0.12509000000E+03 0.  0.
         25    1    4    4    0    0  0.37238420326E+02 -0.53495416954E+01 -0.88149606232E+02  0.15758546482E+03  0.12509000000E+03 0.  0.
<mgrwt>
<rscale>  2 0.45799734E+03</rscale>
<asrwt>0</asrwt>
<pdfrwt beam="1">  1       21 0.25528768E-01 0.45799734E+03</pdfrwt>
<pdfrwt beam="2">  1       21 0.44424059E-01 0.45799734E+03</pdfrwt>
<totfact> 0.65445487E+04</totfact>
</mgrwt>
</event>
<event>
 7    0  0.4752811E-002  0.4535873E+03  0.7546771E-02  0.1026658E+00
         21   -1    0    0  502  501  0.00000000000E+00  0.00000000000E+00  0.28115298876E+03  0.28115298876E+03  0.00000000000E+00 0.  1.
         21   -1    0    0  501  502 -0.00000000000E+00 -0.00000000000E+00 -0.18294439552E+03  0.18294439552E+03  0.00000000000E+00 0.  1.
      99926    2    1    2    0    0  0.00000000000E+00 -0.53290705182E-14  0.98208593246E+02  0.46409738428E+03  0.45358731718E+03 0.  0.
      99925    2    3    3    0    0 -0.15094583280E+02  0.61975510005E+00 -0.51562525183E+02  0.26837531972E+03  0.26294179525E+03 0.  0.
         25    1    3    3    0    0  0.15094583280E+02 -0.61975510005E+00  0.14977111843E+03  0.19572206456E+03  0.12509000000E+03 0.  0.
         25    1    4    4    0    0 -0.74991957561E+01 -0.40142081183E+02 -0.24888409231E+02  0.13391999714E+03  0.12509000000E+03 0.  0.
         25    1    4    4    0    0 -0.75953875243E+01  0.40761836283E+02 -0.26674115952E+02  0.13445532258E+03  0.12509000000E+03 0.  0.
<mgrwt>
<rscale>  2 0.45358732E+03</rscale>
<asrwt>0</asrwt>
<pdfrwt beam="1">  1       21 0.41346028E-01 0.45358732E+03</pdfrwt>
<pdfrwt beam="2">  1       21 0.26903587E-01 0.45358732E+03</pdfrwt>
<totfact> 0.68643778E+04</totfact>
</mgrwt>
</event>
<event>
 7    0  0.4752811E-002  0.4507590E+03  0.7546771E-02  0.1027496E+00
         21   -1    0    0  502  501  0.00000000000E+00  0.00000000000E+00  0.27223973021E+03  0.27223973021E+03  0.00000000000E+00 0.  1.
         21   -1    0    0  501  502 -0.00000000000E+00 -0.00000000000E+00 -0.18658523044E+03  0.18658523044E+03  0.00000000000E+00 0.  1.
      99926    2    1    2    0    0 -0.71054273576E-14 -0.35527136788E-14  0.85654499767E+02  0.45882496065E+03  0.45075897238E+03 0.  0.
      99925    2    3    3    0    0  0.35198935488E+02  0.21540491776E+02  0.15687342163E+03  0.30908318032E+03  0.26309729017E+03 0.  0.
         25    1    3    3    0    0 -0.35198935488E+02 -0.21540491776E+02 -0.71218921859E+02  0.14974178033E+03  0.12509000000E+03 0.  0.
         25    1    4    4    0    0  0.48661748224E+02  0.37612884109E+02  0.78191065090E+02  0.15982504669E+03  0.12509000000E+03 0.  0.
         25    1    4    4    0    0 -0.13462812736E+02 -0.16072392333E+02  0.78682356537E+02  0.14925813362E+03  0.12509000000E+03 0.  0.
<mgrwt>
<rscale>  2 0.45075897E+03</rscale>
<asrwt>0</asrwt>
<pdfrwt beam="1">  1       21 0.40035255E-01 0.45075897E+03</pdfrwt>
<pdfrwt beam="2">  1       21 0.27439004E-01 0.45075897E+03</pdfrwt>
<totfact> 0.70622062E+04</totfact>
</mgrwt>
</event>
<event>
 7    0  0.4752811E-002  0.4356253E+03  0.7546771E-02  0.1032098E+00
         21   -1    0    0  502  501  0.00000000000E+00  0.00000000000E+00  0.64087602080E+03  0.64087602080E+03  0.00000000000E+00 0. -1.
         21   -1    0    0  501  502 -0.00000000000E+00 -0.00000000000E+00 -0.74027349407E+02  0.74027349407E+02  0.00000000000E+00 0. -1.
      99926    2    1    2    0    0 -0.71054273576E-14  0.44408920985E-15  0.56684867140E+03  0.71490337021E+03  0.43562531202E+03 0.  0.
      99925    2    3    3    0    0 -0.53695711702E+02 -0.18076850042E+01  0.48965927403E+03  0.55840350329E+03  0.26298625565E+03 0.  0.
         25    1    4    4    0    0 -0.37768779051E+01  0.31072205052E+02  0.25798774412E+03  0.28841797959E+03  0.12509000000E+03 0.  0.
         25    1    3    3    0    0  0.53695711702E+02  0.18076850042E+01  0.77189397364E+02  0.15649986692E+03  0.12509000000E+03 0.  0.
         25    1    4    4    0    0 -0.49918833797E+02 -0.32879890056E+02  0.23167152991E+03  0.26998552370E+03  0.12509000000E+03 0.  0.
<mgrwt>
<rscale>  2 0.43562531E+03</rscale>
<asrwt>0</asrwt>
<pdfrwt beam="1">  1       21 0.94246470E-01 0.43562531E+03</pdfrwt>
<pdfrwt beam="2">  1       21 0.10886375E-01 0.43562531E+03</pdfrwt>
<totfact> 0.60860052E+04</totfact>
</mgrwt>
</event>
<event>
 7    0  0.4752811E-002  0.4556547E+03  0.7546771E-02  0.1026049E+00
         21   -1    0    0  502  501  0.00000000000E+00  0.00000000000E+00  0.45931738461E+02  0.45931738461E+02  0.00000000000E+00 0. -1.
         21   -1    0    0  501  502 -0.00000000000E+00 -0.00000000000E+00 -0.11300530237E+04  0.11300530237E+04  0.00000000000E+00 0. -1.
      99926    2    1    2    0    0  0.00000000000E+00  0.14210854715E-13 -0.10841212853E+04  0.11759847622E+04  0.45565469353E+03 0.  0.
      99925    2    3    3    0    0 -0.60639015217E+02 -0.91641179126E+02 -0.60844565105E+03  0.67201054364E+03  0.26328096133E+03 0.  0.
         25    1    3    3    0    0  0.60639015217E+02  0.91641179126E+02 -0.47567563420E+03  0.50397421854E+03  0.12509000000E+03 0.  0.
         25    1    4    4    0    0 -0.71570012305E+02 -0.57451912003E+02 -0.32834678611E+03  0.36315576396E+03  0.12509000000E+03 0.  0.
         25    1    4    4    0    0  0.10930997088E+02 -0.34189267124E+02 -0.28009886495E+03  0.30885477968E+03  0.12509000000E+03 0.  0.
<mgrwt>
<rscale>  2 0.45565469E+03</rscale>
<asrwt>0</asrwt>
<pdfrwt beam="1">  1       21 0.67546671E-02 0.45565469E+03</pdfrwt>
<pdfrwt beam="2">  1       21 0.16618428E+00 0.45565469E+03</pdfrwt>
<totfact> 0.32759104E+04</totfact>
</mgrwt>
</event>
<event>
 7    0  0.4752811E-002  0.4524085E+03  0.7546771E-02  0.1027006E+00
         21   -1    0    0  502  501  0.00000000000E+00  0.00000000000E+00  0.32166687734E+03  0.32166687734E+03  0.00000000000E+00 0. -1.
         21   -1    0    0  501  502 -0.00000000000E+00 -0.00000000000E+00 -0.15907252824E+03  0.15907252824E+03  0.00000000000E+00 0. -1.
      99926    2    1    2    0    0  0.00000000000E+00 -0.14210854715E-13  0.16259434910E+03  0.48073940558E+03  0.45240850314E+03 0.  0.
      99925    2    3    3    0    0  0.34482495201E+02  0.76872610755E+02  0.26401335271E+02  0.27752895831E+03  0.26310996074E+03 0.  0.
         25    1    3    3    0    0 -0.34482495201E+02 -0.76872610755E+02  0.13619301383E+03  0.20321044726E+03  0.12509000000E+03 0.  0.
         25    1    4    4    0    0  0.47740647125E+02  0.42404266184E+02 -0.13608176325E+02  0.14110273471E+03  0.12509000000E+03 0.  0.
         25    1    4    4    0    0 -0.13258151924E+02  0.34468344571E+02  0.40009511596E+02  0.13642622361E+03  0.12509000000E+03 0.  0.
<mgrwt>
<rscale>  2 0.45240850E+03</rscale>
<asrwt>0</asrwt>
<pdfrwt beam="1">  1       21 0.47303953E-01 0.45240850E+03</pdfrwt>
<pdfrwt beam="2">  1       21 0.23393019E-01 0.45240850E+03</pdfrwt>
<totfact> 0.68035141E+04</totfact>
</mgrwt>
</event>
<event>
 7    0  0.4752811E-002  0.4371034E+03  0.7546771E-02  0.1031639E+00
         21   -1    0    0  502  501  0.00000000000E+00  0.00000000000E+00  0.41399963650E+03  0.41399963650E+03  0.00000000000E+00 0.  1.
         21   -1    0    0  501  502 -0.00000000000E+00 -0.00000000000E+00 -0.11537412958E+03  0.11537412958E+03  0.00000000000E+00 0.  1.
      99926    2    1    2    0    0 -0.71054273576E-14  0.71054273576E-14  0.29862550692E+03  0.52937376608E+03  0.43710340976E+03 0.  0.
      99925    2    3    3    0    0  0.57177119607E+02 -0.45519206839E+02  0.26536859401E+03  0.38073073209E+03  0.26304786346E+03 0.  0.
         25    1    4    4    0    0  0.70017123704E+02 -0.22300661341E+02  0.13698761056E+03  0.19953152797E+03  0.12509000000E+03 0.  0.
         25    1    4    4    0    0 -0.12840004097E+02 -0.23218545498E+02  0.12838098345E+03  0.18119920411E+03  0.12509000000E+03 0.  0.
         25    1    3    3    0    0 -0.57177119607E+02  0.45519206839E+02  0.33256912914E+02  0.14864303399E+03  0.12509000000E+03 0.  0.
<mgrwt>
<rscale>  2 0.43710341E+03</rscale>
<asrwt>0</asrwt>
<pdfrwt beam="1">  1       21 0.60882299E-01 0.43710341E+03</pdfrwt>
<pdfrwt beam="2">  1       21 0.16966784E-01 0.43710341E+03</pdfrwt>
<totfact> 0.73064081E+04</totfact>
</mgrwt>
</event>
<event>
 7    0  0.4752811E-002  0.4718804E+03  0.7546771E-02  0.1021391E+00
         21   -1    0    0  502  501  0.00000000000E+00  0.00000000000E+00  0.37458826082E+04  0.37458826082E+04  0.00000000000E+00 0. -1.
         21   -1    0    0  501  502 -0.00000000000E+00 -0.00000000000E+00 -0.14861060690E+02  0.14861060690E+02  0.00000000000E+00 0. -1.
      99926    2    1    2    0    0  0.14210854715E-13  0.71054273576E-14  0.37310215475E+04  0.37607436689E+04  0.47188044578E+03 0.  0.
      99925    2    3    3    0    0  0.10952379576E+03  0.49229706800E+02  0.26752209421E+04  0.26907990664E+04  0.26300855676E+03 0.  0.
         25    1    3    3    0    0 -0.10952379576E+03 -0.49229706800E+02  0.10558006054E+04  0.10699446025E+04  0.12509000000E+03 0.  0.
         25    1    4    4    0    0  0.96578514729E+02  0.15365497237E+02  0.15058929763E+04  0.15142406256E+04  0.12509000000E+03 0.  0.
         25    1    4    4    0    0  0.12945281031E+02  0.33864209563E+02  0.11693279658E+04  0.11765584408E+04  0.12509000000E+03 0.  0.
<mgrwt>
<rscale>  2 0.47188045E+03</rscale>
<asrwt>0</asrwt>
<pdfrwt beam="1">  1       21 0.55086444E+00 0.47188045E+03</pdfrwt>
<pdfrwt beam="2">  1       21 0.21854527E-02 0.47188045E+03</pdfrwt>
<totfact> 0.66488260E+02</totfact>
</mgrwt>
</event>
<event>
 7    0  0.4752811E-002  0.4562821E+03  0.7546771E-02  0.1025865E+00
         21   -1    0    0  502  501  0.00000000000E+00  0.00000000000E+00  0.22904143556E+02  0.22904143556E+02  0.00000000000E+00 0.  1.
         21   -1    0    0  501  502 -0.00000000000E+00 -0.00000000000E+00 -0.22724416013E+04  0.22724416013E+04  0.00000000000E+00 0.  1.
      99926    2    1    2    0    0  0.00000000000E+00  0.00000000000E+00 -0.22495374578E+04  0.22953457449E+04  0.45628205601E+03 0.  0.
      99925    2    3    3    0    0 -0.71945728240E+02  0.17411034093E+02 -0.97423487302E+03  0.10117868165E+04  0.26286810812E+03 0.  0.
         25    1    4    4    0    0 -0.12652157262E+02  0.35464114067E+02 -0.54419112087E+03  0.55965102037E+03  0.12509000000E+03 0.  0.
         25    1    3    3    0    0  0.71945728240E+02 -0.17411034093E+02 -0.12753025847E+04  0.12835589284E+04  0.12509000000E+03 0.  0.
         25    1    4    4    0    0 -0.59293570978E+02 -0.18053079974E+02 -0.43004375216E+03  0.45213579611E+03  0.12509000000E+03 0.  0.
<mgrwt>
<rscale>  2 0.45628206E+03</rscale>
<asrwt>0</asrwt>
<pdfrwt beam="1">  1       21 0.33682568E-02 0.45628206E+03</pdfrwt>
<pdfrwt beam="2">  1       21 0.33418255E+00 0.45628206E+03</pdfrwt>
<totfact> 0.93656115E+03</totfact>
</mgrwt>
</event>
<event>
 7    0  0.4752811E-002  0.4583140E+03  0.7546771E-02  0.1025271E+00
         21   -1    0    0  502  501  0.00000000000E+00  0.00000000000E+00  0.39813951402E+03  0.39813951402E+03  0.00000000000E+00 0.  1.
         21   -1    0    0  501  502 -0.00000000000E+00 -0.00000000000E+00 -0.13189581885E+03  0.13189581885E+03  0.00000000000E+00 0.  1.
      99926    2    1    2    0    0  0.00000000000E+00 -0.17763568394E-14  0.26624369517E+03  0.53003533286E+03  0.45831402866E+03 0.  0.
      99925    2    3    3    0    0  0.10863280406E+03 -0.13637897246E+02  0.12180355023E+03  0.30981375824E+03  0.26298551593E+03 0.  0.
         25    1    4    4    0    0  0.88039082280E+02 -0.22036296601E+02  0.90004991775E+02  0.17884318556E+03  0.12509000000E+03 0.  0.
         25    1    4    4    0    0  0.20593721777E+02  0.83983993550E+01  0.31798558453E+02  0.13097057268E+03  0.12509000000E+03 0.  0.
         25    1    3    3    0    0 -0.10863280406E+03  0.13637897246E+02  0.14444014494E+03  0.22022157462E+03  0.12509000000E+03 0.  0.
<mgrwt>
<rscale>  2 0.45831403E+03</rscale>
<asrwt>0</asrwt>
<pdfrwt beam="1">  1       21 0.58549928E-01 0.45831403E+03</pdfrwt>
<pdfrwt beam="2">  1       21 0.19396444E-01 0.45831403E+03</pdfrwt>
<totfact> 0.61570804E+04</totfact>
</mgrwt>
</event>
<event>
 7    0  0.4752811E-002  0.4432019E+03  0.7546771E-02  0.1029769E+00
         21   -1    0    0  502  501  0.00000000000E+00  0.00000000000E+00  0.53612318206E+03  0.53612318206E+03  0.00000000000E+00 0. -1.
         21   -1    0    0  501  502 -0.00000000000E+00 -0.00000000000E+00 -0.91596452302E+02  0.91596452302E+02  0.00000000000E+00 0. -1.
      99926    2    1    2    0    0 -0.17763568394E-14  0.71054273576E-14  0.44452672976E+03  0.62771963437E+03  0.44320190196E+03 0.  0.
      99925    2    3    3    0    0 -0.13116431362E+02 -0.54615788944E+02  0.16271240043E+03  0.31431614126E+03  0.26299122843E+03 0.  0.
         25    1    4    4    0    0  0.17731844669E+02  0.61077316966E+01  0.75693265798E+02  0.14740658496E+03  0.12509000000E+03 0.  0.
         25    1    3    3    0    0  0.13116431362E+02  0.54615788944E+02  0.28181432933E+03  0.31340349311E+03  0.12509000000E+03 0.  0.
         25    1    4    4    0    0 -0.30848276031E+02 -0.60723520641E+02  0.87019134631E+02  0.16690955630E+03  0.12509000000E+03 0.  0.
<mgrwt>
<rscale>  2 0.44320190E+03</rscale>
<asrwt>0</asrwt>
<pdfrwt beam="1">  1       21 0.78841643E-01 0.44320190E+03</pdfrwt>
<pdfrwt beam="2">  1       21 0.13470067E-01 0.44320190E+03</pdfrwt>
<totfact> 0.62636592E+04</totfact>
</mgrwt>
</event>
<event>
 7    0  0.4752811E-002  0.4836962E+03  0.7546771E-02  0.1018124E+00
         21   -1    0    0  502  501  0.00000000000E+00  0.00000000000E+00  0.28867214850E+02  0.28867214850E+02  0.00000000000E+00 0. -1.
         21   -1    0    0  501  502 -0.00000000000E+00 -0.00000000000E+00 -0.20261911681E+04  0.20261911681E+04  0.00000000000E+00 0. -1.
      99926    2    1    2    0    0  0.00000000000E+00  0.00000000000E+00 -0.19973239532E+04  0.20550583829E+04  0.48369616817E+03 0.  0.
      99925    2    3    3    0    0 -0.13041544942E+03 -0.36315049646E+02 -0.11153817374E+04  0.11540608510E+04  0.26353947624E+03 0.  0.
         25    1    3    3    0    0  0.13041544942E+03  0.36315049646E+02 -0.88194221581E+03  0.90099753186E+03  0.12509000000E+03 0.  0.
         25    1    4    4    0    0 -0.59864235234E+02 -0.51694124946E+02 -0.47167455399E+03  0.49434846232E+03  0.12509000000E+03 0.  0.
         25    1    4    4    0    0 -0.70551214190E+02  0.15379075300E+02 -0.64370718340E+03  0.65971238873E+03  0.12509000000E+03 0.  0.
<mgrwt>
<rscale>  2 0.48369617E+03</rscale>
<asrwt>0</asrwt>
<pdfrwt beam="1">  1       21 0.42451777E-02 0.48369617E+03</pdfrwt>
<pdfrwt beam="2">  1       21 0.29796936E+00 0.48369617E+03</pdfrwt>
<totfact> 0.10331365E+04</totfact>
</mgrwt>
</event>
<event>
 7    0  0.4752811E-002  0.4468380E+03  0.7546771E-02  0.1028669E+00
         21   -1    0    0  502  501  0.00000000000E+00  0.00000000000E+00  0.29192844085E+03  0.29192844085E+03  0.00000000000E+00 0. -1.
         21   -1    0    0  501  502 -0.00000000000E+00 -0.00000000000E+00 -0.17098730914E+03  0.17098730914E+03  0.00000000000E+00 0. -1.
      99926    2    1    2    0    0  0.00000000000E+00 -0.17763568394E-14  0.12094113170E+03  0.46291574999E+03  0.44683804029E+03 0.  0.
      99925    2    3    3    0    0 -0.99761501654E+02 -0.12431192156E+02  0.44094318778E+02  0.28498364915E+03  0.26299140591E+03 0.  0.
         25    1    4    4    0    0 -0.32671432223E+02  0.29213721709E+02  0.33281941300E+02  0.13666038100E+03  0.12509000000E+03 0.  0.
         25    1    3    3    0    0  0.99761501654E+02  0.12431192156E+02  0.76846812927E+02  0.17793210084E+03  0.12509000000E+03 0.  0.
         25    1    4    4    0    0 -0.67090069431E+02 -0.41644913865E+02  0.10812377477E+02  0.14832326815E+03  0.12509000000E+03 0.  0.
<mgrwt>
<rscale>  2 0.44683804E+03</rscale>
<asrwt>0</asrwt>
<pdfrwt beam="1">  1       21 0.42930653E-01 0.44683804E+03</pdfrwt>
<pdfrwt beam="2">  1       21 0.25145192E-01 0.44683804E+03</pdfrwt>
<totfact> 0.72551171E+04</totfact>
</mgrwt>
</event>
<event>
 7    0  0.4752811E-002  0.4524270E+03  0.7546771E-02  0.1027001E+00
         21   -1    0    0  502  501  0.00000000000E+00  0.00000000000E+00  0.11333530518E+04  0.11333530518E+04  0.00000000000E+00 0.  1.
         21   -1    0    0  501  502 -0.00000000000E+00 -0.00000000000E+00 -0.45151471796E+02  0.45151471796E+02  0.00000000000E+00 0.  1.
      99926    2    1    2    0    0  0.00000000000E+00  0.33306690739E-15  0.10882015800E+04  0.11785045236E+04  0.45242704761E+03 0.  0.
      99925    2    3    3    0    0  0.93182772037E+02  0.73253054239E+00  0.53108349320E+03  0.59996184034E+03  0.26309877899E+03 0.  0.
         25    1    4    4    0    0  0.58948193084E+02  0.54108660202E+01  0.19025672478E+03  0.23526431171E+03  0.12509000000E+03 0.  0.
         25    1    3    3    0    0 -0.93182772037E+02 -0.73253054239E+00  0.55711808679E+03  0.57854268324E+03  0.12509000000E+03 0.  0.
         25    1    4    4    0    0  0.34234578953E+02 -0.46783354778E+01  0.34082676842E+03  0.36469752863E+03  0.12509000000E+03 0.  0.
<mgrwt>
<rscale>  2 0.45242705E+03</rscale>
<asrwt>0</asrwt>
<pdfrwt beam="1">  1       21 0.16666955E+00 0.45242705E+03</pdfrwt>
<pdfrwt beam="2">  1       21 0.66399231E-02 0.45242705E+03</pdfrwt>
<totfact> 0.33511572E+04</totfact>
</mgrwt>
</event>
<event>
 7    0  0.4752811E-002  0.4479968E+03  0.7546771E-02  0.1028321E+00
         21   -1    0    0  502  501  0.00000000000E+00  0.00000000000E+00  0.34621172545E+03  0.34621172545E+03  0.00000000000E+00 0.  1.
         21   -1    0    0  501  502 -0.00000000000E+00 -0.00000000000E+00 -0.14492655402E+03  0.14492655402E+03  0.00000000000E+00 0.  1.
      99926    2    1    2    0    0  0.00000000000E+00  0.00000000000E+00  0.20128517143E+03  0.49113827947E+03  0.44799675147E+03 0.  0.
      99925    2    3    3    0    0 -0.10205768200E+03  0.61996737240E+01  0.16002997711E+03  0.32439384758E+03  0.26299727824E+03 0.  0.
         25    1    4    4    0    0 -0.64377472174E+02  0.23870480538E+02  0.12048872597E+03  0.18676000629E+03  0.12509000000E+03 0.  0.
         25    1    4    4    0    0 -0.37680209827E+02 -0.17670806814E+02  0.39541251146E+02  0.13763384129E+03  0.12509000000E+03 0.  0.
         25    1    3    3    0    0  0.10205768200E+03 -0.61996737240E+01  0.41255194321E+02  0.16674443190E+03  0.12509000000E+03 0.  0.
<mgrwt>
<rscale>  2 0.44799675E+03</rscale>
<asrwt>0</asrwt>
<pdfrwt beam="1">  1       21 0.50913489E-01 0.44799675E+03</pdfrwt>
<pdfrwt beam="2">  1       21 0.21312729E-01 0.44799675E+03</pdfrwt>
<totfact> 0.69692552E+04</totfact>
</mgrwt>
</event>
<event>
 7    0  0.4752811E-002  0.4673360E+03  0.7546771E-02  0.1022675E+00
         21   -1    0    0  502  501  0.00000000000E+00  0.00000000000E+00  0.10668652256E+04  0.10668652256E+04  0.00000000000E+00 0.  1.
         21   -1    0    0  501  502 -0.00000000000E+00 -0.00000000000E+00 -0.51178669789E+02  0.51178669789E+02  0.00000000000E+00 0.  1.
      99926    2    1    2    0    0  0.17763568394E-14 -0.14210854715E-13  0.10156865558E+04  0.11180438954E+04  0.46733603794E+03 0.  0.
      99925    2    3    3    0    0 -0.84293653244E+01  0.10787948858E+03  0.48530089483E+03  0.56246717186E+03  0.26295117919E+03 0.  0.
         25    1    3    3    0    0  0.84293653244E+01 -0.10787948858E+03  0.53038566095E+03  0.55557672350E+03  0.12509000000E+03 0.  0.
         25    1    4    4    0    0 -0.15591602438E+02  0.22350454256E+02  0.27307402569E+03  0.30159504717E+03  0.12509000000E+03 0.  0.
         25    1    4    4    0    0  0.71622371140E+01  0.85529034325E+02  0.21222686914E+03  0.26087212469E+03  0.12509000000E+03 0.  0.
<mgrwt>
<rscale>  2 0.46733604E+03</rscale>
<asrwt>0</asrwt>
<pdfrwt beam="1">  1       21 0.15689193E+00 0.46733604E+03</pdfrwt>
<pdfrwt beam="2">  1       21 0.75262756E-02 0.46733604E+03</pdfrwt>
<totfact> 0.31706411E+04</totfact>
</mgrwt>
</event>
<event>
 7    0  0.4752811E-002  0.4555282E+03  0.7546771E-02  0.1026086E+00
         21   -1    0    0  502  501  0.00000000000E+00  0.00000000000E+00  0.17940603024E+03  0.17940603024E+03  0.00000000000E+00 0. -1.
         21   -1    0    0  501  502 -0.00000000000E+00 -0.00000000000E+00 -0.28915689531E+03  0.28915689531E+03  0.00000000000E+00 0. -1.
      99926    2    1    2    0    0 -0.71054273576E-14  0.00000000000E+00 -0.10975086507E+03  0.46856292554E+03  0.45552822394E+03 0.  0.
      99925    2    3    3    0    0 -0.39232187104E+02  0.91759290403E+02 -0.12486458379E+03  0.30783064977E+03  0.26307719927E+03 0.  0.
         25    1    3    3    0    0  0.39232187104E+02 -0.91759290403E+02  0.15113718717E+02  0.16073227577E+03  0.12509000000E+03 0.  0.
         25    1    4    4    0    0  0.30456593706E+01  0.15775099957E+02 -0.78648849761E+02  0.14863135432E+03  0.12509000000E+03 0.  0.
         25    1    4    4    0    0 -0.42277846475E+02  0.75984190446E+02 -0.46215734027E+02  0.15919929545E+03  0.12509000000E+03 0.  0.
<mgrwt>
<rscale>  2 0.45552822E+03</rscale>
<asrwt>0</asrwt>
<pdfrwt beam="1">  1       21 0.26383240E-01 0.45552822E+03</pdfrwt>
<pdfrwt beam="2">  1       21 0.42523072E-01 0.45552822E+03</pdfrwt>
<totfact> 0.67260584E+04</totfact>
</mgrwt>
</event>
<event>
 7    0  0.4752811E-002  0.4550380E+03  0.7546771E-02  0.1026230E+00
         21   -1    0    0  502  501  0.00000000000E+00  0.00000000000E+00  0.11124892275E+04  0.11124892275E+04  0.00000000000E+00 0. -1.
         21   -1    0    0  501  502 -0.00000000000E+00 -0.00000000000E+00 -0.46530691798E+02  0.46530691798E+02  0.00000000000E+00 0. -1.
      99926    2    1    2    0    0  0.00000000000E+00  0.00000000000E+00  0.10659585357E+04  0.11590199193E+04  0.45503799126E+03 0.  0.
      99925    2    3    3    0    0  0.90127800982E+02 -0.44622455752E+02  0.53646636415E+03  0.60573549705E+03  0.26268831047E+03 0.  0.
         25    1    4    4    0    0  0.37129438111E+02  0.66257469357E+01  0.19548265083E+03  0.23512437257E+03  0.12509000000E+03 0.  0.
         25    1    3    3    0    0 -0.90127800982E+02  0.44622455752E+02  0.52949217155E+03  0.55328442225E+03  0.12509000000E+03 0.  0.
         25    1    4    4    0    0  0.52998362871E+02 -0.51248202688E+02  0.34098371331E+03  0.37061112448E+03  0.12509000000E+03 0.  0.
<mgrwt>
<rscale>  2 0.45503799E+03</rscale>
<asrwt>0</asrwt>
<pdfrwt beam="1">  1       21 0.16360134E+00 0.45503799E+03</pdfrwt>
<pdfrwt beam="2">  1       21 0.68427495E-02 0.45503799E+03</pdfrwt>
<totfact> 0.33472725E+04</totfact>
</mgrwt>
</event>
<event>
 7    0  0.4752811E-002  0.4578441E+03  0.7546771E-02  0.1025408E+00
         21   -1    0    0  502  501  0.00000000000E+00  0.00000000000E+00  0.22127636238E+03  0.22127636238E+03  0.00000000000E+00 0.  1.
         21   -1    0    0  501  502 -0.00000000000E+00 -0.00000000000E+00 -0.23683189297E+03  0.23683189297E+03  0.00000000000E+00 0.  1.
      99926    2    1    2    0    0 -0.71054273576E-14 -0.14210854715E-13 -0.15555530584E+02  0.45810825535E+03  0.45784407727E+03 0.  0.
      99925    2    3    3    0    0 -0.47407145617E+02 -0.10550032063E+03 -0.25835334014E+01  0.28724709557E+03  0.26291912095E+03 0.  0.
         25    1    4    4    0    0 -0.60746464383E+01 -0.26038003297E+02 -0.28956332465E+02  0.13115203481E+03  0.12509000000E+03 0.  0.
         25    1    4    4    0    0 -0.41332499179E+02 -0.79462317335E+02  0.26372799063E+02  0.15609506076E+03  0.12509000000E+03 0.  0.
         25    1    3    3    0    0  0.47407145617E+02  0.10550032063E+03 -0.12971997183E+02  0.17086115978E+03  0.12509000000E+03 0.  0.
<mgrwt>
<rscale>  2 0.45784408E+03</rscale>
<asrwt>0</asrwt>
<pdfrwt beam="1">  1       21 0.32540641E-01 0.45784408E+03</pdfrwt>
<pdfrwt beam="2">  1       21 0.34828220E-01 0.45784408E+03</pdfrwt>
<totfact> 0.66790134E+04</totfact>
</mgrwt>
</event>
<event>
 7    0  0.4752811E-002  0.4565514E+03  0.7546771E-02  0.1025786E+00
         21   -1    0    0  502  501  0.00000000000E+00  0.00000000000E+00  0.52199928132E+02  0.52199928132E+02  0.00000000000E+00 0. -1.
         21   -1    0    0  501  502 -0.00000000000E+00 -0.00000000000E+00 -0.99827316119E+03  0.99827316119E+03  0.00000000000E+00 0. -1.
      99926    2    1    2    0    0  0.00000000000E+00 -0.71054273576E-14 -0.94607323306E+03  0.10504730893E+04  0.45655136521E+03 0.  0.
      99925    2    3    3    0    0 -0.76116139179E+02 -0.38701478017E+02 -0.41280444147E+03  0.49611347388E+03  0.26159052167E+03 0.  0.
         25    1    3    3    0    0  0.76116139179E+02  0.38701478017E+02 -0.53326879159E+03  0.55435961544E+03  0.12509000000E+03 0.  0.
         25    1    4    4    0    0 -0.66296429783E+02 -0.41177827392E+02 -0.25418358689E+03  0.29384967928E+03  0.12509000000E+03 0.  0.
         25    1    4    4    0    0 -0.98197093953E+01  0.24763493747E+01 -0.15862085458E+03  0.20226379460E+03  0.12509000000E+03 0.  0.
<mgrwt>
<rscale>  2 0.45655137E+03</rscale>
<asrwt>0</asrwt>
<pdfrwt beam="1">  1       21 0.76764606E-02 0.45655137E+03</pdfrwt>
<pdfrwt beam="2">  1       21 0.14680486E+00 0.45655137E+03</pdfrwt>
<totfact> 0.36812259E+04</totfact>
</mgrwt>
</event>
<event>
 7    0  0.4752811E-002  0.4533957E+03  0.7546771E-02  0.1026714E+00
         21   -1    0    0  502  501  0.00000000000E+00  0.00000000000E+00  0.13035152267E+03  0.13035152267E+03  0.00000000000E+00 0. -1.
         21   -1    0    0  501  502 -0.00000000000E+00 -0.00000000000E+00 -0.39425627054E+03  0.39425627054E+03  0.00000000000E+00 0. -1.
      99926    2    1    2    0    0  0.00000000000E+00  0.00000000000E+00 -0.26390474787E+03  0.52460779321E+03  0.45339565585E+03 0.  0.
      99925    2    3    3    0    0  0.96406103902E+02 -0.48629832895E+02 -0.13341752170E+03  0.31405276047E+03  0.26300171814E+03 0.  0.
         25    1    3    3    0    0 -0.96406103902E+02  0.48629832895E+02 -0.13048722618E+03  0.21055503274E+03  0.12509000000E+03 0.  0.
         25    1    4    4    0    0  0.22047247282E+02 -0.36675869496E+02 -0.31263794333E+02  0.13585335275E+03  0.12509000000E+03 0.  0.
         25    1    4    4    0    0  0.74358856619E+02 -0.11953963398E+02 -0.10215372736E+03  0.17819940772E+03  0.12509000000E+03 0.  0.
<mgrwt>
<rscale>  2 0.45339566E+03</rscale>
<asrwt>0</asrwt>
<pdfrwt beam="1">  1       21 0.19169342E-01 0.45339566E+03</pdfrwt>
<pdfrwt beam="2">  1       21 0.57978862E-01 0.45339566E+03</pdfrwt>
<totfact> 0.64388005E+04</totfact>
</mgrwt>
</event>
<event>
 7    0  0.4752811E-002  0.4119893E+03  0.7546771E-02  0.1039706E+00
         21   -1    0    0  502  501  0.00000000000E+00  0.00000000000E+00  0.95909748521E+02  0.95909748521E+02  0.00000000000E+00 0.  1.
         21   -1    0    0  501  502 -0.00000000000E+00 -0.00000000000E+00 -0.44243454271E+03  0.44243454271E+03  0.00000000000E+00 0.  1.
      99926    2    1    2    0    0  0.00000000000E+00  0.00000000000E+00 -0.34652479418E+03  0.53834429123E+03  0.41198925097E+03 0.  0.
      99925    2    3    3    0    0  0.44352358976E+02 -0.51208090406E+01 -0.28986246396E+03  0.39394386810E+03  0.26301743054E+03 0.  0.
         25    1    4    4    0    0  0.18004799221E+02  0.32848519602E-01 -0.20362162235E+03  0.23965276352E+03  0.12509000000E+03 0.  0.
         25    1    4    4    0    0  0.26347559756E+02 -0.51536575602E+01 -0.86240841603E+02  0.15429110458E+03  0.12509000000E+03 0.  0.
         25    1    3    3    0    0 -0.44352358976E+02  0.51208090406E+01 -0.56662330227E+02  0.14440042313E+03  0.12509000000E+03 0.  0.
<mgrwt>
<rscale>  2 0.41198925E+03</rscale>
<asrwt>0</asrwt>
<pdfrwt beam="1">  1       21 0.14104375E-01 0.41198925E+03</pdfrwt>
<pdfrwt beam="2">  1       21 0.65063903E-01 0.41198925E+03</pdfrwt>
<totfact> 0.89407872E+04</totfact>
</mgrwt>
</event>
<event>
 7    0  0.4752811E-002  0.4543675E+03  0.7546771E-02  0.1026428E+00
         21   -1    0    0  502  501  0.00000000000E+00  0.00000000000E+00  0.26476783056E+03  0.26476783056E+03  0.00000000000E+00 0.  1.
         21   -1    0    0  501  502 -0.00000000000E+00 -0.00000000000E+00 -0.19493473066E+03  0.19493473066E+03  0.00000000000E+00 0.  1.
      99926    2    1    2    0    0  0.17763568394E-14  0.00000000000E+00  0.69833099900E+02  0.45970256122E+03  0.45436745367E+03 0.  0.
      99925    2    3    3    0    0  0.95810393805E+01  0.11096076144E+03  0.28615096493E+02  0.28721917420E+03  0.26319563709E+03 0.  0.
         25    1    3    3    0    0 -0.95810393805E+01 -0.11096076144E+03  0.41218003408E+02  0.17248338702E+03  0.12509000000E+03 0.  0.
         25    1    4    4    0    0  0.28298513448E+02  0.19653636027E+02  0.15552517140E+02  0.13067693049E+03  0.12509000000E+03 0.  0.
         25    1    4    4    0    0 -0.18717474068E+02  0.91307125410E+02  0.13062579352E+02  0.15654224371E+03  0.12509000000E+03 0.  0.
<mgrwt>
<rscale>  2 0.45436745E+03</rscale>
<asrwt>0</asrwt>
<pdfrwt beam="1">  1       21 0.38936446E-01 0.45436745E+03</pdfrwt>
<pdfrwt beam="2">  1       21 0.28666872E-01 0.45436745E+03</pdfrwt>
<totfact> 0.68547363E+04</totfact>
</mgrwt>
</event>
<event>
 7    0  0.4752811E-002  0.4515862E+03  0.7546771E-02  0.1027250E+00
         21   -1    0    0  502  501  0.00000000000E+00  0.00000000000E+00  0.91885885425E+02  0.91885885425E+02  0.00000000000E+00 0. -1.
         21   -1    0    0  501  502 -0.00000000000E+00 -0.00000000000E+00 -0.55484618550E+03  0.55484618550E+03  0.00000000000E+00 0. -1.
      99926    2    1    2    0    0  0.00000000000E+00  0.00000000000E+00 -0.46296030008E+03  0.64673207093E+03  0.45158623996E+03 0.  0.
      99925    2    3    3    0    0 -0.62218810418E+02 -0.64031850276E+02 -0.20051924317E+03  0.34260368575E+03  0.26305524209E+03 0.  0.
         25    1    3    3    0    0  0.62218810418E+02  0.64031850276E+02 -0.26244105690E+03  0.30412838517E+03  0.12509000000E+03 0.  0.
         25    1    4    4    0    0 -0.30863974124E+02 -0.67327007151E+02 -0.13284467834E+03  0.19692822919E+03  0.12509000000E+03 0.  0.
         25    1    4    4    0    0 -0.31354836294E+02  0.32951568752E+01 -0.67674564834E+02  0.14567545656E+03  0.12509000000E+03 0.  0.
<mgrwt>
<rscale>  2 0.45158624E+03</rscale>
<asrwt>0</asrwt>
<pdfrwt beam="1">  1       21 0.13512631E-01 0.45158624E+03</pdfrwt>
<pdfrwt beam="2">  1       21 0.81595025E-01 0.45158624E+03</pdfrwt>
<totfact> 0.57421121E+04</totfact>
</mgrwt>
</event>
<event>
 7    0  0.4752811E-002  0.4509988E+03  0.7546771E-02  0.1027425E+00
         21   -1    0    0  502  501  0.00000000000E+00  0.00000000000E+00  0.10679331140E+03  0.10679331140E+03  0.00000000000E+00 0. -1.
         21   -1    0    0  501  502 -0.00000000000E+00 -0.00000000000E+00 -0.47615331504E+03  0.47615331504E+03  0.00000000000E+00 0. -1.
      99926    2    1    2    0    0  0.00000000000E+00 -0.35527136788E-14 -0.36936000365E+03  0.58294662644E+03  0.45099884367E+03 0.  0.
      99925    2    3    3    0    0 -0.10772473978E+03 -0.72825923980E+01 -0.21139892953E+03  0.35434902202E+03  0.26308946442E+03 0.  0.
         25    1    3    3    0    0  0.10772473978E+03  0.72825923980E+01 -0.15796107412E+03  0.22859760443E+03  0.12509000000E+03 0.  0.
         25    1    4    4    0    0 -0.45429003571E+02 -0.32967003932E+02 -0.13758016438E+03  0.19423292060E+03  0.12509000000E+03 0.  0.
         25    1    4    4    0    0 -0.62295736207E+02  0.25684411534E+02 -0.73818765143E+02  0.16011610142E+03  0.12509000000E+03 0.  0.
<mgrwt>
<rscale>  2 0.45099884E+03</rscale>
<asrwt>0</asrwt>
<pdfrwt beam="1">  1       21 0.15704898E-01 0.45099884E+03</pdfrwt>
<pdfrwt beam="2">  1       21 0.70022548E-01 0.45099884E+03</pdfrwt>
<totfact> 0.61667887E+04</totfact>
</mgrwt>
</event>
<event>
 7    0  0.4752811E-002  0.4107494E+03  0.7546771E-02  0.1040120E+00
         21   -1    0    0  502  501  0.00000000000E+00  0.00000000000E+00  0.26318433609E+03  0.26318433609E+03  0.00000000000E+00 0.  1.
         21   -1    0    0  501  502 -0.00000000000E+00 -0.00000000000E+00 -0.16026321520E+03  0.16026321520E+03  0.00000000000E+00 0.  1.
      99926    2    1    2    0    0  0.35527136788E-14  0.00000000000E+00  0.10292112089E+03  0.42344755128E+03  0.41074940239E+03 0.  0.
      99925    2    3    3    0    0  0.19873417266E+02 -0.17895610451E+02  0.12752897109E+03  0.29318527747E+03  0.26263808344E+03 0.  0.
         25    1    4    4    0    0 -0.15370737282E+02  0.90557175007E+01  0.90401693388E+02  0.15536486041E+03  0.12509000000E+03 0.  0.
         25    1    4    4    0    0  0.35244154548E+02 -0.26951327952E+02  0.37127277698E+02  0.13782041706E+03  0.12509000000E+03 0.  0.
         25    1    3    3    0    0 -0.19873417266E+02  0.17895610451E+02 -0.24607850198E+02  0.13026227381E+03  0.12509000000E+03 0.  0.
<mgrwt>
<rscale>  2 0.41074940E+03</rscale>
<asrwt>0</asrwt>
<pdfrwt beam="1">  1       21 0.38703579E-01 0.41074940E+03</pdfrwt>
<pdfrwt beam="2">  1       21 0.23568120E-01 0.41074940E+03</pdfrwt>
<totfact> 0.10261457E+05</totfact>
</mgrwt>
</event>
<event>
 7    0  0.4752811E-002  0.4571228E+03  0.7546771E-02  0.1025619E+00
         21   -1    0    0  502  501  0.00000000000E+00  0.00000000000E+00  0.33848448107E+03  0.33848448107E+03  0.00000000000E+00 0. -1.
         21   -1    0    0  501  502 -0.00000000000E+00 -0.00000000000E+00 -0.15433591262E+03  0.15433591262E+03  0.00000000000E+00 0. -1.
      99926    2    1    2    0    0 -0.71054273576E-14 -0.71054273576E-14  0.18414856845E+03  0.49282039368E+03  0.45712279003E+03 0.  0.
      99925    2    3    3    0    0  0.50871735345E+02 -0.35769937781E+02  0.11043908515E+02  0.27037904569E+03  0.26289815238E+03 0.  0.
         25    1    3    3    0    0 -0.50871735345E+02  0.35769937781E+02  0.17310465994E+03  0.22244134799E+03  0.12509000000E+03 0.  0.
         25    1    4    4    0    0 -0.42120872910E+01 -0.42183966687E+02  0.18378430169E+02  0.13335105369E+03  0.12509000000E+03 0.  0.
         25    1    4    4    0    0  0.55083822636E+02  0.64140289065E+01 -0.73345216540E+01  0.13702799200E+03  0.12509000000E+03 0.  0.
<mgrwt>
<rscale>  2 0.45712279E+03</rscale>
<asrwt>0</asrwt>
<pdfrwt beam="1">  1       21 0.49777130E-01 0.45712279E+03</pdfrwt>
<pdfrwt beam="2">  1       21 0.22696458E-01 0.45712279E+03</pdfrwt>
<totfact> 0.64681140E+04</totfact>
</mgrwt>
</event>
<event>
 7    0  0.4752811E-002  0.4524717E+03  0.7546771E-02  0.1026988E+00
         21   -1    0    0  502  501  0.00000000000E+00  0.00000000000E+00  0.72452655241E+02  0.72452655241E+02  0.00000000000E+00 0.  1.
         21   -1    0    0  501  502 -0.00000000000E+00 -0.00000000000E+00 -0.70642889110E+03  0.70642889110E+03  0.00000000000E+00 0.  1.
      99926    2    1    2    0    0  0.35527136788E-14  0.00000000000E+00 -0.63397623586E+03  0.77888154634E+03  0.45247165171E+03 0.  0.
      99925    2    3    3    0    0 -0.29655123349E+02  0.79050898110E+02 -0.27623980453E+03  0.39061445627E+03  0.26295009604E+03 0.  0.
         25    1    3    3    0    0  0.29655123349E+02 -0.79050898110E+02 -0.35773643133E+03  0.38826709007E+03  0.12509000000E+03 0.  0.
         25    1    4    4    0    0 -0.10455888792E+02  0.81272970353E+02 -0.14560002330E+03  0.20871390995E+03  0.12509000000E+03 0.  0.
         25    1    4    4    0    0 -0.19199234557E+02 -0.22220722435E+01 -0.13063978123E+03  0.18190054632E+03  0.12509000000E+03 0.  0.
<mgrwt>
<rscale>  2 0.45247165E+03</rscale>
<asrwt>0</asrwt>
<pdfrwt beam="1">  1       21 0.10654803E-01 0.45247165E+03</pdfrwt>
<pdfrwt beam="2">  1       21 0.10388660E+00 0.45247165E+03</pdfrwt>
<totfact> 0.49783960E+04</totfact>
</mgrwt>
</event>
<event>
 7    0  0.4752811E-002  0.4560694E+03  0.7546771E-02  0.1025927E+00
         21   -1    0    0  502  501  0.00000000000E+00  0.00000000000E+00  0.16137713058E+04  0.16137713058E+04  0.00000000000E+00 0. -1.
         21   -1    0    0  501  502 -0.00000000000E+00 -0.00000000000E+00 -0.32222547948E+02  0.32222547948E+02  0.00000000000E+00 0. -1.
      99926    2    1    2    0    0  0.00000000000E+00  0.00000000000E+00  0.15815487578E+04  0.16459938537E+04  0.45606939506E+03 0.  0.
      99925    2    3    3    0    0 -0.71730300753E+02 -0.20723366472E+02  0.68307586529E+03  0.73578742621E+03  0.26308896758E+03 0.  0.
         25    1    3    3    0    0  0.71730300753E+02  0.20723366472E+02  0.89847289252E+03  0.91020642749E+03  0.12509000000E+03 0.  0.
         25    1    4    4    0    0 -0.20381708866E+02 -0.40009083841E+02  0.27442506240E+03  0.30491435489E+03  0.12509000000E+03 0.  0.
         25    1    4    4    0    0 -0.51348591887E+02  0.19285717369E+02  0.40865080289E+03  0.43087307132E+03  0.12509000000E+03 0.  0.
<mgrwt>
<rscale>  2 0.45606940E+03</rscale>
<asrwt>0</asrwt>
<pdfrwt beam="1">  1       21 0.23731925E+00 0.45606940E+03</pdfrwt>
<pdfrwt beam="2">  1       21 0.47386111E-02 0.45606940E+03</pdfrwt>
<totfact> 0.20241516E+04</totfact>
</mgrwt>
</event>
<event>
 7    0  0.4752811E-002  0.4543238E+03  0.7546771E-02  0.1026440E+00
         21   -1    0    0  502  501  0.00000000000E+00  0.00000000000E+00  0.70579036773E+03  0.70579036773E+03  0.00000000000E+00 0. -1.
         21   -1    0    0  501  502 -0.00000000000E+00 -0.00000000000E+00 -0.73113125379E+02  0.73113125379E+02  0.00000000000E+00 0. -1.
      99926    2    1    2    0    0  0.00000000000E+00  0.00000000000E+00  0.63267724235E+03  0.77890349311E+03  0.45432384770E+03 0.  0.
      99925    2    3    3    0    0  0.40526355502E+02 -0.72506696274E+02  0.26738174491E+03  0.38395043888E+03  0.26272673162E+03 0.  0.
         25    1    4    4    0    0 -0.11740767396E+02 -0.37457833883E+02  0.16363064497E+03  0.20967458361E+03  0.12509000000E+03 0.  0.
         25    1    3    3    0    0 -0.40526355502E+02  0.72506696274E+02  0.36529549745E+03  0.39495305423E+03  0.12509000000E+03 0.  0.
         25    1    4    4    0    0  0.52267122899E+02 -0.35048862391E+02  0.10375109993E+03  0.17427585527E+03  0.12509000000E+03 0.  0.
<mgrwt>
<rscale>  2 0.45432385E+03</rscale>
<asrwt>0</asrwt>
<pdfrwt beam="1">  1       21 0.10379270E+00 0.45432385E+03</pdfrwt>
<pdfrwt beam="2">  1       21 0.10751931E-01 0.45432385E+03</pdfrwt>
<totfact> 0.49062058E+04</totfact>
</mgrwt>
</event>
<event>
 7    0  0.4752811E-002  0.4528141E+03  0.7546771E-02  0.1026886E+00
         21   -1    0    0  502  501  0.00000000000E+00  0.00000000000E+00  0.12818807505E+03  0.12818807505E+03  0.00000000000E+00 0.  1.
         21   -1    0    0  501  502 -0.00000000000E+00 -0.00000000000E+00 -0.39988229099E+03  0.39988229099E+03  0.00000000000E+00 0.  1.
      99926    2    1    2    0    0  0.00000000000E+00  0.00000000000E+00 -0.27169421595E+03  0.52807036604E+03  0.45281405070E+03 0.  0.
      99925    2    3    3    0    0  0.40112268170E+02  0.75906745880E+02 -0.25336256108E+03  0.37524894805E+03  0.26315082657E+03 0.  0.
         25    1    4    4    0    0 -0.11912383692E+02  0.41889048397E+02 -0.89140176854E+02  0.15965611949E+03  0.12509000000E+03 0.  0.
         25    1    3    3    0    0 -0.40112268170E+02 -0.75906745880E+02 -0.18331654866E+02  0.15282141799E+03  0.12509000000E+03 0.  0.
         25    1    4    4    0    0  0.52024651862E+02  0.34017697482E+02 -0.16422238423E+03  0.21559282856E+03  0.12509000000E+03 0.  0.
<mgrwt>
<rscale>  2 0.45281405E+03</rscale>
<asrwt>0</asrwt>
<pdfrwt beam="1">  1       21 0.18851187E-01 0.45281405E+03</pdfrwt>
<pdfrwt beam="2">  1       21 0.58806220E-01 0.45281405E+03</pdfrwt>
<totfact> 0.64446744E+04</totfact>
</mgrwt>
</event>
<event>
 7    0  0.4752811E-002  0.4578957E+03  0.7546771E-02  0.1025393E+00
         21   -1    0    0  502  501  0.00000000000E+00  0.00000000000E+00  0.14088523792E+04  0.14088523792E+04  0.00000000000E+00 0.  1.
         21   -1    0    0  501  502 -0.00000000000E+00 -0.00000000000E+00 -0.37205551207E+02  0.37205551207E+02  0.00000000000E+00 0.  1.
      99926    2    1    2    0    0 -0.14210854715E-13 -0.35527136788E-14  0.13716468280E+04  0.14460579304E+04  0.45789574943E+03 0.  0.
      99925    2    3    3    0    0 -0.99574210526E+02 -0.31022680808E+02  0.70197979487E+03  0.75687081977E+03  0.26305964205E+03 0.  0.
         25    1    4    4    0    0 -0.22816306330E+02  0.44933796934E+01  0.25321741775E+03  0.28338550253E+03  0.12509000000E+03 0.  0.
         25    1    4    4    0    0 -0.76757904196E+02 -0.35516060502E+02  0.44876237713E+03  0.47348531723E+03  0.12509000000E+03 0.  0.
         25    1    3    3    0    0  0.99574210526E+02  0.31022680808E+02  0.66966703308E+03  0.68918711060E+03  0.12509000000E+03 0.  0.
<mgrwt>
<rscale>  2 0.45789575E+03</rscale>
<asrwt>0</asrwt>
<pdfrwt beam="1">  1       21 0.20718414E+00 0.45789575E+03</pdfrwt>
<pdfrwt beam="2">  1       21 0.54714055E-02 0.45789575E+03</pdfrwt>
<totfact> 0.24572550E+04</totfact>
</mgrwt>
</event>
<event>
 7    0  0.4752811E-002  0.4583201E+03  0.7546771E-02  0.1025270E+00
         21   -1    0    0  502  501  0.00000000000E+00  0.00000000000E+00  0.84526218661E+03  0.84526218661E+03  0.00000000000E+00 0.  1.
         21   -1    0    0  501  502 -0.00000000000E+00 -0.00000000000E+00 -0.62127861253E+02  0.62127861253E+02  0.00000000000E+00 0.  1.
      99926    2    1    2    0    0  0.00000000000E+00  0.00000000000E+00  0.78313432536E+03  0.90739004787E+03  0.45832011456E+03 0.  0.
      99925    2    3    3    0    0  0.75756150612E+02 -0.72731696915E+02  0.59000066358E+03  0.65445327018E+03  0.26301978203E+03 0.  0.
         25    1    4    4    0    0  0.11649906392E+02 -0.64312236020E+02  0.32620557300E+03  0.35542842877E+03  0.12509000000E+03 0.  0.
         25    1    3    3    0    0 -0.75756150612E+02  0.72731696915E+02  0.19313366178E+03  0.25293677769E+03  0.12509000000E+03 0.  0.
         25    1    4    4    0    0  0.64106244220E+02 -0.84194608945E+01  0.26379509057E+03  0.29902484141E+03  0.12509000000E+03 0.  0.
<mgrwt>
<rscale>  2 0.45832011E+03</rscale>
<asrwt>0</asrwt>
<pdfrwt beam="1">  1       21 0.12430326E+00 0.45832011E+03</pdfrwt>
<pdfrwt beam="2">  1       21 0.91364507E-02 0.45832011E+03</pdfrwt>
<totfact> 0.41818156E+04</totfact>
</mgrwt>
</event>
<event>
 7    0  0.4752811E-002  0.4524889E+03  0.7546771E-02  0.1026982E+00
         21   -1    0    0  502  501  0.00000000000E+00  0.00000000000E+00  0.14953228633E+04  0.14953228633E+04  0.00000000000E+00 0. -1.
         21   -1    0    0  501  502 -0.00000000000E+00 -0.00000000000E+00 -0.34231106413E+02  0.34231106413E+02  0.00000000000E+00 0. -1.
      99926    2    1    2    0    0 -0.35527136788E-14  0.00000000000E+00  0.14610917569E+04  0.15295539697E+04  0.45248892165E+03 0.  0.
      99925    2    3    3    0    0 -0.20444193706E+02 -0.10404584664E+03  0.81342394115E+03  0.86144873033E+03  0.26304353951E+03 0.  0.
         25    1    3    3    0    0  0.20444193706E+02  0.10404584664E+03  0.64766781573E+03  0.66810523939E+03  0.12509000000E+03 0.  0.
         25    1    4    4    0    0  0.21705263995E+01 -0.47731262111E+02  0.28260208214E+03  0.31272100904E+03  0.12509000000E+03 0.  0.
         25    1    4    4    0    0 -0.22614720106E+02 -0.56314584530E+02  0.53082185901E+03  0.54872772128E+03  0.12509000000E+03 0.  0.
<mgrwt>
<rscale>  2 0.45248892E+03</rscale>
<asrwt>0</asrwt>
<pdfrwt beam="1">  1       21 0.21990038E+00 0.45248892E+03</pdfrwt>
<pdfrwt beam="2">  1       21 0.50339872E-02 0.45248892E+03</pdfrwt>
<totfact> 0.23519381E+04</totfact>
</mgrwt>
</event>
<event>
 7    0  0.4752811E-002  0.4462376E+03  0.7546771E-02  0.1028850E+00
         21   -1    0    0  502  501  0.00000000000E+00  0.00000000000E+00  0.31069828446E+03  0.31069828446E+03  0.00000000000E+00 0. -1.
         21   -1    0    0  501  502 -0.00000000000E+00 -0.00000000000E+00 -0.16022616684E+03  0.16022616684E+03  0.00000000000E+00 0. -1.
      99926    2    1    2    0    0 -0.71054273576E-14 -0.17763568394E-14  0.15047211762E+03  0.47092445130E+03  0.44623758319E+03 0.  0.
      99925    2    3    3    0    0  0.55195268786E+02  0.12621757650E+02  0.23320947706E+01  0.26893732069E+03  0.26289925320E+03 0.  0.
         25    1    3    3    0    0 -0.55195268786E+02 -0.12621757650E+02  0.14814002285E+03  0.20198713061E+03  0.12509000000E+03 0.  0.
         25    1    4    4    0    0  0.37857790051E+02  0.32583909532E+02  0.30301106453E+02  0.13806009047E+03  0.12509000000E+03 0.  0.
         25    1    4    4    0    0  0.17337478736E+02 -0.19962151882E+02 -0.27969011683E+02  0.13087723022E+03  0.12509000000E+03 0.  0.
<mgrwt>
<rscale>  2 0.44623758E+03</rscale>
<asrwt>0</asrwt>
<pdfrwt beam="1">  1       21 0.45690924E-01 0.44623758E+03</pdfrwt>
<pdfrwt beam="2">  1       21 0.23562672E-01 0.44623758E+03</pdfrwt>
<totfact> 0.72262836E+04</totfact>
</mgrwt>
</event>
<event>
 7    0  0.4752811E-002  0.4606548E+03  0.7546771E-02  0.1024591E+00
         21   -1    0    0  502  501  0.00000000000E+00  0.00000000000E+00  0.12327889344E+03  0.12327889344E+03  0.00000000000E+00 0.  1.
         21   -1    0    0  501  502 -0.00000000000E+00 -0.00000000000E+00 -0.43033078478E+03  0.43033078478E+03  0.00000000000E+00 0.  1.
      99926    2    1    2    0    0  0.00000000000E+00 -0.71054273576E-14 -0.30705189134E+03  0.55360967821E+03  0.46065476426E+03 0.  0.
      99925    2    3    3    0    0 -0.34630223530E+02 -0.37222757612E+02 -0.32041096799E+03  0.41792342580E+03  0.26346160129E+03 0.  0.
         25    1    4    4    0    0  0.66734382811E+01 -0.17605064523E+01 -0.10762802052E+03  0.16516335266E+03  0.12509000000E+03 0.  0.
         25    1    4    4    0    0 -0.41303661811E+02 -0.35462251160E+02 -0.21278294747E+03  0.25276007313E+03  0.12509000000E+03 0.  0.
         25    1    3    3    0    0  0.34630223530E+02  0.37222757612E+02  0.13359076655E+02  0.13568625242E+03  0.12509000000E+03 0.  0.
<mgrwt>
<rscale>  2 0.46065476E+03</rscale>
<asrwt>0</asrwt>
<pdfrwt beam="1">  1       21 0.18129249E-01 0.46065476E+03</pdfrwt>
<pdfrwt beam="2">  1       21 0.63283939E-01 0.46065476E+03</pdfrwt>
<totfact> 0.58946937E+04</totfact>
</mgrwt>
</event>
<event>
 7    0  0.4752811E-002  0.4512183E+03  0.7546771E-02  0.1027359E+00
         21   -1    0    0  502  501  0.00000000000E+00  0.00000000000E+00  0.10610462933E+03  0.10610462933E+03  0.00000000000E+00 0. -1.
         21   -1    0    0  501  502 -0.00000000000E+00 -0.00000000000E+00 -0.47971042364E+03  0.47971042364E+03  0.00000000000E+00 0. -1.
      99926    2    1    2    0    0 -0.35527136788E-14  0.00000000000E+00 -0.37360579431E+03  0.58581505297E+03  0.45121833600E+03 0.  0.
      99925    2    3    3    0    0  0.26284066737E+02  0.20444109963E+02 -0.37148829872E+03  0.45635152264E+03  0.26295311814E+03 0.  0.
         25    1    4    4    0    0  0.44490776074E+02 -0.18731283628E+01 -0.22783851279E+03  0.26370596082E+03  0.12509000000E+03 0.  0.
         25    1    3    3    0    0 -0.26284066737E+02 -0.20444109963E+02 -0.21174955885E+01  0.12946353032E+03  0.12509000000E+03 0.  0.
         25    1    4    4    0    0 -0.18206709337E+02  0.22317238326E+02 -0.14364978593E+03  0.19264556182E+03  0.12509000000E+03 0.  0.
<mgrwt>
<rscale>  2 0.45121834E+03</rscale>
<asrwt>0</asrwt>
<pdfrwt beam="1">  1       21 0.15603622E-01 0.45121834E+03</pdfrwt>
<pdfrwt beam="2">  1       21 0.70545649E-01 0.45121834E+03</pdfrwt>
<totfact> 0.61374087E+04</totfact>
</mgrwt>
</event>
<event>
 7    0  0.4752811E-002  0.4547653E+03  0.7546771E-02  0.1026310E+00
         21   -1    0    0  502  501  0.00000000000E+00  0.00000000000E+00  0.86979883255E+02  0.86979883255E+02  0.00000000000E+00 0.  1.
         21   -1    0    0  501  502 -0.00000000000E+00 -0.00000000000E+00 -0.59442329063E+03  0.59442329063E+03  0.00000000000E+00 0.  1.
      99926    2    1    2    0    0  0.71054273576E-14  0.00000000000E+00 -0.50744340738E+03  0.68140317389E+03  0.45476529517E+03 0.  0.
      99925    2    3    3    0    0 -0.40697583629E+02 -0.86533468781E+02 -0.22942082771E+03  0.36189042385E+03  0.26303313129E+03 0.  0.
         25    1    4    4    0    0  0.82709004279E+01 -0.31700864000E+02 -0.72812364616E+02  0.14839980159E+03  0.12509000000E+03 0.  0.
         25    1    3    3    0    0  0.40697583629E+02  0.86533468781E+02 -0.27802257967E+03  0.31951275004E+03  0.12509000000E+03 0.  0.
         25    1    4    4    0    0 -0.48968484057E+02 -0.54832604781E+02 -0.15660846309E+03  0.21349062225E+03  0.12509000000E+03 0.  0.
<mgrwt>
<rscale>  2 0.45476530E+03</rscale>
<asrwt>0</asrwt>
<pdfrwt beam="1">  1       21 0.12791159E-01 0.45476530E+03</pdfrwt>
<pdfrwt beam="2">  1       21 0.87415190E-01 0.45476530E+03</pdfrwt>
<totfact> 0.54024453E+04</totfact>
</mgrwt>
</event>
<event>
 7    0  0.4752811E-002  0.4537622E+03  0.7546771E-02  0.1026606E+00
         21   -1    0    0  502  501  0.00000000000E+00  0.00000000000E+00  0.38964836672E+03  0.38964836672E+03  0.00000000000E+00 0. -1.
         21   -1    0    0  501  502 -0.00000000000E+00 -0.00000000000E+00 -0.13210637321E+03  0.13210637321E+03  0.00000000000E+00 0. -1.
      99926    2    1    2    0    0  0.00000000000E+00  0.00000000000E+00  0.25754199351E+03  0.52175473993E+03  0.45376219567E+03 0.  0.
      99925    2    3    3    0    0 -0.41492686069E+02  0.92033671130E+02  0.10629106703E+03  0.30103729504E+03  0.26293311403E+03 0.  0.
         25    1    3    3    0    0  0.41492686069E+02 -0.92033671130E+02  0.15125092648E+03  0.22071744489E+03  0.12509000000E+03 0.  0.
         25    1    4    4    0    0 -0.63283638516E+01  0.38268979330E+02  0.91233728337E+02  0.15961097786E+03  0.12509000000E+03 0.  0.
         25    1    4    4    0    0 -0.35164322217E+02  0.53764691800E+02  0.15057338696E+02  0.14142631718E+03  0.12509000000E+03 0.  0.
<mgrwt>
<rscale>  2 0.45376220E+03</rscale>
<asrwt>0</asrwt>
<pdfrwt beam="1">  1       21 0.57301230E-01 0.45376220E+03</pdfrwt>
<pdfrwt beam="2">  1       21 0.19427408E-01 0.45376220E+03</pdfrwt>
<totfact> 0.64397700E+04</totfact>
</mgrwt>
</event>
<event>
 7    0  0.4752811E-002  0.4610761E+03  0.7546771E-02  0.1024470E+00
         21   -1    0    0  502  501  0.00000000000E+00  0.00000000000E+00  0.14679423521E+03  0.14679423521E+03  0.00000000000E+00 0.  1.
         21   -1    0    0  501  502 -0.00000000000E+00 -0.00000000000E+00 -0.36205646992E+03  0.36205646992E+03  0.00000000000E+00 0.  1.
      99926    2    1    2    0    0  0.00000000000E+00 -0.39968028887E-14 -0.21526223471E+03  0.50885070513E+03  0.46107614384E+03 0.  0.
      99925    2    3    3    0    0 -0.81606355409E+02  0.14204002992E+01 -0.23000656733E+03  0.35876233708E+03  0.26295584936E+03 0.  0.
         25    1    4    4    0    0 -0.47683529097E+02  0.40166096609E+02 -0.12510348319E+03  0.18757778085E+03  0.12509000000E+03 0.  0.
         25    1    4    4    0    0 -0.33922826312E+02 -0.38745696310E+02 -0.10490308414E+03  0.17118455623E+03  0.12509000000E+03 0.  0.
         25    1    3    3    0    0  0.81606355409E+02 -0.14204002992E+01  0.14744332621E+02  0.15008836805E+03  0.12509000000E+03 0.  0.
<mgrwt>
<rscale>  2 0.46107614E+03</rscale>
<asrwt>0</asrwt>
<pdfrwt beam="1">  1       21 0.21587388E-01 0.46107614E+03</pdfrwt>
<pdfrwt beam="2">  1       21 0.53243597E-01 0.46107614E+03</pdfrwt>
<totfact> 0.61627050E+04</totfact>
</mgrwt>
</event>
<event>
 7    0  0.4752811E-002  0.4515594E+03  0.7546771E-02  0.1027258E+00
         21   -1    0    0  502  501  0.00000000000E+00  0.00000000000E+00  0.79758028110E+02  0.79758028110E+02  0.00000000000E+00 0. -1.
         21   -1    0    0  501  502 -0.00000000000E+00 -0.00000000000E+00 -0.63913905937E+03  0.63913905937E+03  0.00000000000E+00 0. -1.
      99926    2    1    2    0    0  0.71054273576E-14  0.00000000000E+00 -0.55938103126E+03  0.71889708748E+03  0.45155939172E+03 0.  0.
      99925    2    3    3    0    0 -0.54577795461E+02 -0.63149825387E+02 -0.23975824276E+03  0.36566505151E+03  0.26317347648E+03 0.  0.
         25    1    3    3    0    0  0.54577795461E+02  0.63149825387E+02 -0.31962278850E+03  0.35323203597E+03  0.12509000000E+03 0.  0.
         25    1    4    4    0    0 -0.67349205598E+02 -0.37329831182E+02 -0.11370194692E+03  0.18575541075E+03  0.12509000000E+03 0.  0.
         25    1    4    4    0    0  0.12771410137E+02 -0.25819994205E+02 -0.12605629583E+03  0.17990964076E+03  0.12509000000E+03 0.  0.
<mgrwt>
<rscale>  2 0.45155939E+03</rscale>
<asrwt>0</asrwt>
<pdfrwt beam="1">  1       21 0.11729121E-01 0.45155939E+03</pdfrwt>
<pdfrwt beam="2">  1       21 0.93991044E-01 0.45155939E+03</pdfrwt>
<totfact> 0.53317326E+04</totfact>
</mgrwt>
</event>
<event>
 7    0  0.4752811E-002  0.4532769E+03  0.7546771E-02  0.1026749E+00
         21   -1    0    0  502  501  0.00000000000E+00  0.00000000000E+00  0.91575712675E+03  0.91575712675E+03  0.00000000000E+00 0. -1.
         21   -1    0    0  501  502 -0.00000000000E+00 -0.00000000000E+00 -0.56090193651E+02  0.56090193651E+02  0.00000000000E+00 0. -1.
      99926    2    1    2    0    0  0.00000000000E+00  0.00000000000E+00  0.85966693310E+03  0.97184732040E+03  0.45327693335E+03 0.  0.
      99925    2    3    3    0    0 -0.92404059336E+02 -0.38526615799E+02  0.43598734872E+03  0.51888517118E+03  0.26293353213E+03 0.  0.
         25    1    4    4    0    0 -0.77435138979E+02  0.23959977716E+01  0.20045302642E+03  0.24865812968E+03  0.12509000000E+03 0.  0.
         25    1    4    4    0    0 -0.14968920357E+02 -0.40922613571E+02  0.23553432230E+03  0.27022704150E+03  0.12509000000E+03 0.  0.
         25    1    3    3    0    0  0.92404059336E+02  0.38526615799E+02  0.42367958438E+03  0.45296214922E+03  0.12509000000E+03 0.  0.
<mgrwt>
<rscale>  2 0.45327693E+03</rscale>
<asrwt>0</asrwt>
<pdfrwt beam="1">  1       21 0.13467016E+00 0.45327693E+03</pdfrwt>
<pdfrwt beam="2">  1       21 0.82485584E-02 0.45327693E+03</pdfrwt>
<totfact> 0.40815619E+04</totfact>
</mgrwt>
</event>
<event>
 7    0  0.4752811E-002  0.4454643E+03  0.7546771E-02  0.1029083E+00
         21   -1    0    0  502  501  0.00000000000E+00  0.00000000000E+00  0.12641090320E+03  0.12641090320E+03  0.00000000000E+00 0. -1.
         21   -1    0    0  501  502 -0.00000000000E+00 -0.00000000000E+00 -0.39244721324E+03  0.39244721324E+03  0.00000000000E+00 0. -1.
      99926    2    1    2    0    0  0.00000000000E+00  0.00000000000E+00 -0.26603631004E+03  0.51885811644E+03  0.44546428223E+03 0.  0.
      99925    2    3    3    0    0  0.91550291570E+02 -0.34845942242E+02 -0.20952519225E+03  0.35022623894E+03  0.26298653326E+03 0.  0.
         25    1    3    3    0    0 -0.91550291570E+02  0.34845942242E+02 -0.56511117787E+02  0.16863187750E+03  0.12509000000E+03 0.  0.
         25    1    4    4    0    0  0.45468191184E+02  0.16764616392E+02 -0.73810173063E+02  0.15311387435E+03  0.12509000000E+03 0.  0.
         25    1    4    4    0    0  0.46082100386E+02 -0.51610558634E+02 -0.13571501919E+03  0.19711236458E+03  0.12509000000E+03 0.  0.
<mgrwt>
<rscale>  2 0.44546428E+03</rscale>
<asrwt>0</asrwt>
<pdfrwt beam="1">  1       21 0.18589839E-01 0.44546428E+03</pdfrwt>
<pdfrwt beam="2">  1       21 0.57712825E-01 0.44546428E+03</pdfrwt>
<totfact> 0.69039464E+04</totfact>
</mgrwt>
</event>
<event>
 7    0  0.4752811E-002  0.4494045E+03  0.7546771E-02  0.1027900E+00
         21   -1    0    0  502  501  0.00000000000E+00  0.00000000000E+00  0.31459129251E+02  0.31459129251E+02  0.00000000000E+00 0.  1.
         21   -1    0    0  501  502 -0.00000000000E+00 -0.00000000000E+00 -0.16049744042E+04  0.16049744042E+04  0.00000000000E+00 0.  1.
      99926    2    1    2    0    0 -0.71054273576E-14  0.00000000000E+00 -0.15735152750E+04  0.16364335335E+04  0.44940448252E+03 0.  0.
      99925    2    3    3    0    0  0.54202954600E+02 -0.84157718101E+02 -0.85006005377E+03  0.89545077593E+03  0.26307701398E+03 0.  0.
         25    1    3    3    0    0 -0.54202954600E+02  0.84157718101E+02 -0.72345522119E+03  0.74098275754E+03  0.12509000000E+03 0.  0.
         25    1    4    4    0    0  0.86664260938E+00 -0.73298970251E+02 -0.42777894389E+03  0.45168110769E+03  0.12509000000E+03 0.  0.
         25    1    4    4    0    0  0.53336311990E+02 -0.10858747851E+02 -0.42228110988E+03  0.44376966824E+03  0.12509000000E+03 0.  0.
<mgrwt>
<rscale>  2 0.44940448E+03</rscale>
<asrwt>0</asrwt>
<pdfrwt beam="1">  1       21 0.46263407E-02 0.44940448E+03</pdfrwt>
<pdfrwt beam="2">  1       21 0.23602574E+00 0.44940448E+03</pdfrwt>
<totfact> 0.21539571E+04</totfact>
</mgrwt>
</event>
<event>
 7    0  0.4752811E-002  0.4652596E+03  0.7546771E-02  0.1023267E+00
         21   -1    0    0  502  501  0.00000000000E+00  0.00000000000E+00  0.12888673679E+04  0.12888673679E+04  0.00000000000E+00 0.  1.
         21   -1    0    0  501  502 -0.00000000000E+00 -0.00000000000E+00 -0.41987735009E+02  0.41987735009E+02  0.00000000000E+00 0.  1.
      99926    2    1    2    0    0  0.00000000000E+00 -0.14210854715E-13  0.12468796329E+04  0.13308551029E+04  0.46525958993E+03 0.  0.
      99925    2    3    3    0    0  0.92064659095E+02 -0.80292255360E+02  0.80518307106E+03  0.85581183271E+03  0.26300450065E+03 0.  0.
         25    1    4    4    0    0  0.30458851233E+02 -0.76979298939E+02  0.39184053499E+03  0.41957128958E+03  0.12509000000E+03 0.  0.
         25    1    4    4    0    0  0.61605807862E+02 -0.33129564210E+01  0.41334253607E+03  0.43624054313E+03  0.12509000000E+03 0.  0.
         25    1    3    3    0    0 -0.92064659095E+02  0.80292255360E+02  0.44169656183E+03  0.47504327020E+03  0.12509000000E+03 0.  0.
<mgrwt>
<rscale>  2 0.46525959E+03</rscale>
<asrwt>0</asrwt>
<pdfrwt beam="1">  1       21 0.18953929E+00 0.46525959E+03</pdfrwt>
<pdfrwt beam="2">  1       21 0.61746678E-02 0.46525959E+03</pdfrwt>
<totfact> 0.26087495E+04</totfact>
</mgrwt>
</event>
<event>
 7    0  0.4752811E-002  0.4557585E+03  0.7546771E-02  0.1026019E+00
         21   -1    0    0  502  501  0.00000000000E+00  0.00000000000E+00  0.12489249859E+04  0.12489249859E+04  0.00000000000E+00 0.  1.
         21   -1    0    0  501  502 -0.00000000000E+00 -0.00000000000E+00 -0.41578916318E+02  0.41578916318E+02  0.00000000000E+00 0.  1.
      99926    2    1    2    0    0  0.00000000000E+00  0.00000000000E+00  0.12073460696E+04  0.12905039022E+04  0.45575847760E+03 0.  0.
      99925    2    3    3    0    0 -0.62240829586E+02  0.44727171256E+02  0.99771234971E+03  0.10346362698E+04  0.26299778952E+03 0.  0.
         25    1    4    4    0    0 -0.15148252544E+02  0.13983353912E+02  0.61912319687E+03  0.63196997140E+03  0.12509000000E+03 0.  0.
         25    1    3    3    0    0  0.62240829586E+02 -0.44727171256E+02  0.20963371987E+03  0.25586763243E+03  0.12509000000E+03 0.  0.
         25    1    4    4    0    0 -0.47092577041E+02  0.30743817344E+02  0.37858915284E+03  0.40266629840E+03  0.12509000000E+03 0.  0.
<mgrwt>
<rscale>  2 0.45575848E+03</rscale>
<asrwt>0</asrwt>
<pdfrwt beam="1">  1       21 0.18366542E+00 0.45575848E+03</pdfrwt>
<pdfrwt beam="2">  1       21 0.61145473E-02 0.45575848E+03</pdfrwt>
<totfact> 0.29219026E+04</totfact>
</mgrwt>
</event>
<event>
 7    0  0.4752811E-002  0.4518258E+03  0.7546771E-02  0.1027179E+00
         21   -1    0    0  502  501  0.00000000000E+00  0.00000000000E+00  0.14113939070E+04  0.14113939070E+04  0.00000000000E+00 0. -1.
         21   -1    0    0  501  502 -0.00000000000E+00 -0.00000000000E+00 -0.36160451113E+02  0.36160451113E+02  0.00000000000E+00 0. -1.
      99926    2    1    2    0    0  0.00000000000E+00 -0.66613381478E-15  0.13752334559E+04  0.14475543581E+04  0.45182580881E+03 0.  0.
      99925    2    3    3    0    0 -0.52126155470E+02 -0.13192909396E+01  0.55632171615E+03  0.61750446672E+03  0.26286695866E+03 0.  0.
         25    1    4    4    0    0 -0.22626443041E+02 -0.26282486173E+02  0.20567101347E+03  0.24320937253E+03  0.12509000000E+03 0.  0.
         25    1    3    3    0    0  0.52126155470E+02  0.13192909396E+01  0.81891173977E+03  0.83004989142E+03  0.12509000000E+03 0.  0.
         25    1    4    4    0    0 -0.29499712429E+02  0.24963195234E+02  0.35065070268E+03  0.37429509420E+03  0.12509000000E+03 0.  0.
<mgrwt>
<rscale>  2 0.45182581E+03</rscale>
<asrwt>0</asrwt>
<pdfrwt beam="1">  1       21 0.20755789E+00 0.45182581E+03</pdfrwt>
<pdfrwt beam="2">  1       21 0.53177143E-02 0.45182581E+03</pdfrwt>
<totfact> 0.25720357E+04</totfact>
</mgrwt>
</event>
<event>
 7    0  0.4752811E-002  0.4539969E+03  0.7546771E-02  0.1026537E+00
         21   -1    0    0  502  501  0.00000000000E+00  0.00000000000E+00  0.15096953178E+03  0.15096953178E+03  0.00000000000E+00 0.  1.
         21   -1    0    0  501  502 -0.00000000000E+00 -0.00000000000E+00 -0.34131588006E+03  0.34131588006E+03  0.00000000000E+00 0.  1.
      99926    2    1    2    0    0 -0.23314683517E-14 -0.17763568394E-14 -0.19034634828E+03  0.49228541184E+03  0.45399691013E+03 0.  0.
      99925    2    3    3    0    0 -0.61136451388E+00 -0.87335446471E+01  0.13377056256E+01  0.26322879616E+03  0.26307976186E+03 0.  0.
         25    1    3    3    0    0  0.61136451388E+00  0.87335446471E+01 -0.19168405390E+03  0.22905661568E+03  0.12509000000E+03 0.  0.
         25    1    4    4    0    0  0.31171061450E+02 -0.29479050857E+02 -0.51923398756E+01  0.13234469390E+03  0.12509000000E+03 0.  0.
         25    1    4    4    0    0 -0.31782425963E+02  0.20745506210E+02  0.65300455012E+01  0.13088410225E+03  0.12509000000E+03 0.  0.
<mgrwt>
<rscale>  2 0.45399691E+03</rscale>
<asrwt>0</asrwt>
<pdfrwt beam="1">  1       21 0.22201402E-01 0.45399691E+03</pdfrwt>
<pdfrwt beam="2">  1       21 0.50193511E-01 0.45399691E+03</pdfrwt>
<totfact> 0.66342827E+04</totfact>
</mgrwt>
</event>
<event>
 7    0  0.4752811E-002  0.4549859E+03  0.7546771E-02  0.1026246E+00
         21   -1    0    0  502  501  0.00000000000E+00  0.00000000000E+00  0.23884450280E+02  0.23884450280E+02  0.00000000000E+00 0. -1.
         21   -1    0    0  501  502 -0.00000000000E+00 -0.00000000000E+00 -0.21668086025E+04  0.21668086025E+04  0.00000000000E+00 0. -1.
      99926    2    1    2    0    0  0.14210854715E-13  0.35527136788E-14 -0.21429241522E+04  0.21906930528E+04  0.45498585618E+03 0.  0.
      99925    2    3    3    0    0  0.89491192781E+02  0.31766316852E+02 -0.16448365959E+04  0.16684321081E+04  0.26298383918E+03 0.  0.
         25    1    4    4    0    0  0.78661875613E+02  0.31021543136E+02 -0.10188700204E+04  0.10299969192E+04  0.12509000000E+03 0.  0.
         25    1    4    4    0    0  0.10829317168E+02  0.74477371618E+00 -0.62596657547E+03  0.63843518896E+03  0.12509000000E+03 0.  0.
         25    1    3    3    0    0 -0.89491192781E+02 -0.31766316852E+02 -0.49808755631E+03  0.52226094467E+03  0.12509000000E+03 0.  0.
<mgrwt>
<rscale>  2 0.45498586E+03</rscale>
<asrwt>0</asrwt>
<pdfrwt beam="1">  1       21 0.35124175E-02 0.45498586E+03</pdfrwt>
<pdfrwt beam="2">  1       21 0.31864847E+00 0.45498586E+03</pdfrwt>
<totfact> 0.10840132E+04</totfact>
</mgrwt>
</event>
<event>
 7    0  0.4752811E-002  0.4189508E+03  0.7546771E-02  0.1037408E+00
         21   -1    0    0  502  501  0.00000000000E+00  0.00000000000E+00  0.25127165063E+03  0.25127165063E+03  0.00000000000E+00 0. -1.
         21   -1    0    0  501  502 -0.00000000000E+00 -0.00000000000E+00 -0.17463151718E+03  0.17463151718E+03  0.00000000000E+00 0. -1.
      99926    2    1    2    0    0  0.71054273576E-14 -0.35527136788E-14  0.76640133456E+02  0.42590316781E+03  0.41895083041E+03 0.  0.
      99925    2    3    3    0    0 -0.55782971431E+02 -0.22521923115E+02  0.51108604879E+01  0.26975284949E+03  0.26290968409E+03 0.  0.
         25    1    3    3    0    0  0.55782971431E+02  0.22521923115E+02  0.71529272968E+02  0.15615031833E+03  0.12509000000E+03 0.  0.
         25    1    4    4    0    0 -0.61452660518E+02 -0.34078350879E+02  0.10733782484E+02  0.14387663351E+03  0.12509000000E+03 0.  0.
         25    1    4    4    0    0  0.56696890869E+01  0.11556427764E+02 -0.56229219962E+01  0.12587621598E+03  0.12509000000E+03 0.  0.
<mgrwt>
<rscale>  2 0.41895083E+03</rscale>
<asrwt>0</asrwt>
<pdfrwt beam="1">  1       21 0.36951714E-01 0.41895083E+03</pdfrwt>
<pdfrwt beam="2">  1       21 0.25681105E-01 0.41895083E+03</pdfrwt>
<totfact> 0.95328448E+04</totfact>
</mgrwt>
</event>
<event>
 7    0  0.4752811E-002  0.4548459E+03  0.7546771E-02  0.1026287E+00
         21   -1    0    0  502  501  0.00000000000E+00  0.00000000000E+00  0.49672927881E+03  0.49672927881E+03  0.00000000000E+00 0. -1.
         21   -1    0    0  501  502 -0.00000000000E+00 -0.00000000000E+00 -0.10412351225E+03  0.10412351225E+03  0.00000000000E+00 0. -1.
      99926    2    1    2    0    0 -0.14210854715E-13  0.00000000000E+00  0.39260576656E+03  0.60085279106E+03  0.45484589543E+03 0.  0.
      99925    2    3    3    0    0  0.83545804143E+02  0.74714352867E+02  0.26902377425E+03  0.39232904461E+03  0.26265215060E+03 0.  0.
         25    1    4    4    0    0  0.47759595295E+02  0.69253070686E+02  0.10905663486E+03  0.18605865862E+03  0.12509000000E+03 0.  0.
         25    1    3    3    0    0 -0.83545804143E+02 -0.74714352867E+02  0.12358199230E+03  0.20852374646E+03  0.12509000000E+03 0.  0.
         25    1    4    4    0    0  0.35786208848E+02  0.54612821809E+01  0.15996713940E+03  0.20627038598E+03  0.12509000000E+03 0.  0.
<mgrwt>
<rscale>  2 0.45484590E+03</rscale>
<asrwt>0</asrwt>
<pdfrwt beam="1">  1       21 0.73048422E-01 0.45484590E+03</pdfrwt>
<pdfrwt beam="2">  1       21 0.15312281E-01 0.45484590E+03</pdfrwt>
<totfact> 0.58697243E+04</totfact>
</mgrwt>
</event>
<event>
 7    0  0.4752811E-002  0.4511384E+03  0.7546771E-02  0.1027383E+00
         21   -1    0    0  502  501  0.00000000000E+00  0.00000000000E+00  0.12423642498E+04  0.12423642498E+04  0.00000000000E+00 0. -1.
         21   -1    0    0  501  502 -0.00000000000E+00 -0.00000000000E+00 -0.40955346660E+02  0.40955346660E+02  0.00000000000E+00 0. -1.
      99926    2    1    2    0    0  0.14210854715E-13  0.14210854715E-13  0.12014089031E+04  0.12833195964E+04  0.45113837579E+03 0.  0.
      99925    2    3    3    0    0  0.70145640369E+02  0.82800479854E+02  0.80306728223E+03  0.85192663710E+03  0.26284140636E+03 0.  0.
         25    1    4    4    0    0  0.71827183156E+02  0.48978145606E+02  0.48882780743E+03  0.51201380489E+03  0.12509000000E+03 0.  0.
         25    1    4    4    0    0 -0.16815427871E+01  0.33822334248E+02  0.31423947480E+03  0.33991283221E+03  0.12509000000E+03 0.  0.
         25    1    3    3    0    0 -0.70145640369E+02 -0.82800479854E+02  0.39834162088E+03  0.43139295932E+03  0.12509000000E+03 0.  0.
<mgrwt>
<rscale>  2 0.45113838E+03</rscale>
<asrwt>0</asrwt>
<pdfrwt beam="1">  1       21 0.18270060E+00 0.45113838E+03</pdfrwt>
<pdfrwt beam="2">  1       21 0.60228459E-02 0.45113838E+03</pdfrwt>
<totfact> 0.30509233E+04</totfact>
</mgrwt>
</event>
<event>
 7    0  0.4752811E-002  0.4519318E+03  0.7546771E-02  0.1027148E+00
         21   -1    0    0  502  501  0.00000000000E+00  0.00000000000E+00  0.11299462236E+03  0.11299462236E+03  0.00000000000E+00 0.  1.
         21   -1    0    0  501  502 -0.00000000000E+00 -0.00000000000E+00 -0.45188504965E+03  0.45188504965E+03  0.00000000000E+00 0.  1.
      99926    2    1    2    0    0  0.00000000000E+00  0.00000000000E+00 -0.33889042729E+03  0.56487967201E+03  0.45193176713E+03 0.  0.
      99925    2    3    3    0    0  0.58342619424E+02 -0.88144635867E+02 -0.17440554947E+03  0.33276736900E+03  0.26295149384E+03 0.  0.
         25    1    4    4    0    0  0.22322849236E+02 -0.55392213920E+02 -0.13348681254E+03  0.19243919607E+03  0.12509000000E+03 0.  0.
         25    1    4    4    0    0  0.36019770189E+02 -0.32752421947E+02 -0.40918736930E+02  0.14032817294E+03  0.12509000000E+03 0.  0.
         25    1    3    3    0    0 -0.58342619424E+02  0.88144635867E+02 -0.16448487782E+03  0.23211230300E+03  0.12509000000E+03 0.  0.
<mgrwt>
<rscale>  2 0.45193177E+03</rscale>
<asrwt>0</asrwt>
<pdfrwt beam="1">  1       21 0.16616856E-01 0.45193177E+03</pdfrwt>
<pdfrwt beam="2">  1       21 0.66453683E-01 0.45193177E+03</pdfrwt>
<totfact> 0.62394165E+04</totfact>
</mgrwt>
</event>
<event>
 7    0  0.4752811E-002  0.4549820E+03  0.7546771E-02  0.1026247E+00
         21   -1    0    0  502  501  0.00000000000E+00  0.00000000000E+00  0.17679429770E+03  0.17679429770E+03  0.00000000000E+00 0.  1.
         21   -1    0    0  501  502 -0.00000000000E+00 -0.00000000000E+00 -0.29272521158E+03  0.29272521158E+03  0.00000000000E+00 0.  1.
      99926    2    1    2    0    0  0.00000000000E+00  0.00000000000E+00 -0.11593091389E+03  0.46951950928E+03  0.45498196975E+03 0.  0.
      99925    2    3    3    0    0  0.10100130347E+03  0.21941725896E+02 -0.12134049410E+03  0.30716349832E+03  0.26257036495E+03 0.  0.
         25    1    3    3    0    0 -0.10100130347E+03 -0.21941725896E+02  0.54095802145E+01  0.16235601096E+03  0.12509000000E+03 0.  0.
         25    1    4    4    0    0  0.36360144447E+02  0.24768296498E+02 -0.96880510252E+02  0.16422201430E+03  0.12509000000E+03 0.  0.
         25    1    4    4    0    0  0.64641159023E+02 -0.28265706014E+01 -0.24459983850E+02  0.14294148401E+03  0.12509000000E+03 0.  0.
<mgrwt>
<rscale>  2 0.45498197E+03</rscale>
<asrwt>0</asrwt>
<pdfrwt beam="1">  1       21 0.25999162E-01 0.45498197E+03</pdfrwt>
<pdfrwt beam="2">  1       21 0.43047824E-01 0.45498197E+03</pdfrwt>
<totfact> 0.67481133E+04</totfact>
</mgrwt>
</event>
<event>
 7    0  0.4752811E-002  0.4557016E+03  0.7546771E-02  0.1026035E+00
         21   -1    0    0  502  501  0.00000000000E+00  0.00000000000E+00  0.11312260034E+04  0.11312260034E+04  0.00000000000E+00 0.  1.
         21   -1    0    0  501  502 -0.00000000000E+00 -0.00000000000E+00 -0.45893550834E+02  0.45893550834E+02  0.00000000000E+00 0.  1.
      99926    2    1    2    0    0  0.00000000000E+00  0.35527136788E-14  0.10853324526E+04  0.11771195543E+04  0.45570156064E+03 0.  0.
      99925    2    3    3    0    0 -0.10908836216E+03  0.11646108062E+02  0.75983138290E+03  0.81155922126E+03  0.26315154679E+03 0.  0.
         25    1    4    4    0    0 -0.23191851078E+02  0.33352622958E+02  0.36939441945E+03  0.39210968445E+03  0.12509000000E+03 0.  0.
         25    1    3    3    0    0  0.10908836216E+03 -0.11646108062E+02  0.32550106969E+03  0.36556033300E+03  0.12509000000E+03 0.  0.
         25    1    4    4    0    0 -0.85896511087E+02 -0.21706514897E+02  0.39043696345E+03  0.41944953681E+03  0.12509000000E+03 0.  0.
<mgrwt>
<rscale>  2 0.45570156E+03</rscale>
<asrwt>0</asrwt>
<pdfrwt beam="1">  1       21 0.16635675E+00 0.45570156E+03</pdfrwt>
<pdfrwt beam="2">  1       21 0.67490523E-02 0.45570156E+03</pdfrwt>
<totfact> 0.32710521E+04</totfact>
</mgrwt>
</event>
<event>
 7    0  0.4752811E-002  0.4024746E+03  0.7546771E-02  0.1042926E+00
         21   -1    0    0  502  501  0.00000000000E+00  0.00000000000E+00  0.19502949004E+03  0.19502949004E+03  0.00000000000E+00 0.  1.
         21   -1    0    0  501  502 -0.00000000000E+00 -0.00000000000E+00 -0.20764268064E+03  0.20764268064E+03  0.00000000000E+00 0.  1.
      99926    2    1    2    0    0  0.00000000000E+00  0.00000000000E+00 -0.12613190607E+02  0.40267217068E+03  0.40247457617E+03 0.  0.
      99925    2    3    3    0    0 -0.22064219926E+02 -0.37625225440E+02 -0.32986842370E+02  0.26863828998E+03  0.26301313975E+03 0.  0.
         25    1    3    3    0    0  0.22064219926E+02  0.37625225440E+02  0.20373651763E+02  0.13403388070E+03  0.12509000000E+03 0.  0.
         25    1    4    4    0    0 -0.14575878765E+02 -0.52302118814E+02  0.62476605030E+01  0.13650827534E+03  0.12509000000E+03 0.  0.
         25    1    4    4    0    0 -0.74883411609E+01  0.14676893374E+02 -0.39234502873E+02  0.13213001464E+03  0.12509000000E+03 0.  0.
<mgrwt>
<rscale>  2 0.40247458E+03</rscale>
<asrwt>0</asrwt>
<pdfrwt beam="1">  1       21 0.28680807E-01 0.40247458E+03</pdfrwt>
<pdfrwt beam="2">  1       21 0.30535688E-01 0.40247458E+03</pdfrwt>
<totfact> 0.11300118E+05</totfact>
</mgrwt>
</event>
<event>
 7    0  0.4752811E-002  0.4585794E+03  0.7546771E-02  0.1025194E+00
         21   -1    0    0  502  501  0.00000000000E+00  0.00000000000E+00  0.64164404461E+03  0.64164404461E+03  0.00000000000E+00 0.  1.
         21   -1    0    0  501  502 -0.00000000000E+00 -0.00000000000E+00 -0.81936020635E+02  0.81936020635E+02  0.00000000000E+00 0.  1.
      99926    2    1    2    0    0  0.00000000000E+00  0.00000000000E+00  0.55970802398E+03  0.72358006525E+03  0.45857937014E+03 0.  0.
      99925    2    3    3    0    0  0.30103823131E+01 -0.10310656752E+03  0.26573098541E+03  0.38785691447E+03  0.26302091709E+03 0.  0.
         25    1    3    3    0    0 -0.30103823131E+01  0.10310656752E+03  0.29397703856E+03  0.33572315078E+03  0.12509000000E+03 0.  0.
         25    1    4    4    0    0 -0.10306004308E+02 -0.26807024697E+02  0.81288419997E+02  0.15192151139E+03  0.12509000000E+03 0.  0.
         25    1    4    4    0    0  0.13316386621E+02 -0.76299542821E+02  0.18444256542E+03  0.23593540308E+03  0.12509000000E+03 0.  0.
<mgrwt>
<rscale>  2 0.45857937E+03</rscale>
<asrwt>0</asrwt>
<pdfrwt beam="1">  1       21 0.94359416E-01 0.45857937E+03</pdfrwt>
<pdfrwt beam="2">  1       21 0.12049415E-01 0.45857937E+03</pdfrwt>
<totfact> 0.50212824E+04</totfact>
</mgrwt>
</event>
<event>
 7    0  0.4752811E-002  0.4543429E+03  0.7546771E-02  0.1026435E+00
         21   -1    0    0  502  501  0.00000000000E+00  0.00000000000E+00  0.31867649026E+03  0.31867649026E+03  0.00000000000E+00 0. -1.
         21   -1    0    0  501  502 -0.00000000000E+00 -0.00000000000E+00 -0.16194126848E+03  0.16194126848E+03  0.00000000000E+00 0. -1.
      99926    2    1    2    0    0  0.35527136788E-14  0.00000000000E+00  0.15673522178E+03  0.48061775873E+03  0.45434293244E+03 0.  0.
      99925    2    3    3    0    0  0.56223915579E+01 -0.10464123119E+03  0.55467126821E+02  0.28856533436E+03  0.26308164414E+03 0.  0.
         25    1    3    3    0    0 -0.56223915579E+01  0.10464123119E+03  0.10126809496E+03  0.19205242438E+03  0.12509000000E+03 0.  0.
         25    1    4    4    0    0  0.29745640278E+02 -0.19731915439E+02  0.24827187396E+02  0.13243129893E+03  0.12509000000E+03 0.  0.
         25    1    4    4    0    0 -0.24123248721E+02 -0.84909315752E+02  0.30639939425E+02  0.15613403543E+03  0.12509000000E+03 0.  0.
<mgrwt>
<rscale>  2 0.45434293E+03</rscale>
<asrwt>0</asrwt>
<pdfrwt beam="1">  1       21 0.46864190E-01 0.45434293E+03</pdfrwt>
<pdfrwt beam="2">  1       21 0.23814892E-01 0.45434293E+03</pdfrwt>
<totfact> 0.67003942E+04</totfact>
</mgrwt>
</event>
<event>
 7    0  0.4752811E-002  0.4608126E+03  0.7546771E-02  0.1024546E+00
         21   -1    0    0  502  501  0.00000000000E+00  0.00000000000E+00  0.38805529852E+03  0.38805529852E+03  0.00000000000E+00 0. -1.
         21   -1    0    0  501  502 -0.00000000000E+00 -0.00000000000E+00 -0.13680283811E+03  0.13680283811E+03  0.00000000000E+00 0. -1.
      99926    2    1    2    0    0 -0.71054273576E-14  0.00000000000E+00  0.25125246042E+03  0.52485813663E+03  0.46081261346E+03 0.  0.
      99925    2    3    3    0    0 -0.52816707936E+02  0.10532985927E+03  0.17222616940E+03  0.33571098052E+03  0.26297533179E+03 0.  0.
         25    1    4    4    0    0 -0.60066186088E+02  0.52205057500E+02  0.62516428276E+02  0.16090098397E+03  0.12509000000E+03 0.  0.
         25    1    3    3    0    0  0.52816707936E+02 -0.10532985927E+03  0.79026291015E+02  0.18914715610E+03  0.12509000000E+03 0.  0.
         25    1    4    4    0    0  0.72494781519E+01  0.53124801766E+02  0.10970974112E+03  0.17480999655E+03  0.12509000000E+03 0.  0.
<mgrwt>
<rscale>  2 0.46081261E+03</rscale>
<asrwt>0</asrwt>
<pdfrwt beam="1">  1       21 0.57066955E-01 0.46081261E+03</pdfrwt>
<pdfrwt beam="2">  1       21 0.20118065E-01 0.46081261E+03</pdfrwt>
<totfact> 0.60709222E+04</totfact>
</mgrwt>
</event>
<event>
 7    0  0.4752811E-002  0.4458920E+03  0.7546771E-02  0.1028954E+00
         21   -1    0    0  502  501  0.00000000000E+00  0.00000000000E+00  0.21176416894E+03  0.21176416894E+03  0.00000000000E+00 0.  1.
         21   -1    0    0  501  502 -0.00000000000E+00 -0.00000000000E+00 -0.23471822879E+03  0.23471822879E+03  0.00000000000E+00 0.  1.
      99926    2    1    2    0    0  0.00000000000E+00  0.00000000000E+00 -0.22954059851E+02  0.44648239773E+03  0.44589196294E+03 0.  0.
      99925    2    3    3    0    0  0.63130612694E+02  0.72958490211E+02 -0.54618520177E+02  0.28536578871E+03  0.26294873087E+03 0.  0.
         25    1    4    4    0    0  0.11286878475E+02  0.65396336204E+02 -0.75264082384E+01  0.14180348845E+03  0.12509000000E+03 0.  0.
         25    1    4    4    0    0  0.51843734219E+02  0.75621540070E+01 -0.47092111938E+02  0.14356230027E+03  0.12509000000E+03 0.  0.
         25    1    3    3    0    0 -0.63130612694E+02 -0.72958490211E+02  0.31664460326E+02  0.16111660902E+03  0.12509000000E+03 0.  0.
<mgrwt>
<rscale>  2 0.44589196E+03</rscale>
<asrwt>0</asrwt>
<pdfrwt beam="1">  1       21 0.31141789E-01 0.44589196E+03</pdfrwt>
<pdfrwt beam="2">  1       21 0.34517387E-01 0.44589196E+03</pdfrwt>
<totfact> 0.74438648E+04</totfact>
</mgrwt>
</event>
<event>
 7    0  0.4752811E-002  0.4513345E+03  0.7546771E-02  0.1027325E+00
         21   -1    0    0  502  501  0.00000000000E+00  0.00000000000E+00  0.21245532809E+03  0.21245532809E+03  0.00000000000E+00 0.  1.
         21   -1    0    0  501  502 -0.00000000000E+00 -0.00000000000E+00 -0.23970078955E+03  0.23970078955E+03  0.00000000000E+00 0.  1.
      99926    2    1    2    0    0 -0.71054273576E-14  0.00000000000E+00 -0.27245461459E+02  0.45215611764E+03  0.45133450960E+03 0.  0.
      99925    2    3    3    0    0 -0.56683789741E+02  0.28504815537E+02 -0.10684562901E+03  0.29088221615E+03  0.26300360969E+03 0.  0.
         25    1    4    4    0    0 -0.25816442188E+02  0.48701268803E+02 -0.31544421148E+02  0.14028849160E+03  0.12509000000E+03 0.  0.
         25    1    4    4    0    0 -0.30867347553E+02 -0.20196453267E+02 -0.75301207859E+02  0.15059372455E+03  0.12509000000E+03 0.  0.
         25    1    3    3    0    0  0.56683789741E+02 -0.28504815537E+02  0.79600167548E+02  0.16127390149E+03  0.12509000000E+03 0.  0.
<mgrwt>
<rscale>  2 0.45133451E+03</rscale>
<asrwt>0</asrwt>
<pdfrwt beam="1">  1       21 0.31243431E-01 0.45133451E+03</pdfrwt>
<pdfrwt beam="2">  1       21 0.35250116E-01 0.45133451E+03</pdfrwt>
<totfact> 0.70802842E+04</totfact>
</mgrwt>
</event>
<event>
 7    0  0.4752811E-002  0.4578117E+03  0.7546771E-02  0.1025418E+00
         21   -1    0    0  502  501  0.00000000000E+00  0.00000000000E+00  0.57196686863E+02  0.57196686863E+02  0.00000000000E+00 0. -1.
         21   -1    0    0  501  502 -0.00000000000E+00 -0.00000000000E+00 -0.91610008882E+03  0.91610008882E+03  0.00000000000E+00 0. -1.
      99926    2    1    2    0    0  0.00000000000E+00  0.00000000000E+00 -0.85890340196E+03  0.97329677568E+03  0.45781170765E+03 0.  0.
      99925    2    3    3    0    0  0.12052328992E+02  0.59505487990E+02 -0.32430580644E+03  0.42091261682E+03  0.26135610414E+03 0.  0.
         25    1    4    4    0    0 -0.31550077441E+02  0.24902167343E+02 -0.16065586814E+03  0.20754118000E+03  0.12509000000E+03 0.  0.
         25    1    4    4    0    0  0.43602406434E+02  0.34603320646E+02 -0.16364993830E+03  0.21337143682E+03  0.12509000000E+03 0.  0.
         25    1    3    3    0    0 -0.12052328992E+02 -0.59505487990E+02 -0.53459759551E+03  0.55238415886E+03  0.12509000000E+03 0.  0.
<mgrwt>
<rscale>  2 0.45781171E+03</rscale>
<asrwt>0</asrwt>
<pdfrwt beam="1">  1       21 0.84112776E-02 0.45781171E+03</pdfrwt>
<pdfrwt beam="2">  1       21 0.13472060E+00 0.45781171E+03</pdfrwt>
<totfact> 0.39339689E+04</totfact>
</mgrwt>
</event>
<event>
 7    0  0.4752811E-002  0.4489629E+03  0.7546771E-02  0.1028032E+00
         21   -1    0    0  502  501  0.00000000000E+00  0.00000000000E+00  0.78004101204E+03  0.78004101204E+03  0.00000000000E+00 0.  1.
         21   -1    0    0  501  502 -0.00000000000E+00 -0.00000000000E+00 -0.64601636202E+02  0.64601636202E+02  0.00000000000E+00 0.  1.
      99926    2    1    2    0    0  0.14210854715E-13  0.14210854715E-13  0.71543937584E+03  0.84464264824E+03  0.44896291911E+03 0.  0.
      99925    2    3    3    0    0 -0.85490083071E+02 -0.64059457765E+02  0.43191068528E+03  0.51684973359E+03  0.26301071958E+03 0.  0.
         25    1    3    3    0    0  0.85490083071E+02  0.64059457765E+02  0.28352869055E+03  0.32779291466E+03  0.12509000000E+03 0.  0.
         25    1    4    4    0    0 -0.31342985453E+02 -0.13644880852E+02  0.26841857234E+03  0.29810166653E+03  0.12509000000E+03 0.  0.
         25    1    4    4    0    0 -0.54147097618E+02 -0.50414576913E+02  0.16349211294E+03  0.21874806706E+03  0.12509000000E+03 0.  0.
<mgrwt>
<rscale>  2 0.44896292E+03</rscale>
<asrwt>0</asrwt>
<pdfrwt beam="1">  1       21 0.11471191E+00 0.44896292E+03</pdfrwt>
<pdfrwt beam="2">  1       21 0.95002411E-02 0.44896292E+03</pdfrwt>
<totfact> 0.47908992E+04</totfact>
</mgrwt>
</event>
<event>
 7    0  0.4752811E-002  0.4561923E+03  0.7546771E-02  0.1025891E+00
         21   -1    0    0  502  501  0.00000000000E+00  0.00000000000E+00  0.20687083880E+02  0.20687083880E+02  0.00000000000E+00 0.  1.
         21   -1    0    0  501  502 -0.00000000000E+00 -0.00000000000E+00 -0.25149916687E+04  0.25149916687E+04  0.00000000000E+00 0.  1.
      99926    2    1    2    0    0  0.14210854715E-13  0.00000000000E+00 -0.24943045848E+04  0.25356787525E+04  0.45619225600E+03 0.  0.
      99925    2    3    3    0    0 -0.92773945897E+02  0.39979940002E+02 -0.18648595657E+04  0.18860219656E+04  0.26300618700E+03 0.  0.
         25    1    4    4    0    0 -0.50503284937E+02  0.39889506135E+02 -0.11967759450E+04  0.12050153216E+04  0.12509000000E+03 0.  0.
         25    1    3    3    0    0  0.92773945897E+02 -0.39979940002E+02 -0.62944501908E+03  0.64965678691E+03  0.12509000000E+03 0.  0.
         25    1    4    4    0    0 -0.42270660960E+02  0.90433866915E-01 -0.66808362068E+03  0.68100664408E+03  0.12509000000E+03 0.  0.
<mgrwt>
<rscale>  2 0.45619226E+03</rscale>
<asrwt>0</asrwt>
<pdfrwt beam="1">  1       21 0.30422182E-02 0.45619226E+03</pdfrwt>
<pdfrwt beam="2">  1       21 0.36985172E+00 0.45619226E+03</pdfrwt>
<totfact> 0.67111681E+03</totfact>
</mgrwt>
</event>
<event>
 7    0  0.4752811E-002  0.4436374E+03  0.7546771E-02  0.1029637E+00
         21   -1    0    0  502  501  0.00000000000E+00  0.00000000000E+00  0.16367615626E+04  0.16367615626E+04  0.00000000000E+00 0.  1.
         21   -1    0    0  501  502 -0.00000000000E+00 -0.00000000000E+00 -0.30061514614E+02  0.30061514614E+02  0.00000000000E+00 0.  1.
      99926    2    1    2    0    0  0.00000000000E+00 -0.71054273576E-14  0.16067000480E+04  0.16668230772E+04  0.44363738180E+03 0.  0.
      99925    2    3    3    0    0  0.78090471390E+02 -0.61833783758E+02  0.11064045506E+04  0.11415949065E+04  0.26303300622E+03 0.  0.
         25    1    3    3    0    0 -0.78090471390E+02  0.61833783758E+02  0.50029549740E+03  0.52522817075E+03  0.12509000000E+03 0.  0.
         25    1    4    4    0    0  0.57744405913E+02 -0.21485534104E+02  0.70724938423E+03  0.72086423423E+03  0.12509000000E+03 0.  0.
         25    1    4    4    0    0  0.20346065477E+02 -0.40348249654E+02  0.39915516637E+03  0.42073067225E+03  0.12509000000E+03 0.  0.
<mgrwt>
<rscale>  2 0.44363738E+03</rscale>
<asrwt>0</asrwt>
<pdfrwt beam="1">  1       21 0.24070017E+00 0.44363738E+03</pdfrwt>
<pdfrwt beam="2">  1       21 0.44208121E-02 0.44363738E+03</pdfrwt>
<totfact> 0.21823893E+04</totfact>
</mgrwt>
</event>
<event>
 7    0  0.4752811E-002  0.4488398E+03  0.7546771E-02  0.1028069E+00
         21   -1    0    0  502  501  0.00000000000E+00  0.00000000000E+00  0.46270492436E+03  0.46270492436E+03  0.00000000000E+00 0.  1.
         21   -1    0    0  501  502 -0.00000000000E+00 -0.00000000000E+00 -0.10884751850E+03  0.10884751850E+03  0.00000000000E+00 0.  1.
      99926    2    1    2    0    0  0.00000000000E+00  0.00000000000E+00  0.35385740586E+03  0.57155244286E+03  0.44883976123E+03 0.  0.
      99925    2    3    3    0    0  0.53342904813E+02 -0.85853486097E+02  0.26942329756E+03  0.38991292813E+03  0.26311003721E+03 0.  0.
         25    1    4    4    0    0  0.40411462539E+02 -0.12088318157E+02  0.95319502577E+02  0.16282668520E+03  0.12509000000E+03 0.  0.
         25    1    4    4    0    0  0.12931442274E+02 -0.73765167940E+02  0.17410379498E+03  0.22708624293E+03  0.12509000000E+03 0.  0.
         25    1    3    3    0    0 -0.53342904813E+02  0.85853486097E+02  0.84434108302E+02  0.18163951474E+03  0.12509000000E+03 0.  0.
<mgrwt>
<rscale>  2 0.44883976E+03</rscale>
<asrwt>0</asrwt>
<pdfrwt beam="1">  1       21 0.68044841E-01 0.44883976E+03</pdfrwt>
<pdfrwt beam="2">  1       21 0.16006988E-01 0.44883976E+03</pdfrwt>
<totfact> 0.63501546E+04</totfact>
</mgrwt>
</event>
<event>
 7    0  0.4752811E-002  0.4747859E+03  0.7546771E-02  0.1020578E+00
         21   -1    0    0  502  501  0.00000000000E+00  0.00000000000E+00  0.48285705717E+02  0.48285705717E+02  0.00000000000E+00 0.  1.
         21   -1    0    0  501  502 -0.00000000000E+00 -0.00000000000E+00 -0.11671242682E+04  0.11671242682E+04  0.00000000000E+00 0.  1.
      99926    2    1    2    0    0 -0.14210854715E-13 -0.35527136788E-14 -0.11188385625E+04  0.12154099739E+04  0.47478592629E+03 0.  0.
      99925    2    3    3    0    0  0.68399371747E+02  0.29494149716E+02 -0.41510216926E+03  0.49677181867E+03  0.26253390254E+03 0.  0.
         25    1    4    4    0    0  0.63650486129E+02 -0.36301202624E+01 -0.17900899230E+03  0.22750008700E+03  0.12509000000E+03 0.  0.
         25    1    3    3    0    0 -0.68399371747E+02 -0.29494149716E+02 -0.70373639323E+03  0.71863815525E+03  0.12509000000E+03 0.  0.
         25    1    4    4    0    0  0.47488856178E+01  0.33124269978E+02 -0.23609317695E+03  0.26927173168E+03  0.12509000000E+03 0.  0.
<mgrwt>
<rscale>  2 0.47478593E+03</rscale>
<asrwt>0</asrwt>
<pdfrwt beam="1">  1       21 0.71008384E-02 0.47478593E+03</pdfrwt>
<pdfrwt beam="2">  1       21 0.17163594E+00 0.47478593E+03</pdfrwt>
<totfact> 0.27226988E+04</totfact>
</mgrwt>
</event>
<event>
 7    0  0.4752811E-002  0.4583886E+03  0.7546771E-02  0.1025250E+00
         21   -1    0    0  502  501  0.00000000000E+00  0.00000000000E+00  0.13754039601E+04  0.13754039601E+04  0.00000000000E+00 0.  1.
         21   -1    0    0  501  502 -0.00000000000E+00 -0.00000000000E+00 -0.38192439774E+02  0.38192439774E+02  0.00000000000E+00 0.  1.
      99926    2    1    2    0    0 -0.71054273576E-14  0.00000000000E+00  0.13372115203E+04  0.14135963998E+04  0.45838862512E+03 0.  0.
      99925    2    3    3    0    0 -0.47059225295E+02 -0.56192230435E+02  0.11174915278E+04  0.11503540768E+04  0.26297347743E+03 0.  0.
         25    1    4    4    0    0 -0.10973276987E+02 -0.17223510847E+02  0.38391918429E+03  0.40430002510E+03  0.12509000000E+03 0.  0.
         25    1    4    4    0    0 -0.36085948308E+02 -0.38968719588E+02  0.73357234347E+03  0.74605405165E+03  0.12509000000E+03 0.  0.
         25    1    3    3    0    0  0.47059225295E+02  0.56192230435E+02  0.21971999252E+03  0.26324232307E+03  0.12509000000E+03 0.  0.
<mgrwt>
<rscale>  2 0.45838863E+03</rscale>
<asrwt>0</asrwt>
<pdfrwt beam="1">  1       21 0.20226526E+00 0.45838863E+03</pdfrwt>
<pdfrwt beam="2">  1       21 0.56165362E-02 0.45838863E+03</pdfrwt>
<totfact> 0.25299174E+04</totfact>
</mgrwt>
</event>
<event>
 7    0  0.4752811E-002  0.4495388E+03  0.7546771E-02  0.1027860E+00
         21   -1    0    0  502  501  0.00000000000E+00  0.00000000000E+00  0.58547171811E+03  0.58547171811E+03  0.00000000000E+00 0.  1.
         21   -1    0    0  501  502 -0.00000000000E+00 -0.00000000000E+00 -0.86291589140E+02  0.86291589140E+02  0.00000000000E+00 0.  1.
      99926    2    1    2    0    0 -0.14210854715E-13  0.00000000000E+00  0.49918012897E+03  0.67176330725E+03  0.44953880790E+03 0.  0.
      99925    2    3    3    0    0  0.90891912411E+02  0.46211908160E+02  0.26267426650E+03  0.38544283770E+03  0.26300481109E+03 0.  0.
         25    1    3    3    0    0 -0.90891912411E+02 -0.46211908160E+02  0.23650586247E+03  0.28632046954E+03  0.12509000000E+03 0.  0.
         25    1    4    4    0    0  0.64464424471E+02  0.27358882724E+02  0.18719010404E+03  0.23577916286E+03  0.12509000000E+03 0.  0.
         25    1    4    4    0    0  0.26427487940E+02  0.18853025436E+02  0.75484162458E+02  0.14966367485E+03  0.12509000000E+03 0.  0.
<mgrwt>
<rscale>  2 0.44953881E+03</rscale>
<asrwt>0</asrwt>
<pdfrwt beam="1">  1       21 0.86098780E-01 0.44953881E+03</pdfrwt>
<pdfrwt beam="2">  1       21 0.12689940E-01 0.44953881E+03</pdfrwt>
<totfact> 0.56870837E+04</totfact>
</mgrwt>
</event>
<event>
 7    0  0.4752811E-002  0.4502214E+03  0.7546771E-02  0.1027656E+00
         21   -1    0    0  502  501  0.00000000000E+00  0.00000000000E+00  0.12246393943E+03  0.12246393943E+03  0.00000000000E+00 0. -1.
         21   -1    0    0  501  502 -0.00000000000E+00 -0.00000000000E+00 -0.41379386290E+03  0.41379386290E+03  0.00000000000E+00 0. -1.
      99926    2    1    2    0    0 -0.35527136788E-14  0.00000000000E+00 -0.29132992347E+03  0.53625780233E+03  0.45022139693E+03 0.  0.
      99925    2    3    3    0    0  0.28981779381E+02 -0.93124082598E+02 -0.24147203939E+03  0.36998887859E+03  0.26281359588E+03 0.  0.
         25    1    4    4    0    0 -0.35133919059E+01 -0.71252203690E+02 -0.16177709920E+03  0.21658383684E+03  0.12509000000E+03 0.  0.
         25    1    3    3    0    0 -0.28981779381E+02  0.93124082598E+02 -0.49857884082E+02  0.16626892374E+03  0.12509000000E+03 0.  0.
         25    1    4    4    0    0  0.32495171287E+02 -0.21871878908E+02 -0.79694940182E+02  0.15340504175E+03  0.12509000000E+03 0.  0.
<mgrwt>
<rscale>  2 0.45022140E+03</rscale>
<asrwt>0</asrwt>
<pdfrwt beam="1">  1       21 0.18009403E-01 0.45022140E+03</pdfrwt>
<pdfrwt beam="2">  1       21 0.60852038E-01 0.45022140E+03</pdfrwt>
<totfact> 0.65215569E+04</totfact>
</mgrwt>
</event>
<event>
 7    0  0.4752811E-002  0.4556008E+03  0.7546771E-02  0.1026065E+00
         21   -1    0    0  502  501  0.00000000000E+00  0.00000000000E+00  0.22904428537E+03  0.22904428537E+03  0.00000000000E+00 0.  1.
         21   -1    0    0  501  502 -0.00000000000E+00 -0.00000000000E+00 -0.22656330221E+03  0.22656330221E+03  0.00000000000E+00 0.  1.
      99926    2    1    2    0    0 -0.14210854715E-13  0.00000000000E+00  0.24809831631E+01  0.45560758758E+03  0.45560083251E+03 0.  0.
      99925    2    3    3    0    0 -0.97818411084E+02  0.57894086315E+02 -0.21968228185E+01  0.28652312127E+03  0.26300286352E+03 0.  0.
         25    1    3    3    0    0  0.97818411084E+02 -0.57894086315E+02  0.46778059816E+01  0.16908446631E+03  0.12509000000E+03 0.  0.
         25    1    4    4    0    0 -0.65203313468E+02  0.47784468472E+02 -0.34526222096E+02  0.15288687199E+03  0.12509000000E+03 0.  0.
         25    1    4    4    0    0 -0.32615097616E+02  0.10109617843E+02  0.32329399278E+02  0.13363624929E+03  0.12509000000E+03 0.  0.
<mgrwt>
<rscale>  2 0.45560083E+03</rscale>
<asrwt>0</asrwt>
<pdfrwt beam="1">  1       21 0.33682983E-01 0.45560083E+03</pdfrwt>
<pdfrwt beam="2">  1       21 0.33318133E-01 0.45560083E+03</pdfrwt>
<totfact> 0.68173888E+04</totfact>
</mgrwt>
</event>
<event>
 7    0  0.4752811E-002  0.4552740E+03  0.7546771E-02  0.1026161E+00
         21   -1    0    0  502  501  0.00000000000E+00  0.00000000000E+00  0.24219821412E+03  0.24219821412E+03  0.00000000000E+00 0.  1.
         21   -1    0    0  501  502 -0.00000000000E+00 -0.00000000000E+00 -0.21395119629E+03  0.21395119629E+03  0.00000000000E+00 0.  1.
      99926    2    1    2    0    0 -0.14210854715E-13 -0.71054273576E-14  0.28247017828E+02  0.45614941041E+03  0.45527397312E+03 0.  0.
      99925    2    3    3    0    0  0.10726049854E+03  0.36610482977E+02  0.16180608914E+02  0.28692101936E+03  0.26309070154E+03 0.  0.
         25    1    3    3    0    0 -0.10726049854E+03 -0.36610482977E+02  0.12066408915E+02  0.16922839104E+03  0.12509000000E+03 0.  0.
         25    1    4    4    0    0  0.91686819728E+02  0.26151946396E+01 -0.18233188759E+01  0.15512622198E+03  0.12509000000E+03 0.  0.
         25    1    4    4    0    0  0.15573678811E+02  0.33995288338E+02  0.18003927790E+02  0.13179479738E+03  0.12509000000E+03 0.  0.
<mgrwt>
<rscale>  2 0.45527397E+03</rscale>
<asrwt>0</asrwt>
<pdfrwt beam="1">  1       21 0.35617384E-01 0.45527397E+03</pdfrwt>
<pdfrwt beam="2">  1       21 0.31463411E-01 0.45527397E+03</pdfrwt>
<totfact> 0.68312253E+04</totfact>
</mgrwt>
</event>
<event>
 7    0  0.4752811E-002  0.4580194E+03  0.7546771E-02  0.1025357E+00
         21   -1    0    0  502  501  0.00000000000E+00  0.00000000000E+00  0.36535179662E+03  0.36535179662E+03  0.00000000000E+00 0.  1.
         21   -1    0    0  501  502 -0.00000000000E+00 -0.00000000000E+00 -0.14354777590E+03  0.14354777590E+03  0.00000000000E+00 0.  1.
      99926    2    1    2    0    0  0.00000000000E+00  0.35527136788E-14  0.22180402072E+03  0.50889957252E+03  0.45801937874E+03 0.  0.
      99925    2    3    3    0    0  0.40772663072E+02 -0.25663711978E+02  0.25640400330E+03  0.37045932165E+03  0.26301342156E+03 0.  0.
         25    1    3    3    0    0 -0.40772663072E+02  0.25663711978E+02 -0.34599982580E+02  0.13844025087E+03  0.12509000000E+03 0.  0.
         25    1    4    4    0    0 -0.95925229086E+01  0.10241829175E+02  0.99293629505E+02  0.16032356196E+03  0.12509000000E+03 0.  0.
         25    1    4    4    0    0  0.50365185980E+02 -0.35905541153E+02  0.15711037380E+03  0.21013575969E+03  0.12509000000E+03 0.  0.
<mgrwt>
<rscale>  2 0.45801938E+03</rscale>
<asrwt>0</asrwt>
<pdfrwt beam="1">  1       21 0.53728205E-01 0.45801938E+03</pdfrwt>
<pdfrwt beam="2">  1       21 0.21109967E-01 0.45801938E+03</pdfrwt>
<totfact> 0.63123515E+04</totfact>
</mgrwt>
</event>
<event>
 7    0  0.4752811E-002  0.4597867E+03  0.7546771E-02  0.1024843E+00
         21   -1    0    0  502  501  0.00000000000E+00  0.00000000000E+00  0.43942337117E+03  0.43942337117E+03  0.00000000000E+00 0.  1.
         21   -1    0    0  501  502 -0.00000000000E+00 -0.00000000000E+00 -0.12027343742E+03  0.12027343742E+03  0.00000000000E+00 0.  1.
      99926    2    1    2    0    0  0.14210854715E-13 -0.71054273576E-14  0.31914993375E+03  0.55969680860E+03  0.45978673028E+03 0.  0.
      99925    2    3    3    0    0 -0.10838701821E+03  0.45693733246E+02  0.19851666097E+03  0.34985029903E+03  0.26296521458E+03 0.  0.
         25    1    4    4    0    0 -0.31973899528E+02 -0.13382283136E+02  0.82570833911E+02  0.15384039283E+03  0.12509000000E+03 0.  0.
         25    1    4    4    0    0 -0.76413118683E+02  0.59076016382E+02  0.11594582706E+03  0.19600990620E+03  0.12509000000E+03 0.  0.
         25    1    3    3    0    0  0.10838701821E+03 -0.45693733246E+02  0.12063327278E+03  0.20984650956E+03  0.12509000000E+03 0.  0.
<mgrwt>
<rscale>  2 0.45978673E+03</rscale>
<asrwt>0</asrwt>
<pdfrwt beam="1">  1       21 0.64621084E-01 0.45978673E+03</pdfrwt>
<pdfrwt beam="2">  1       21 0.17687270E-01 0.45978673E+03</pdfrwt>
<totfact> 0.58965702E+04</totfact>
</mgrwt>
</event>
<event>
 7    0  0.4752811E-002  0.4504653E+03  0.7546771E-02  0.1027583E+00
         21   -1    0    0  502  501  0.00000000000E+00  0.00000000000E+00  0.40102190463E+02  0.40102190463E+02  0.00000000000E+00 0.  1.
         21   -1    0    0  501  502 -0.00000000000E+00 -0.00000000000E+00 -0.12650116649E+04  0.12650116649E+04  0.00000000000E+00 0.  1.
      99926    2    1    2    0    0  0.00000000000E+00  0.00000000000E+00 -0.12249094745E+04  0.13051138554E+04  0.45046526492E+03 0.  0.
      99925    2    3    3    0    0  0.94681781948E+02 -0.52530827464E+02 -0.80877174231E+03  0.85729441869E+03  0.26290276051E+03 0.  0.
         25    1    3    3    0    0 -0.94681781948E+02  0.52530827464E+02 -0.41613773217E+03  0.44781943672E+03  0.12509000000E+03 0.  0.
         25    1    4    4    0    0  0.14487683352E+02 -0.69688829185E+01 -0.42272142154E+03  0.44113418211E+03  0.12509000000E+03 0.  0.
         25    1    4    4    0    0  0.80194098596E+02 -0.45561944545E+02 -0.38605032078E+03  0.41616023658E+03  0.12509000000E+03 0.  0.
<mgrwt>
<rscale>  2 0.45046526E+03</rscale>
<asrwt>0</asrwt>
<pdfrwt beam="1">  1       21 0.58973807E-02 0.45046526E+03</pdfrwt>
<pdfrwt beam="2">  1       21 0.18603113E+00 0.45046526E+03</pdfrwt>
<totfact> 0.30011008E+04</totfact>
</mgrwt>
</event>
<event>
 7    0  0.4752811E-002  0.4561420E+03  0.7546771E-02  0.1025906E+00
         21   -1    0    0  502  501  0.00000000000E+00  0.00000000000E+00  0.16455449304E+03  0.16455449304E+03  0.00000000000E+00 0. -1.
         21   -1    0    0  501  502 -0.00000000000E+00 -0.00000000000E+00 -0.31610429738E+03  0.31610429738E+03  0.00000000000E+00 0. -1.
      99926    2    1    2    0    0 -0.14210854715E-13  0.00000000000E+00 -0.15154980434E+03  0.48065879042E+03  0.45614200597E+03 0.  0.
      99925    2    3    3    0    0 -0.83118719395E+02 -0.78035245606E+02 -0.88559616228E+02  0.30006672811E+03  0.26305705583E+03 0.  0.
         25    1    4    4    0    0  0.37665526379E+00 -0.28553871577E+02 -0.42837051271E+02  0.13527005032E+03  0.12509000000E+03 0.  0.
         25    1    3    3    0    0  0.83118719395E+02  0.78035245606E+02 -0.62990188115E+02  0.18059206231E+03  0.12509000000E+03 0.  0.
         25    1    4    4    0    0 -0.83495374659E+02 -0.49481374029E+02 -0.45722564957E+02  0.16479667779E+03  0.12509000000E+03 0.  0.
<mgrwt>
<rscale>  2 0.45614201E+03</rscale>
<asrwt>0</asrwt>
<pdfrwt beam="1">  1       21 0.24199191E-01 0.45614201E+03</pdfrwt>
<pdfrwt beam="2">  1       21 0.46485925E-01 0.45614201E+03</pdfrwt>
<totfact> 0.66051410E+04</totfact>
</mgrwt>
</event>
<event>
 7    0  0.4752811E-002  0.4592717E+03  0.7546771E-02  0.1024993E+00
         21   -1    0    0  502  501  0.00000000000E+00  0.00000000000E+00  0.14919886033E+03  0.14919886033E+03  0.00000000000E+00 0.  1.
         21   -1    0    0  501  502 -0.00000000000E+00 -0.00000000000E+00 -0.35343851434E+03  0.35343851434E+03  0.00000000000E+00 0.  1.
      99926    2    1    2    0    0  0.00000000000E+00  0.00000000000E+00 -0.20423965401E+03  0.50263737467E+03  0.45927169969E+03 0.  0.
      99925    2    3    3    0    0 -0.10065870799E+03 -0.58262877832E+02 -0.14184402418E+03  0.32079276752E+03  0.26317586149E+03 0.  0.
         25    1    3    3    0    0  0.10065870799E+03  0.58262877832E+02 -0.62395629831E+02  0.18184460715E+03  0.12509000000E+03 0.  0.
         25    1    4    4    0    0 -0.36297800919E+02 -0.50379541581E+02 -0.35017924563E+02  0.14397705269E+03  0.12509000000E+03 0.  0.
         25    1    4    4    0    0 -0.64360907068E+02 -0.78833362502E+01 -0.10682609962E+03  0.17681571482E+03  0.12509000000E+03 0.  0.
<mgrwt>
<rscale>  2 0.45927170E+03</rscale>
<asrwt>0</asrwt>
<pdfrwt beam="1">  1       21 0.21941009E-01 0.45927170E+03</pdfrwt>
<pdfrwt beam="2">  1       21 0.51976251E-01 0.45927170E+03</pdfrwt>
<totfact> 0.62924843E+04</totfact>
</mgrwt>
</event>
<event>
 7    0  0.4752811E-002  0.4408148E+03  0.7546771E-02  0.1030497E+00
         21   -1    0    0  502  501  0.00000000000E+00  0.00000000000E+00  0.34826489286E+02  0.34826489286E+02  0.00000000000E+00 0.  1.
         21   -1    0    0  501  502 -0.00000000000E+00 -0.00000000000E+00 -0.13948983285E+04  0.13948983285E+04  0.00000000000E+00 0.  1.
      99926    2    1    2    0    0  0.00000000000E+00  0.00000000000E+00 -0.13600718392E+04  0.14297248178E+04  0.44081475335E+03 0.  0.
      99925    2    3    3    0    0 -0.11182375714E+02  0.93942602888E+02 -0.76930394857E+03  0.81849289218E+03  0.26296728143E+03 0.  0.
         25    1    4    4    0    0 -0.45908281966E+01  0.22945947226E+02 -0.46067884074E+03  0.47793314868E+03  0.12509000000E+03 0.  0.
         25    1    3    3    0    0  0.11182375714E+02 -0.93942602888E+02 -0.59076789067E+03  0.61123192563E+03  0.12509000000E+03 0.  0.
         25    1    4    4    0    0 -0.65915475172E+01  0.70996655661E+02 -0.30862510783E+03  0.34055974351E+03  0.12509000000E+03 0.  0.
<mgrwt>
<rscale>  2 0.44081475E+03</rscale>
<asrwt>0</asrwt>
<pdfrwt beam="1">  1       21 0.51215422E-02 0.44081475E+03</pdfrwt>
<pdfrwt beam="2">  1       21 0.20513212E+00 0.44081475E+03</pdfrwt>
<totfact> 0.28572582E+04</totfact>
</mgrwt>
</event>
<event>
 7    0  0.4752811E-002  0.4391689E+03  0.7546771E-02  0.1031002E+00
         21   -1    0    0  502  501  0.00000000000E+00  0.00000000000E+00  0.38249183079E+03  0.38249183079E+03  0.00000000000E+00 0.  1.
         21   -1    0    0  501  502 -0.00000000000E+00 -0.00000000000E+00 -0.12606108844E+03  0.12606108844E+03  0.00000000000E+00 0.  1.
      99926    2    1    2    0    0  0.00000000000E+00 -0.35527136788E-14  0.25643074235E+03  0.50855291922E+03  0.43916892653E+03 0.  0.
      99925    2    3    3    0    0 -0.46507016756E+02 -0.14572092937E+02  0.26166467595E+03  0.37420207010E+03  0.26302763757E+03 0.  0.
         25    1    3    3    0    0  0.46507016756E+02  0.14572092937E+02 -0.52339335994E+01  0.13435084913E+03  0.12509000000E+03 0.  0.
         25    1    4    4    0    0 -0.39419994952E+02 -0.41049538260E+02  0.15830959719E+03  0.20963882574E+03  0.12509000000E+03 0.  0.
         25    1    4    4    0    0 -0.70870218036E+01  0.26477445323E+02  0.10335507876E+03  0.16456324436E+03  0.12509000000E+03 0.  0.
<mgrwt>
<rscale>  2 0.43916893E+03</rscale>
<asrwt>0</asrwt>
<pdfrwt beam="1">  1       21 0.56248798E-01 0.43916893E+03</pdfrwt>
<pdfrwt beam="2">  1       21 0.18538395E-01 0.43916893E+03</pdfrwt>
<totfact> 0.73477468E+04</totfact>
</mgrwt>
</event>
<event>
 7    0  0.4752811E-002  0.4546426E+03  0.7546771E-02  0.1026347E+00
         21   -1    0    0  502  501  0.00000000000E+00  0.00000000000E+00  0.13372468661E+03  0.13372468661E+03  0.00000000000E+00 0.  1.
         21   -1    0    0  501  502 -0.00000000000E+00 -0.00000000000E+00 -0.38642805353E+03  0.38642805353E+03  0.00000000000E+00 0.  1.
      99926    2    1    2    0    0  0.00000000000E+00  0.22204460493E-15 -0.25270336692E+03  0.52015274014E+03  0.45464258646E+03 0.  0.
      99925    2    3    3    0    0  0.57781508214E+02 -0.19678663186E+01 -0.26993001239E+03  0.38127567003E+03  0.26299496151E+03 0.  0.
         25    1    4    4    0    0 -0.28705782560E+01  0.56832865916E+01 -0.16384772296E+03  0.20623802846E+03  0.12509000000E+03 0.  0.
         25    1    3    3    0    0 -0.57781508214E+02  0.19678663186E+01  0.17226645468E+02  0.13887707011E+03  0.12509000000E+03 0.  0.
         25    1    4    4    0    0  0.60652086470E+02 -0.76511529102E+01 -0.10608228943E+03  0.17503764156E+03  0.12509000000E+03 0.  0.
<mgrwt>
<rscale>  2 0.45464259E+03</rscale>
<asrwt>0</asrwt>
<pdfrwt beam="1">  1       21 0.19665395E-01 0.45464259E+03</pdfrwt>
<pdfrwt beam="2">  1       21 0.56827654E-01 0.45464259E+03</pdfrwt>
<totfact> 0.64058310E+04</totfact>
</mgrwt>
</event>
<event>
 7    0  0.4752811E-002  0.4580418E+03  0.7546771E-02  0.1025351E+00
         21   -1    0    0  502  501  0.00000000000E+00  0.00000000000E+00  0.14134660000E+03  0.14134660000E+03  0.00000000000E+00 0. -1.
         21   -1    0    0  501  502 -0.00000000000E+00 -0.00000000000E+00 -0.37107775576E+03  0.37107775576E+03  0.00000000000E+00 0. -1.
      99926    2    1    2    0    0  0.14210854715E-13 -0.88817841970E-15 -0.22973115576E+03  0.51242435576E+03  0.45804182827E+03 0.  0.
      99925    2    3    3    0    0  0.11329499029E+03 -0.37138863553E+01 -0.11852595145E+03  0.31027675290E+03  0.26338890343E+03 0.  0.
         25    1    3    3    0    0 -0.11329499029E+03  0.37138863553E+01 -0.11120520430E+03  0.20214760286E+03  0.12509000000E+03 0.  0.
         25    1    4    4    0    0  0.59323542594E+02  0.33384256848E+02 -0.36629444793E+02  0.14704766451E+03  0.12509000000E+03 0.  0.
         25    1    4    4    0    0  0.53971447694E+02 -0.37098143203E+02 -0.81896506660E+02  0.16322908840E+03  0.12509000000E+03 0.  0.
<mgrwt>
<rscale>  2 0.45804183E+03</rscale>
<asrwt>0</asrwt>
<pdfrwt beam="1">  1       21 0.20786265E-01 0.45804183E+03</pdfrwt>
<pdfrwt beam="2">  1       21 0.54570258E-01 0.45804183E+03</pdfrwt>
<totfact> 0.62874749E+04</totfact>
</mgrwt>
</event>
<event>
 7    0  0.4752811E-002  0.4539763E+03  0.7546771E-02  0.1026543E+00
         21   -1    0    0  502  501  0.00000000000E+00  0.00000000000E+00  0.15368392826E+03  0.15368392826E+03  0.00000000000E+00 0. -1.
         21   -1    0    0  501  502 -0.00000000000E+00 -0.00000000000E+00 -0.33525704085E+03  0.33525704085E+03  0.00000000000E+00 0. -1.
      99926    2    1    2    0    0  0.00000000000E+00  0.44408920985E-15 -0.18157311258E+03  0.48894096911E+03  0.45397629461E+03 0.  0.
      99925    2    3    3    0    0 -0.10859504396E+03  0.25981284124E+01 -0.14418997232E+03  0.31910386740E+03  0.26312904862E+03 0.  0.
         25    1    4    4    0    0 -0.77833612449E+02 -0.21020494945E+02 -0.47166839116E+02  0.15611582638E+03  0.12509000000E+03 0.  0.
         25    1    3    3    0    0  0.10859504396E+03 -0.25981284124E+01 -0.37383140268E+02  0.16983710172E+03  0.12509000000E+03 0.  0.
         25    1    4    4    0    0 -0.30761431509E+02  0.23618623357E+02 -0.97023133201E+02  0.16298804101E+03  0.12509000000E+03 0.  0.
<mgrwt>
<rscale>  2 0.45397629E+03</rscale>
<asrwt>0</asrwt>
<pdfrwt beam="1">  1       21 0.22600578E-01 0.45397629E+03</pdfrwt>
<pdfrwt beam="2">  1       21 0.49302506E-01 0.45397629E+03</pdfrwt>
<totfact> 0.66594356E+04</totfact>
</mgrwt>
</event>
<event>
 7    0  0.4752811E-002  0.4493825E+03  0.7546771E-02  0.1027906E+00
         21   -1    0    0  502  501  0.00000000000E+00  0.00000000000E+00  0.66209397893E+03  0.66209397893E+03  0.00000000000E+00 0. -1.
         21   -1    0    0  501  502 -0.00000000000E+00 -0.00000000000E+00 -0.76252239030E+02  0.76252239030E+02  0.00000000000E+00 0. -1.
      99926    2    1    2    0    0 -0.14210854715E-13  0.00000000000E+00  0.58584173990E+03  0.73834621796E+03  0.44938245779E+03 0.  0.
      99925    2    3    3    0    0 -0.10698222576E+03 -0.50545489124E+01  0.35215892926E+03  0.45246878062E+03  0.26313749426E+03 0.  0.
         25    1    3    3    0    0  0.10698222576E+03  0.50545489124E+01  0.23368281064E+03  0.28587743734E+03  0.12509000000E+03 0.  0.
         25    1    4    4    0    0 -0.39578981058E+02 -0.29432967916E+02  0.12604158424E+03  0.18430079869E+03  0.12509000000E+03 0.  0.
         25    1    4    4    0    0 -0.67403244701E+02  0.24378419004E+02  0.22611734502E+03  0.26816798192E+03  0.12509000000E+03 0.  0.
<mgrwt>
<rscale>  2 0.44938246E+03</rscale>
<asrwt>0</asrwt>
<pdfrwt beam="1">  1       21 0.97366759E-01 0.44938246E+03</pdfrwt>
<pdfrwt beam="2">  1       21 0.11213565E-01 0.44938246E+03</pdfrwt>
<totfact> 0.53179973E+04</totfact>
</mgrwt>
</event>
<event>
 6    0  0.4752811E-002  0.4500546E+03  0.7546771E-02  0.1027706E+00
         21   -1    0    0  502  501  0.00000000000E+00  0.00000000000E+00  0.52530712756E+03  0.52530712756E+03  0.00000000000E+00 0.  1.
         21   -1    0    0  501  502 -0.00000000000E+00 -0.00000000000E+00 -0.96395563703E+02  0.96395563703E+02  0.00000000000E+00 0.  1.
      99926    2    1    2    0    0  0.00000000000E+00  0.00000000000E+00  0.42891156385E+03  0.62170269126E+03  0.45005455971E+03 0.  0.
         25    1    3    3    0    0  0.78642718168E+02  0.14063276655E+02  0.88164600042E+02  0.17263533147E+03  0.12509000000E+03 0.  0.
         25    1    3    3    0    0 -0.98020668171E+02 -0.35596776683E+02  0.21083588101E+03  0.26641032022E+03  0.12509000000E+03 0.  0.
         25    1    3    3    0    0  0.19377950004E+02  0.21533500029E+02  0.12991108280E+03  0.18265703957E+03  0.12509000000E+03 0.  0.
<mgrwt>
<rscale>  2 0.45005456E+03</rscale>
<asrwt>0</asrwt>
<pdfrwt beam="1">  1       21 0.77251047E-01 0.45005456E+03</pdfrwt>
<pdfrwt beam="2">  1       21 0.14175818E-01 0.45005456E+03</pdfrwt>
<totfact> 0.59657539E+04</totfact>
</mgrwt>
</event>
<event>
 7    0  0.4752811E-002  0.4534456E+03  0.7546771E-02  0.1026699E+00
         21   -1    0    0  502  501  0.00000000000E+00  0.00000000000E+00  0.12528266500E+03  0.12528266500E+03  0.00000000000E+00 0.  1.
         21   -1    0    0  501  502 -0.00000000000E+00 -0.00000000000E+00 -0.41029800094E+03  0.41029800094E+03  0.00000000000E+00 0.  1.
      99926    2    1    2    0    0  0.00000000000E+00  0.00000000000E+00 -0.28501533594E+03  0.53558066594E+03  0.45344559542E+03 0.  0.
      99925    2    3    3    0    0  0.90274060285E+02 -0.11534704213E+02 -0.25623420842E+03  0.37823290852E+03  0.26291007619E+03 0.  0.
         25    1    4    4    0    0  0.23345301965E+02 -0.40247735714E+02 -0.12158448571E+03  0.18054134878E+03  0.12509000000E+03 0.  0.
         25    1    3    3    0    0 -0.90274060285E+02  0.11534704213E+02 -0.28781127518E+02  0.15734775741E+03  0.12509000000E+03 0.  0.
         25    1    4    4    0    0  0.66928758320E+02  0.28713031502E+02 -0.13464972271E+03  0.19769155975E+03  0.12509000000E+03 0.  0.
<mgrwt>
<rscale>  2 0.45344560E+03</rscale>
<asrwt>0</asrwt>
<pdfrwt beam="1">  1       21 0.18423921E-01 0.45344560E+03</pdfrwt>
<pdfrwt beam="2">  1       21 0.60337942E-01 0.45344560E+03</pdfrwt>
<totfact> 0.63608484E+04</totfact>
</mgrwt>
</event>
<event>
 7    0  0.4752811E-002  0.4440574E+03  0.7546771E-02  0.1029509E+00
         21   -1    0    0  502  501  0.00000000000E+00  0.00000000000E+00  0.44222047141E+03  0.44222047141E+03  0.00000000000E+00 0. -1.
         21   -1    0    0  501  502 -0.00000000000E+00 -0.00000000000E+00 -0.11147549772E+03  0.11147549772E+03  0.00000000000E+00 0. -1.
      99926    2    1    2    0    0 -0.71054273576E-14  0.00000000000E+00  0.33074497368E+03  0.55369596913E+03  0.44405741590E+03 0.  0.
      99925    2    3    3    0    0 -0.40405976864E+02  0.93941314506E+02  0.19972252544E+03  0.34567673064E+03  0.26295570236E+03 0.  0.
         25    1    4    4    0    0 -0.41742233952E+02  0.81487661475E+02  0.12733554945E+03  0.20061032706E+03  0.12509000000E+03 0.  0.
         25    1    3    3    0    0  0.40405976864E+02 -0.93941314506E+02  0.13102244824E+03  0.20801923849E+03  0.12509000000E+03 0.  0.
         25    1    4    4    0    0  0.13362570885E+01  0.12453653031E+02  0.72386975993E+02  0.14506640359E+03  0.12509000000E+03 0.  0.
<mgrwt>
<rscale>  2 0.44405742E+03</rscale>
<asrwt>0</asrwt>
<pdfrwt beam="1">  1       21 0.65032422E-01 0.44405742E+03</pdfrwt>
<pdfrwt beam="2">  1       21 0.16393456E-01 0.44405742E+03</pdfrwt>
<totfact> 0.67258981E+04</totfact>
</mgrwt>
</event>
<event>
 7    0  0.4752811E-002  0.4624394E+03  0.7546771E-02  0.1024076E+00
         21   -1    0    0  502  501  0.00000000000E+00  0.00000000000E+00  0.40511580525E+03  0.40511580525E+03  0.00000000000E+00 0.  1.
         21   -1    0    0  501  502 -0.00000000000E+00 -0.00000000000E+00 -0.13196858279E+03  0.13196858279E+03  0.00000000000E+00 0.  1.
      99926    2    1    2    0    0  0.00000000000E+00  0.00000000000E+00  0.27314722246E+03  0.53708438804E+03  0.46243943900E+03 0.  0.
      99925    2    3    3    0    0 -0.76706640347E+02 -0.36342724096E+02  0.72268610512E+02  0.28567948136E+03  0.26303100908E+03 0.  0.
         25    1    4    4    0    0 -0.57227908345E+02 -0.19502552242E+02  0.75104488172E+02  0.15793535159E+03  0.12509000000E+03 0.  0.
         25    1    3    3    0    0  0.76706640347E+02  0.36342724096E+02  0.20087861195E+03  0.25140490669E+03  0.12509000000E+03 0.  0.
         25    1    4    4    0    0 -0.19478732002E+02 -0.16840171854E+02 -0.28358776598E+01  0.12774412977E+03  0.12509000000E+03 0.  0.
<mgrwt>
<rscale>  2 0.46243944E+03</rscale>
<asrwt>0</asrwt>
<pdfrwt beam="1">  1       21 0.59575853E-01 0.46243944E+03</pdfrwt>
<pdfrwt beam="2">  1       21 0.19407145E-01 0.46243944E+03</pdfrwt>
<totfact> 0.59163424E+04</totfact>
</mgrwt>
</event>
<event>
 7    0  0.4752811E-002  0.4563599E+03  0.7546771E-02  0.1025842E+00
         21   -1    0    0  502  501  0.00000000000E+00  0.00000000000E+00  0.66487947681E+02  0.66487947681E+02  0.00000000000E+00 0.  1.
         21   -1    0    0  501  502 -0.00000000000E+00 -0.00000000000E+00 -0.78309058829E+03  0.78309058829E+03  0.00000000000E+00 0.  1.
      99926    2    1    2    0    0  0.00000000000E+00  0.00000000000E+00 -0.71660264061E+03  0.84957853597E+03  0.45635988458E+03 0.  0.
      99925    2    3    3    0    0 -0.26511553668E+02  0.54129174863E+02 -0.27015925405E+03  0.38204026422E+03  0.26331712988E+03 0.  0.
         25    1    4    4    0    0 -0.43779004099E+02  0.12330732484E+02 -0.10232712547E+03  0.16788983552E+03  0.12509000000E+03 0.  0.
         25    1    4    4    0    0  0.17267450431E+02  0.41798442379E+02 -0.16783212857E+03  0.21415042869E+03  0.12509000000E+03 0.  0.
         25    1    3    3    0    0  0.26511553668E+02 -0.54129174863E+02 -0.44644338657E+03  0.46753827176E+03  0.12509000000E+03 0.  0.
<mgrwt>
<rscale>  2 0.45635988E+03</rscale>
<asrwt>0</asrwt>
<pdfrwt beam="1">  1       21 0.97776391E-02 0.45635988E+03</pdfrwt>
<pdfrwt beam="2">  1       21 0.11516038E+00 0.45635988E+03</pdfrwt>
<totfact> 0.44976513E+04</totfact>
</mgrwt>
</event>
<event>
 7    0  0.4752811E-002  0.4508789E+03  0.7546771E-02  0.1027460E+00
         21   -1    0    0  502  501  0.00000000000E+00  0.00000000000E+00  0.90596909059E+03  0.90596909059E+03  0.00000000000E+00 0. -1.
         21   -1    0    0  501  502 -0.00000000000E+00 -0.00000000000E+00 -0.56097887622E+02  0.56097887622E+02  0.00000000000E+00 0. -1.
      99926    2    1    2    0    0 -0.88817841970E-15  0.71054273576E-14  0.84987120297E+03  0.96206697822E+03  0.45087892935E+03 0.  0.
      99925    2    3    3    0    0  0.67294452681E+01 -0.59918609351E+02  0.34220247361E+03  0.43574904004E+03  0.26294327861E+03 0.  0.
         25    1    3    3    0    0 -0.67294452681E+01  0.59918609351E+02  0.50766872936E+03  0.52631793818E+03  0.12509000000E+03 0.  0.
         25    1    4    4    0    0  0.88556984534E+00  0.99020183556E+01  0.17761110320E+03  0.21746734533E+03  0.12509000000E+03 0.  0.
         25    1    4    4    0    0  0.58438754227E+01 -0.69820627706E+02  0.16459137041E+03  0.21828169471E+03  0.12509000000E+03 0.  0.
<mgrwt>
<rscale>  2 0.45087893E+03</rscale>
<asrwt>0</asrwt>
<pdfrwt beam="1">  1       21 0.13323074E+00 0.45087893E+03</pdfrwt>
<pdfrwt beam="2">  1       21 0.82496899E-02 0.45087893E+03</pdfrwt>
<totfact> 0.41992855E+04</totfact>
</mgrwt>
</event>
<event>
 7    0  0.4752811E-002  0.4343257E+03  0.7546771E-02  0.1032502E+00
         21   -1    0    0  502  501  0.00000000000E+00  0.00000000000E+00  0.71315357801E+03  0.71315357801E+03  0.00000000000E+00 0.  1.
         21   -1    0    0  501  502 -0.00000000000E+00 -0.00000000000E+00 -0.66128400258E+02  0.66128400258E+02  0.00000000000E+00 0.  1.
      99926    2    1    2    0    0  0.00000000000E+00  0.00000000000E+00  0.64702517776E+03  0.77928197827E+03  0.43432570844E+03 0.  0.
      99925    2    3    3    0    0  0.25437252842E+02  0.26800719920E+02  0.56736111905E+03  0.62644480096E+03  0.26300022208E+03 0.  0.
         25    1    4    4    0    0  0.31886152696E+02  0.48786644398E+02  0.27783029351E+03  0.31021612385E+03  0.12509000000E+03 0.  0.
         25    1    4    4    0    0 -0.64488998537E+01 -0.21985924478E+02  0.28953082554E+03  0.31622867711E+03  0.12509000000E+03 0.  0.
         25    1    3    3    0    0 -0.25437252842E+02 -0.26800719920E+02  0.79664058700E+02  0.15283717731E+03  0.12509000000E+03 0.  0.
<mgrwt>
<rscale>  2 0.43432571E+03</rscale>
<asrwt>0</asrwt>
<pdfrwt beam="1">  1       21 0.10487552E+00 0.43432571E+03</pdfrwt>
<pdfrwt beam="2">  1       21 0.97247651E-02 0.43432571E+03</pdfrwt>
<totfact> 0.57573250E+04</totfact>
</mgrwt>
</event>
<event>
 7    0  0.4752811E-002  0.4535828E+03  0.7546771E-02  0.1026659E+00
         21   -1    0    0  502  501  0.00000000000E+00  0.00000000000E+00  0.72166695735E+02  0.72166695735E+02  0.00000000000E+00 0.  1.
         21   -1    0    0  501  502 -0.00000000000E+00 -0.00000000000E+00 -0.71271579656E+03  0.71271579656E+03  0.00000000000E+00 0.  1.
      99926    2    1    2    0    0  0.00000000000E+00  0.00000000000E+00 -0.64054910083E+03  0.78488249230E+03  0.45358282170E+03 0.  0.
      99925    2    3    3    0    0 -0.37647488079E+02 -0.10192275688E+03 -0.35851923655E+03  0.45778321964E+03  0.26310425971E+03 0.  0.
         25    1    4    4    0    0 -0.33159730740E+02 -0.85666749723E+02 -0.23154973582E+03  0.27874925652E+03  0.12509000000E+03 0.  0.
         25    1    3    3    0    0  0.37647488079E+02  0.10192275688E+03 -0.28202986428E+03  0.32709927266E+03  0.12509000000E+03 0.  0.
         25    1    4    4    0    0 -0.44877573393E+01 -0.16256007162E+02 -0.12696950073E+03  0.17903396312E+03  0.12509000000E+03 0.  0.
<mgrwt>
<rscale>  2 0.45358282E+03</rscale>
<asrwt>0</asrwt>
<pdfrwt beam="1">  1       21 0.10612750E-01 0.45358282E+03</pdfrwt>
<pdfrwt beam="2">  1       21 0.10481114E+00 0.45358282E+03</pdfrwt>
<totfact> 0.49048053E+04</totfact>
</mgrwt>
</event>
<event>
 7    0  0.4752811E-002  0.4555777E+03  0.7546771E-02  0.1026072E+00
         21   -1    0    0  502  501  0.00000000000E+00  0.00000000000E+00  0.53156335111E+03  0.53156335111E+03  0.00000000000E+00 0. -1.
         21   -1    0    0  501  502 -0.00000000000E+00 -0.00000000000E+00 -0.97613503863E+02  0.97613503863E+02  0.00000000000E+00 0. -1.
      99926    2    1    2    0    0  0.14210854715E-13  0.00000000000E+00  0.43394984725E+03  0.62917685497E+03  0.45557770458E+03 0.  0.
      99925    2    3    3    0    0 -0.86567692227E+02  0.60658947854E+02  0.21538005835E+03  0.35605832025E+03  0.26308835890E+03 0.  0.
         25    1    4    4    0    0 -0.27725803220E+02  0.11465587130E+02  0.58695747850E+02  0.14139617664E+03  0.12509000000E+03 0.  0.
         25    1    4    4    0    0 -0.58841889007E+02  0.49193360725E+02  0.15668431050E+03  0.21466214361E+03  0.12509000000E+03 0.  0.
         25    1    3    3    0    0  0.86567692227E+02 -0.60658947854E+02  0.21856978890E+03  0.27311853472E+03  0.12509000000E+03 0.  0.
<mgrwt>
<rscale>  2 0.45557770E+03</rscale>
<asrwt>0</asrwt>
<pdfrwt beam="1">  1       21 0.78171079E-01 0.45557770E+03</pdfrwt>
<pdfrwt beam="2">  1       21 0.14354927E-01 0.45557770E+03</pdfrwt>
<totfact> 0.56658517E+04</totfact>
</mgrwt>
</event>
<event>
 7    0  0.4752811E-002  0.4612941E+03  0.7546771E-02  0.1024407E+00
         21   -1    0    0  502  501  0.00000000000E+00  0.00000000000E+00  0.73801798964E+03  0.73801798964E+03  0.00000000000E+00 0. -1.
         21   -1    0    0  501  502 -0.00000000000E+00 -0.00000000000E+00 -0.72082332529E+02  0.72082332529E+02  0.00000000000E+00 0. -1.
      99926    2    1    2    0    0 -0.71054273576E-14 -0.71054273576E-14  0.66593565711E+03  0.81010032217E+03  0.46129408468E+03 0.  0.
      99925    2    3    3    0    0  0.50084052300E+02  0.36040134344E+02  0.59539597959E+03  0.65379722628E+03  0.26295843208E+03 0.  0.
         25    1    4    4    0    0 -0.11947224709E+01  0.39622749379E+02  0.34680888703E+03  0.37080358932E+03  0.12509000000E+03 0.  0.
         25    1    3    3    0    0 -0.50084052300E+02 -0.36040134344E+02  0.70539677515E+02  0.15630309588E+03  0.12509000000E+03 0.  0.
         25    1    4    4    0    0  0.51278774771E+02 -0.35826150349E+01  0.24858709256E+03  0.28299363696E+03  0.12509000000E+03 0.  0.
<mgrwt>
<rscale>  2 0.46129408E+03</rscale>
<asrwt>0</asrwt>
<pdfrwt beam="1">  1       21 0.10853205E+00 0.46129408E+03</pdfrwt>
<pdfrwt beam="2">  1       21 0.10600343E-01 0.46129408E+03</pdfrwt>
<totfact> 0.45015272E+04</totfact>
</mgrwt>
</event>
<event>
 7    0  0.4752811E-002  0.4534715E+03  0.7546771E-02  0.1026692E+00
         21   -1    0    0  502  501  0.00000000000E+00  0.00000000000E+00  0.41782790409E+03  0.41782790409E+03  0.00000000000E+00 0. -1.
         21   -1    0    0  501  502 -0.00000000000E+00 -0.00000000000E+00 -0.12303894551E+03  0.12303894551E+03  0.00000000000E+00 0. -1.
      99926    2    1    2    0    0  0.00000000000E+00  0.00000000000E+00  0.29478895859E+03  0.54086684960E+03  0.45347151938E+03 0.  0.
      99925    2    3    3    0    0  0.98013783283E+02 -0.18096081956E+02  0.24602382890E+03  0.37365525948E+03  0.26297596593E+03 0.  0.
         25    1    4    4    0    0  0.33350419579E+02  0.18282138499E+02  0.15189219944E+03  0.20041266283E+03  0.12509000000E+03 0.  0.
         25    1    3    3    0    0 -0.98013783283E+02  0.18096081956E+02  0.48765129685E+02  0.16721159012E+03  0.12509000000E+03 0.  0.
         25    1    4    4    0    0  0.64663363704E+02 -0.36378220455E+02  0.94131629463E+02  0.17324259665E+03  0.12509000000E+03 0.  0.
<mgrwt>
<rscale>  2 0.45347152E+03</rscale>
<asrwt>0</asrwt>
<pdfrwt beam="1">  1       21 0.61445280E-01 0.45347152E+03</pdfrwt>
<pdfrwt beam="2">  1       21 0.18093963E-01 0.45347152E+03</pdfrwt>
<totfact> 0.63235534E+04</totfact>
</mgrwt>
</event>
<event>
 7    0  0.4752811E-002  0.4579947E+03  0.7546771E-02  0.1025364E+00
         21   -1    0    0  502  501  0.00000000000E+00  0.00000000000E+00  0.10791038619E+04  0.10791038619E+04  0.00000000000E+00 0.  1.
         21   -1    0    0  501  502 -0.00000000000E+00 -0.00000000000E+00 -0.48595677779E+02  0.48595677779E+02  0.00000000000E+00 0.  1.
      99926    2    1    2    0    0  0.00000000000E+00 -0.35527136788E-14  0.10305081841E+04  0.11276995396E+04  0.45799468801E+03 0.  0.
      99925    2    3    3    0    0  0.40672829285E+02  0.29329619432E+02  0.38983003557E+03  0.47300075111E+03  0.26314966901E+03 0.  0.
         25    1    3    3    0    0 -0.40672829285E+02 -0.29329619432E+02  0.64067814852E+03  0.65469878854E+03  0.12509000000E+03 0.  0.
         25    1    4    4    0    0 -0.17778084664E+01  0.48528674531E+02  0.18595672323E+03  0.22931551162E+03  0.12509000000E+03 0.  0.
         25    1    4    4    0    0  0.42450637751E+02 -0.19199055099E+02  0.20387331234E+03  0.24368523949E+03  0.12509000000E+03 0.  0.
<mgrwt>
<rscale>  2 0.45799469E+03</rscale>
<asrwt>0</asrwt>
<pdfrwt beam="1">  1       21 0.15869173E+00 0.45799469E+03</pdfrwt>
<pdfrwt beam="2">  1       21 0.71464239E-02 0.45799469E+03</pdfrwt>
<totfact> 0.33741119E+04</totfact>
</mgrwt>
</event>
<event>
 7    0  0.4752811E-002  0.4562168E+03  0.7546771E-02  0.1025884E+00
         21   -1    0    0  502  501  0.00000000000E+00  0.00000000000E+00  0.11621895997E+03  0.11621895997E+03  0.00000000000E+00 0.  1.
         21   -1    0    0  501  502 -0.00000000000E+00 -0.00000000000E+00 -0.44771913863E+03  0.44771913863E+03  0.00000000000E+00 0.  1.
      99926    2    1    2    0    0  0.14210854715E-13  0.00000000000E+00 -0.33150017866E+03  0.56393809860E+03  0.45621684604E+03 0.  0.
      99925    2    3    3    0    0  0.71895637376E+02  0.87717827716E+02 -0.22510808190E+03  0.36436308432E+03  0.26310341828E+03 0.  0.
         25    1    3    3    0    0 -0.71895637376E+02 -0.87717827716E+02 -0.10639209676E+03  0.19957501428E+03  0.12509000000E+03 0.  0.
         25    1    4    4    0    0  0.17147226576E+02  0.59221896672E+02 -0.15412035993E+03  0.20785055657E+03  0.12509000000E+03 0.  0.
         25    1    4    4    0    0  0.54748410799E+02  0.28495931044E+02 -0.70987721971E+02  0.15651252775E+03  0.12509000000E+03 0.  0.
<mgrwt>
<rscale>  2 0.45621685E+03</rscale>
<asrwt>0</asrwt>
<pdfrwt beam="1">  1       21 0.17091024E-01 0.45621685E+03</pdfrwt>
<pdfrwt beam="2">  1       21 0.65841050E-01 0.45621685E+03</pdfrwt>
<totfact> 0.60371632E+04</totfact>
</mgrwt>
</event>
<event>
 7    0  0.4752811E-002  0.4546201E+03  0.7546771E-02  0.1026353E+00
         21   -1    0    0  502  501  0.00000000000E+00  0.00000000000E+00  0.15111308511E+04  0.15111308511E+04  0.00000000000E+00 0. -1.
         21   -1    0    0  501  502 -0.00000000000E+00 -0.00000000000E+00 -0.34192834836E+02  0.34192834836E+02  0.00000000000E+00 0. -1.
      99926    2    1    2    0    0  0.00000000000E+00  0.17763568394E-14  0.14769380163E+04  0.15453236860E+04  0.45462005063E+03 0.  0.
      99925    2    3    3    0    0  0.26877446340E+02  0.15007888353E+02  0.12986795768E+04  0.13253891203E+04  0.26294494311E+03 0.  0.
         25    1    4    4    0    0 -0.12364352009E+02  0.62964022207E+00  0.78753861907E+03  0.79750727789E+03  0.12509000000E+03 0.  0.
         25    1    3    3    0    0 -0.26877446340E+02 -0.15007888353E+02  0.17825843948E+03  0.21993456568E+03  0.12509000000E+03 0.  0.
         25    1    4    4    0    0  0.39241798349E+02  0.14378248130E+02  0.51114095773E+03  0.52788184239E+03  0.12509000000E+03 0.  0.
<mgrwt>
<rscale>  2 0.45462005E+03</rscale>
<asrwt>0</asrwt>
<pdfrwt beam="1">  1       21 0.22222508E+00 0.45462005E+03</pdfrwt>
<pdfrwt beam="2">  1       21 0.50283591E-02 0.45462005E+03</pdfrwt>
<totfact> 0.22756959E+04</totfact>
</mgrwt>
</event>
<event>
 7    0  0.4752811E-002  0.4570476E+03  0.7546771E-02  0.1025641E+00
         21   -1    0    0  502  501  0.00000000000E+00  0.00000000000E+00  0.30308268880E+04  0.30308268880E+04  0.00000000000E+00 0.  1.
         21   -1    0    0  501  502 -0.00000000000E+00 -0.00000000000E+00 -0.17230653090E+02  0.17230653090E+02  0.00000000000E+00 0.  1.
      99926    2    1    2    0    0  0.00000000000E+00  0.00000000000E+00  0.30135962349E+04  0.30480575411E+04  0.45704759789E+03 0.  0.
      99925    2    3    3    0    0 -0.83192445359E+02  0.16086328826E+02  0.13742834669E+04  0.14017970476E+04  0.26305923734E+03 0.  0.
         25    1    4    4    0    0 -0.63588126772E+02  0.20008916941E+02  0.55689332243E+03  0.57464901226E+03  0.12509000000E+03 0.  0.
         25    1    3    3    0    0  0.83192445359E+02 -0.16086328826E+02  0.16393127680E+04  0.16462604935E+04  0.12509000000E+03 0.  0.
         25    1    4    4    0    0 -0.19604318588E+02 -0.39225881152E+01  0.81739014446E+03  0.82714803534E+03  0.12509000000E+03 0.  0.
<mgrwt>
<rscale>  2 0.45704760E+03</rscale>
<asrwt>0</asrwt>
<pdfrwt beam="1">  1       21 0.44570947E+00 0.45704760E+03</pdfrwt>
<pdfrwt beam="2">  1       21 0.25339217E-02 0.45704760E+03</pdfrwt>
<totfact> 0.29415795E+03</totfact>
</mgrwt>
</event>
<event>
 7    0  0.4752811E-002  0.4493335E+03  0.7546771E-02  0.1027921E+00
         21   -1    0    0  502  501  0.00000000000E+00  0.00000000000E+00  0.84164934374E+02  0.84164934374E+02  0.00000000000E+00 0. -1.
         21   -1    0    0  501  502 -0.00000000000E+00 -0.00000000000E+00 -0.59971699515E+03  0.59971699515E+03  0.00000000000E+00 0. -1.
      99926    2    1    2    0    0  0.00000000000E+00  0.00000000000E+00 -0.51555206078E+03  0.68388192953E+03  0.44933346877E+03 0.  0.
      99925    2    3    3    0    0 -0.41689461947E+02  0.97373638023E+02 -0.35634687306E+03  0.45537933323E+03  0.26299735088E+03 0.  0.
         25    1    3    3    0    0  0.41689461947E+02 -0.97373638023E+02 -0.15920518772E+03  0.22850259630E+03  0.12509000000E+03 0.  0.
         25    1    4    4    0    0  0.10712807156E+02  0.51702569050E+02 -0.13261892123E+03  0.18979780360E+03  0.12509000000E+03 0.  0.
         25    1    4    4    0    0 -0.52402269104E+02  0.45671068973E+02 -0.22372795184E+03  0.26558152963E+03  0.12509000000E+03 0.  0.
<mgrwt>
<rscale>  2 0.44933347E+03</rscale>
<asrwt>0</asrwt>
<pdfrwt beam="1">  1       21 0.12377197E-01 0.44933347E+03</pdfrwt>
<pdfrwt beam="2">  1       21 0.88193673E-01 0.44933347E+03</pdfrwt>
<totfact> 0.56255146E+04</totfact>
</mgrwt>
</event>
<event>
 7    0  0.4752811E-002  0.4547449E+03  0.7546771E-02  0.1026316E+00
         21   -1    0    0  502  501  0.00000000000E+00  0.00000000000E+00  0.73810579409E+03  0.73810579409E+03  0.00000000000E+00 0. -1.
         21   -1    0    0  501  502 -0.00000000000E+00 -0.00000000000E+00 -0.70041768112E+02  0.70041768112E+02  0.00000000000E+00 0. -1.
      99926    2    1    2    0    0  0.71054273576E-14 -0.35527136788E-14  0.66806402598E+03  0.80814756221E+03  0.45474491695E+03 0.  0.
      99925    2    3    3    0    0 -0.44956846048E+02 -0.26668097785E+02  0.59818679496E+03  0.65562660967E+03  0.26322329723E+03 0.  0.
         25    1    4    4    0    0 -0.54227175909E+02 -0.39746042836E+02  0.30305774499E+03  0.33468169867E+03  0.12509000000E+03 0.  0.
         25    1    4    4    0    0  0.92703298612E+01  0.13077945051E+02  0.29512904997E+03  0.32094491100E+03  0.12509000000E+03 0.  0.
         25    1    3    3    0    0  0.44956846048E+02  0.26668097785E+02  0.69877231028E+02  0.15252095253E+03  0.12509000000E+03 0.  0.
<mgrwt>
<rscale>  2 0.45474492E+03</rscale>
<asrwt>0</asrwt>
<pdfrwt beam="1">  1       21 0.10854497E+00 0.45474492E+03</pdfrwt>
<pdfrwt beam="2">  1       21 0.10300260E-01 0.45474492E+03</pdfrwt>
<totfact> 0.47468191E+04</totfact>
</mgrwt>
</event>
<event>
 7    0  0.4752811E-002  0.4366783E+03  0.7546771E-02  0.1031771E+00
         21   -1    0    0  502  501  0.00000000000E+00  0.00000000000E+00  0.11509857477E+04  0.11509857477E+04  0.00000000000E+00 0.  1.
         21   -1    0    0  501  502 -0.00000000000E+00 -0.00000000000E+00 -0.41418394140E+02  0.41418394140E+02  0.00000000000E+00 0.  1.
      99926    2    1    2    0    0 -0.14210854715E-13  0.00000000000E+00  0.11095673536E+04  0.11924041418E+04  0.43667828592E+03 0.  0.
      99925    2    3    3    0    0 -0.64727524576E+02  0.68479512384E+02  0.67901511155E+03  0.73425368920E+03  0.26303585751E+03 0.  0.
         25    1    4    4    0    0 -0.48396551803E+02  0.20459762079E+01  0.38013983393E+03  0.40311315246E+03  0.12509000000E+03 0.  0.
         25    1    3    3    0    0  0.64727524576E+02 -0.68479512384E+02  0.43055224200E+03  0.45815045263E+03  0.12509000000E+03 0.  0.
         25    1    4    4    0    0 -0.16330972772E+02  0.66433536177E+02  0.29887527762E+03  0.33114053674E+03  0.12509000000E+03 0.  0.
<mgrwt>
<rscale>  2 0.43667829E+03</rscale>
<asrwt>0</asrwt>
<pdfrwt beam="1">  1       21 0.16926259E+00 0.43667829E+03</pdfrwt>
<pdfrwt beam="2">  1       21 0.60909411E-02 0.43667829E+03</pdfrwt>
<totfact> 0.37466193E+04</totfact>
</mgrwt>
</event>
<event>
 7    0  0.4752811E-002  0.4607330E+03  0.7546771E-02  0.1024569E+00
         21   -1    0    0  502  501  0.00000000000E+00  0.00000000000E+00  0.64636308652E+03  0.64636308652E+03  0.00000000000E+00 0. -1.
         21   -1    0    0  501  502 -0.00000000000E+00 -0.00000000000E+00 -0.82103576962E+02  0.82103576962E+02  0.00000000000E+00 0. -1.
      99926    2    1    2    0    0  0.00000000000E+00  0.00000000000E+00  0.56425950956E+03  0.72846666348E+03  0.46073298740E+03 0.  0.
      99925    2    3    3    0    0  0.35556235043E+02  0.10661912033E+03  0.41270066340E+03  0.50208319540E+03  0.26293309959E+03 0.  0.
         25    1    4    4    0    0 -0.14478225274E+01  0.64109017813E+02  0.26831675564E+03  0.30290832246E+03  0.12509000000E+03 0.  0.
         25    1    4    4    0    0  0.37004057570E+02  0.42510102519E+02  0.14438390775E+03  0.19917487294E+03  0.12509000000E+03 0.  0.
         25    1    3    3    0    0 -0.35556235043E+02 -0.10661912033E+03  0.15155884616E+03  0.22638346808E+03  0.12509000000E+03 0.  0.
<mgrwt>
<rscale>  2 0.46073299E+03</rscale>
<asrwt>0</asrwt>
<pdfrwt beam="1">  1       21 0.95053392E-01 0.46073299E+03</pdfrwt>
<pdfrwt beam="2">  1       21 0.12074056E-01 0.46073299E+03</pdfrwt>
<totfact> 0.49131746E+04</totfact>
</mgrwt>
</event>
<event>
 7    0  0.4752811E-002  0.4450165E+03  0.7546771E-02  0.1029219E+00
         21   -1    0    0  502  501  0.00000000000E+00  0.00000000000E+00  0.31439999207E+03  0.31439999207E+03  0.00000000000E+00 0.  1.
         21   -1    0    0  501  502 -0.00000000000E+00 -0.00000000000E+00 -0.15747433358E+03  0.15747433358E+03  0.00000000000E+00 0.  1.
      99926    2    1    2    0    0  0.00000000000E+00  0.00000000000E+00  0.15692565849E+03  0.47187432565E+03  0.44501653556E+03 0.  0.
      99925    2    3    3    0    0  0.10254856910E+03 -0.95523340716E+01  0.11016913614E+03  0.30322932397E+03  0.26306525473E+03 0.  0.
         25    1    4    4    0    0  0.86418162573E+02 -0.13889612164E+02  0.84320935591E+02  0.17440914089E+03  0.12509000000E+03 0.  0.
         25    1    4    4    0    0  0.16130406527E+02  0.43372780920E+01  0.25848200548E+02  0.12882018308E+03  0.12509000000E+03 0.  0.
         25    1    3    3    0    0 -0.10254856910E+03  0.95523340716E+01  0.46756522347E+02  0.16864500168E+03  0.12509000000E+03 0.  0.
<mgrwt>
<rscale>  2 0.44501654E+03</rscale>
<asrwt>0</asrwt>
<pdfrwt beam="1">  1       21 0.46235293E-01 0.44501654E+03</pdfrwt>
<pdfrwt beam="2">  1       21 0.23157990E-01 0.44501654E+03</pdfrwt>
<totfact> 0.72904137E+04</totfact>
</mgrwt>
</event>
<event>
 7    0  0.4752811E-002  0.4368537E+03  0.7546771E-02  0.1031717E+00
         21   -1    0    0  502  501  0.00000000000E+00  0.00000000000E+00  0.19164808471E+03  0.19164808471E+03  0.00000000000E+00 0.  1.
         21   -1    0    0  501  502 -0.00000000000E+00 -0.00000000000E+00 -0.24894735390E+03  0.24894735390E+03  0.00000000000E+00 0.  1.
      99926    2    1    2    0    0  0.00000000000E+00 -0.17763568394E-14 -0.57299269186E+02  0.44059543861E+03  0.43685367604E+03 0.  0.
      99925    2    3    3    0    0 -0.32058877452E+02 -0.88337442969E+01 -0.12667681729E+03  0.29373986690E+03  0.26292639027E+03 0.  0.
         25    1    4    4    0    0 -0.52335007703E+02 -0.68259710680E+01 -0.85645970402E+02  0.16052503624E+03  0.12509000000E+03 0.  0.
         25    1    3    3    0    0  0.32058877452E+02  0.88337442969E+01  0.69377548106E+02  0.14685557171E+03  0.12509000000E+03 0.  0.
         25    1    4    4    0    0  0.20276130251E+02 -0.20077732290E+01 -0.41030846890E+02  0.13321483066E+03  0.12509000000E+03 0.  0.
<mgrwt>
<rscale>  2 0.43685368E+03</rscale>
<asrwt>0</asrwt>
<pdfrwt beam="1">  1       21 0.28183542E-01 0.43685368E+03</pdfrwt>
<pdfrwt beam="2">  1       21 0.36609905E-01 0.43685368E+03</pdfrwt>
<totfact> 0.80676454E+04</totfact>
</mgrwt>
</event>
<event>
 7    0  0.4752811E-002  0.4587414E+03  0.7546771E-02  0.1025147E+00
         21   -1    0    0  502  501  0.00000000000E+00  0.00000000000E+00  0.75733645978E+02  0.75733645978E+02  0.00000000000E+00 0. -1.
         21   -1    0    0  501  502 -0.00000000000E+00 -0.00000000000E+00 -0.69468368977E+03  0.69468368977E+03  0.00000000000E+00 0. -1.
      99926    2    1    2    0    0  0.00000000000E+00  0.00000000000E+00 -0.61895004379E+03  0.77041733575E+03  0.45874144625E+03 0.  0.
      99925    2    3    3    0    0 -0.84010501500E+02  0.80928651870E+02 -0.38566947425E+03  0.48115181191E+03  0.26298081998E+03 0.  0.
         25    1    4    4    0    0 -0.70597582877E+02  0.58196304666E+02 -0.25458804234E+03  0.29804933818E+03  0.12509000000E+03 0.  0.
         25    1    3    3    0    0  0.84010501500E+02 -0.80928651870E+02 -0.23328056954E+03  0.28926552384E+03  0.12509000000E+03 0.  0.
         25    1    4    4    0    0 -0.13412918623E+02  0.22732347204E+02 -0.13108143190E+03  0.18310247373E+03  0.12509000000E+03 0.  0.
<mgrwt>
<rscale>  2 0.45874145E+03</rscale>
<asrwt>0</asrwt>
<pdfrwt beam="1">  1       21 0.11137302E-01 0.45874145E+03</pdfrwt>
<pdfrwt beam="2">  1       21 0.10215936E+00 0.45874145E+03</pdfrwt>
<totfact> 0.47809205E+04</totfact>
</mgrwt>
</event>
<event>
 6    0  0.4752811E-002  0.4520473E+03  0.7546771E-02  0.1027113E+00
         21   -1    0    0  502  501  0.00000000000E+00  0.00000000000E+00  0.21174425419E+03  0.21174425419E+03  0.00000000000E+00 0. -1.
         21   -1    0    0  501  502 -0.00000000000E+00 -0.00000000000E+00 -0.24126598354E+03  0.24126598354E+03  0.00000000000E+00 0. -1.
      99926    2    1    2    0    0 -0.71054273576E-14  0.00000000000E+00 -0.29521729358E+02  0.45301023773E+03  0.45204727959E+03 0.  0.
         25    1    3    3    0    0  0.59423294153E+02  0.90231389535E+02 -0.18611884383E+02  0.16633322544E+03  0.12509000000E+03 0.  0.
         25    1    3    3    0    0  0.67860317446E+01 -0.62796779737E+02 -0.22991466862E+02  0.14200563869E+03  0.12509000000E+03 0.  0.
         25    1    3    3    0    0 -0.66209325898E+02 -0.27434609798E+02  0.12081621886E+02  0.14467137360E+03  0.12509000000E+03 0.  0.
<mgrwt>
<rscale>  2 0.45204728E+03</rscale>
<asrwt>0</asrwt>
<pdfrwt beam="1">  1       21 0.31138861E-01 0.45204728E+03</pdfrwt>
<pdfrwt beam="2">  1       21 0.35480291E-01 0.45204728E+03</pdfrwt>
<totfact> 0.70334310E+04</totfact>
</mgrwt>
</event>
<event>
 6    0  0.4752811E-002  0.4565560E+03  0.7546771E-02  0.1025785E+00
         21   -1    0    0  502  501  0.00000000000E+00  0.00000000000E+00  0.10321866169E+04  0.10321866169E+04  0.00000000000E+00 0.  1.
         21   -1    0    0  501  502 -0.00000000000E+00 -0.00000000000E+00 -0.50485881882E+02  0.50485881882E+02  0.00000000000E+00 0.  1.
      99926    2    1    2    0    0  0.35527136788E-14  0.00000000000E+00  0.98170073498E+03  0.10826724987E+04  0.45655602775E+03 0.  0.
         25    1    3    3    0    0  0.39897929619E+02  0.32934722267E+02  0.34951045783E+03  0.37480876317E+03  0.12509000000E+03 0.  0.
         25    1    3    3    0    0 -0.17692967456E+02 -0.10319811232E+03  0.24489597889E+03  0.29425234079E+03  0.12509000000E+03 0.  0.
         25    1    3    3    0    0 -0.22204962162E+02  0.70263390056E+02  0.38729429826E+03  0.41361139478E+03  0.12509000000E+03 0.  0.
<mgrwt>
<rscale>  2 0.45655603E+03</rscale>
<asrwt>0</asrwt>
<pdfrwt beam="1">  1       21 0.15179214E+00 0.45655603E+03</pdfrwt>
<pdfrwt beam="2">  1       21 0.74243951E-02 0.45655603E+03</pdfrwt>
<totfact> 0.35665896E+04</totfact>
</mgrwt>
</event>
<event>
 7    0  0.4752811E-002  0.4550201E+03  0.7546771E-02  0.1026235E+00
         21   -1    0    0  502  501  0.00000000000E+00  0.00000000000E+00  0.12009785248E+04  0.12009785248E+04  0.00000000000E+00 0.  1.
         21   -1    0    0  501  502 -0.00000000000E+00 -0.00000000000E+00 -0.43098872857E+02  0.43098872857E+02  0.00000000000E+00 0.  1.
      99926    2    1    2    0    0  0.00000000000E+00  0.00000000000E+00  0.11578796520E+04  0.12440773977E+04  0.45502009075E+03 0.  0.
      99925    2    3    3    0    0 -0.80017420892E+02 -0.33629906376E+02  0.53044191315E+03  0.59843091358E+03  0.26309157502E+03 0.  0.
         25    1    4    4    0    0 -0.43262152146E+02 -0.14555011963E+02  0.35401291951E+03  0.37822760008E+03  0.12509000000E+03 0.  0.
         25    1    3    3    0    0  0.80017420892E+02  0.33629906376E+02  0.62743773882E+03  0.64564648411E+03  0.12509000000E+03 0.  0.
         25    1    4    4    0    0 -0.36755268746E+02 -0.19074894413E+02  0.17642899365E+03  0.22020331350E+03  0.12509000000E+03 0.  0.
<mgrwt>
<rscale>  2 0.45502009E+03</rscale>
<asrwt>0</asrwt>
<pdfrwt beam="1">  1       21 0.17661447E+00 0.45502009E+03</pdfrwt>
<pdfrwt beam="2">  1       21 0.63380704E-02 0.45502009E+03</pdfrwt>
<totfact> 0.30778216E+04</totfact>
</mgrwt>
</event>
<event>
 7    0  0.4752811E-002  0.4537245E+03  0.7546771E-02  0.1026617E+00
         21   -1    0    0  502  501  0.00000000000E+00  0.00000000000E+00  0.22972052996E+03  0.22972052996E+03  0.00000000000E+00 0.  1.
         21   -1    0    0  501  502 -0.00000000000E+00 -0.00000000000E+00 -0.22403953089E+03  0.22403953089E+03  0.00000000000E+00 0.  1.
      99926    2    1    2    0    0  0.00000000000E+00  0.00000000000E+00  0.56809990765E+01  0.45376006085E+03  0.45372449688E+03 0.  0.
      99925    2    3    3    0    0 -0.28752882458E+02  0.85865831431E+02 -0.62371899872E+02  0.28500469231E+03  0.26294058547E+03 0.  0.
         25    1    4    4    0    0 -0.56015011468E+01  0.49185119122E+02  0.85650813938E+01  0.13480141497E+03  0.12509000000E+03 0.  0.
         25    1    3    3    0    0  0.28752882458E+02 -0.85865831431E+02  0.68052898948E+02  0.16875536854E+03  0.12509000000E+03 0.  0.
         25    1    4    4    0    0 -0.23151381312E+02  0.36680712308E+02 -0.70936981266E+02  0.15020327734E+03  0.12509000000E+03 0.  0.
<mgrwt>
<rscale>  2 0.45372450E+03</rscale>
<asrwt>0</asrwt>
<pdfrwt beam="1">  1       21 0.33782431E-01 0.45372450E+03</pdfrwt>
<pdfrwt beam="2">  1       21 0.32946990E-01 0.45372450E+03</pdfrwt>
<totfact> 0.69339725E+04</totfact>
</mgrwt>
</event>
<event>
 7    0  0.4752811E-002  0.4583046E+03  0.7546771E-02  0.1025274E+00
         21   -1    0    0  502  501  0.00000000000E+00  0.00000000000E+00  0.27100121829E+03  0.27100121829E+03  0.00000000000E+00 0.  1.
         21   -1    0    0  501  502 -0.00000000000E+00 -0.00000000000E+00 -0.19376586699E+03  0.19376586699E+03  0.00000000000E+00 0.  1.
      99926    2    1    2    0    0 -0.71054273576E-14  0.00000000000E+00  0.77235351296E+02  0.46476708528E+03  0.45830464111E+03 0.  0.
      99925    2    3    3    0    0 -0.61471729618E+02  0.14780305072E+02 -0.50359481175E+02  0.27522769535E+03  0.26309119328E+03 0.  0.
         25    1    4    4    0    0 -0.14467682621E+02  0.17168587241E+02 -0.61356976984E+02  0.14112498345E+03  0.12509000000E+03 0.  0.
         25    1    3    3    0    0  0.61471729618E+02 -0.14780305072E+02  0.12759483247E+03  0.18953938993E+03  0.12509000000E+03 0.  0.
         25    1    4    4    0    0 -0.47004046997E+02 -0.23882821688E+01  0.10997495809E+02  0.13410271190E+03  0.12509000000E+03 0.  0.
<mgrwt>
<rscale>  2 0.45830464E+03</rscale>
<asrwt>0</asrwt>
<pdfrwt beam="1">  1       21 0.39853120E-01 0.45830464E+03</pdfrwt>
<pdfrwt beam="2">  1       21 0.28494980E-01 0.45830464E+03</pdfrwt>
<totfact> 0.66074489E+04</totfact>
</mgrwt>
</event>
<event>
 7    0  0.4752811E-002  0.4592401E+03  0.7546771E-02  0.1025002E+00
         21   -1    0    0  502  501  0.00000000000E+00  0.00000000000E+00  0.23097658815E+03  0.23097658815E+03  0.00000000000E+00 0. -1.
         21   -1    0    0  501  502 -0.00000000000E+00 -0.00000000000E+00 -0.22827151988E+03  0.22827151988E+03  0.00000000000E+00 0. -1.
      99926    2    1    2    0    0  0.14210854715E-13  0.00000000000E+00  0.27050682688E+01  0.45924810804E+03  0.45924014126E+03 0.  0.
      99925    2    3    3    0    0  0.79547847522E+02  0.73429393983E+02 -0.42843493967E+02  0.28766164130E+03  0.26304737017E+03 0.  0.
         25    1    4    4    0    0  0.65997480660E+02  0.53940751769E+02  0.55024347483E+01  0.15146965717E+03  0.12509000000E+03 0.  0.
         25    1    4    4    0    0  0.13550366862E+02  0.19488642215E+02 -0.48345928716E+02  0.13619198413E+03  0.12509000000E+03 0.  0.
         25    1    3    3    0    0 -0.79547847522E+02 -0.73429393983E+02  0.45548562236E+02  0.17158646674E+03  0.12509000000E+03 0.  0.
<mgrwt>
<rscale>  2 0.45924014E+03</rscale>
<asrwt>0</asrwt>
<pdfrwt beam="1">  1       21 0.33967145E-01 0.45924014E+03</pdfrwt>
<pdfrwt beam="2">  1       21 0.33569341E-01 0.45924014E+03</pdfrwt>
<totfact> 0.65975211E+04</totfact>
</mgrwt>
</event>
<event>
 7    0  0.4752811E-002  0.4536749E+03  0.7546771E-02  0.1026632E+00
         21   -1    0    0  502  501  0.00000000000E+00  0.00000000000E+00  0.24345770174E+03  0.24345770174E+03  0.00000000000E+00 0.  1.
         21   -1    0    0  501  502 -0.00000000000E+00 -0.00000000000E+00 -0.21135182499E+03  0.21135182499E+03  0.00000000000E+00 0.  1.
      99926    2    1    2    0    0  0.00000000000E+00  0.00000000000E+00  0.32105876755E+02  0.45480952673E+03  0.45367490374E+03 0.  0.
      99925    2    3    3    0    0 -0.52193554538E+02 -0.59978251226E+02 -0.58826686543E+02  0.28091934034E+03  0.26293257495E+03 0.  0.
         25    1    3    3    0    0  0.52193554538E+02  0.59978251226E+02  0.90932563297E+02  0.17389018639E+03  0.12509000000E+03 0.  0.
         25    1    4    4    0    0 -0.12932761954E+02  0.94548449265E+01 -0.32660278918E+02  0.13027222399E+03  0.12509000000E+03 0.  0.
         25    1    4    4    0    0 -0.39260792585E+02 -0.69433096153E+02 -0.26166407625E+02  0.15064711635E+03  0.12509000000E+03 0.  0.
<mgrwt>
<rscale>  2 0.45367490E+03</rscale>
<asrwt>0</asrwt>
<pdfrwt beam="1">  1       21 0.35802603E-01 0.45367490E+03</pdfrwt>
<pdfrwt beam="2">  1       21 0.31081151E-01 0.45367490E+03</pdfrwt>
<totfact> 0.69289464E+04</totfact>
</mgrwt>
</event>
<event>
 7    0  0.4752811E-002  0.4568479E+03  0.7546771E-02  0.1025699E+00
         21   -1    0    0  502  501  0.00000000000E+00  0.00000000000E+00  0.66439960723E+03  0.66439960723E+03  0.00000000000E+00 0. -1.
         21   -1    0    0  501  502 -0.00000000000E+00 -0.00000000000E+00 -0.78533303186E+02  0.78533303186E+02  0.00000000000E+00 0. -1.
      99926    2    1    2    0    0  0.00000000000E+00  0.14210854715E-13  0.58586630404E+03  0.74293291041E+03  0.45684787749E+03 0.  0.
      99925    2    3    3    0    0  0.26406329968E+02 -0.90753683036E+02  0.47303990102E+03  0.54977279402E+03  0.26372305898E+03 0.  0.
         25    1    4    4    0    0 -0.26377819326E+02 -0.32265441678E+02  0.20722144250E+03  0.24561164959E+03  0.12509000000E+03 0.  0.
         25    1    4    4    0    0  0.52784149294E+02 -0.58488241359E+02  0.26581845852E+03  0.30416114443E+03  0.12509000000E+03 0.  0.
         25    1    3    3    0    0 -0.26406329968E+02  0.90753683036E+02  0.11282640302E+03  0.19316011639E+03  0.12509000000E+03 0.  0.
<mgrwt>
<rscale>  2 0.45684788E+03</rscale>
<asrwt>0</asrwt>
<pdfrwt beam="1">  1       21 0.97705821E-01 0.45684788E+03</pdfrwt>
<pdfrwt beam="2">  1       21 0.11549016E-01 0.45684788E+03</pdfrwt>
<totfact> 0.49904315E+04</totfact>
</mgrwt>
</event>
<event>
 7    0  0.4752811E-002  0.4525323E+03  0.7546771E-02  0.1026970E+00
         21   -1    0    0  502  501  0.00000000000E+00  0.00000000000E+00  0.22560516430E+03  0.22560516430E+03  0.00000000000E+00 0. -1.
         21   -1    0    0  501  502 -0.00000000000E+00 -0.00000000000E+00 -0.22692908884E+03  0.22692908884E+03  0.00000000000E+00 0. -1.
      99926    2    1    2    0    0  0.17763568394E-14 -0.14210854715E-13 -0.13239245387E+01  0.45253425314E+03  0.45253231651E+03 0.  0.
      99925    2    3    3    0    0  0.11714279157E+02 -0.10882051782E+03 -0.18416077236E+02  0.28544511759E+03  0.26298409423E+03 0.  0.
         25    1    3    3    0    0 -0.11714279157E+02  0.10882051782E+03  0.17092152697E+02  0.16708913555E+03  0.12509000000E+03 0.  0.
         25    1    4    4    0    0  0.10141908377E+02 -0.87483739597E+02 -0.36445868323E+02  0.15726433931E+03  0.12509000000E+03 0.  0.
         25    1    4    4    0    0  0.15723707798E+01 -0.21336778220E+02  0.18029791087E+02  0.12818077828E+03  0.12509000000E+03 0.  0.
<mgrwt>
<rscale>  2 0.45253232E+03</rscale>
<asrwt>0</asrwt>
<pdfrwt beam="1">  1       21 0.33177230E-01 0.45253232E+03</pdfrwt>
<pdfrwt beam="2">  1       21 0.33371925E-01 0.45253232E+03</pdfrwt>
<totfact> 0.70096848E+04</totfact>
</mgrwt>
</event>
<event>
 7    0  0.4752811E-002  0.4484277E+03  0.7546771E-02  0.1028192E+00
         21   -1    0    0  502  501  0.00000000000E+00  0.00000000000E+00  0.17091863456E+03  0.17091863456E+03  0.00000000000E+00 0. -1.
         21   -1    0    0  501  502 -0.00000000000E+00 -0.00000000000E+00 -0.29412735195E+03  0.29412735195E+03  0.00000000000E+00 0. -1.
      99926    2    1    2    0    0 -0.14210854715E-13  0.00000000000E+00 -0.12320871739E+03  0.46504598652E+03  0.44842767704E+03 0.  0.
      99925    2    3    3    0    0  0.76059260901E+02 -0.29500102436E+02 -0.63865318719E+01  0.27544061122E+03  0.26300470586E+03 0.  0.
         25    1    4    4    0    0 -0.26850262420E+01 -0.11943252499E+02  0.77132564300E+01  0.12592399720E+03  0.12509000000E+03 0.  0.
         25    1    3    3    0    0 -0.76059260901E+02  0.29500102436E+02 -0.11682218552E+03  0.18960537530E+03  0.12509000000E+03 0.  0.
         25    1    4    4    0    0  0.78744287143E+02 -0.17556849937E+02 -0.14099788302E+02  0.14951661402E+03  0.12509000000E+03 0.  0.
<mgrwt>
<rscale>  2 0.44842768E+03</rscale>
<asrwt>0</asrwt>
<pdfrwt beam="1">  1       21 0.25135093E-01 0.44842768E+03</pdfrwt>
<pdfrwt beam="2">  1       21 0.43254022E-01 0.44842768E+03</pdfrwt>
<totfact> 0.71459698E+04</totfact>
</mgrwt>
</event>
<event>
 7    0  0.4752811E-002  0.4532633E+03  0.7546771E-02  0.1026753E+00
         21   -1    0    0  502  501  0.00000000000E+00  0.00000000000E+00  0.65246485012E+02  0.65246485012E+02  0.00000000000E+00 0. -1.
         21   -1    0    0  501  502 -0.00000000000E+00 -0.00000000000E+00 -0.78719803660E+03  0.78719803660E+03  0.00000000000E+00 0. -1.
      99926    2    1    2    0    0  0.00000000000E+00 -0.17763568394E-14 -0.72195155159E+03  0.85244452161E+03  0.45326330051E+03 0.  0.
      99925    2    3    3    0    0  0.97283937144E+02  0.13251174365E+02 -0.55426810162E+03  0.62134929115E+03  0.26310084586E+03 0.  0.
         25    1    4    4    0    0  0.76953781606E+02 -0.23409296237E+02 -0.28268610569E+03  0.31941950802E+03  0.12509000000E+03 0.  0.
         25    1    4    4    0    0  0.20330155537E+02  0.36660470601E+02 -0.27158199593E+03  0.30192978314E+03  0.12509000000E+03 0.  0.
         25    1    3    3    0    0 -0.97283937144E+02 -0.13251174365E+02 -0.16768344997E+03  0.23109523046E+03  0.12509000000E+03 0.  0.
<mgrwt>
<rscale>  2 0.45326330E+03</rscale>
<asrwt>0</asrwt>
<pdfrwt beam="1">  1       21 0.95950720E-02 0.45326330E+03</pdfrwt>
<pdfrwt beam="2">  1       21 0.11576441E+00 0.45326330E+03</pdfrwt>
<totfact> 0.45953056E+04</totfact>
</mgrwt>
</event>
<event>
 7    0  0.4752811E-002  0.4691013E+03  0.7546771E-02  0.1022174E+00
         21   -1    0    0  502  501  0.00000000000E+00  0.00000000000E+00  0.75749156692E+02  0.75749156692E+02  0.00000000000E+00 0.  1.
         21   -1    0    0  501  502 -0.00000000000E+00 -0.00000000000E+00 -0.72626570035E+03  0.72626570035E+03  0.00000000000E+00 0.  1.
      99926    2    1    2    0    0  0.71054273576E-14  0.00000000000E+00 -0.65051654366E+03  0.80201485704E+03  0.46910132951E+03 0.  0.
      99925    2    3    3    0    0  0.44298634575E+02 -0.64647722145E+02 -0.57292949369E+03  0.63525468366E+03  0.26298024901E+03 0.  0.
         25    1    4    4    0    0  0.49680905566E+02 -0.21713254517E+02 -0.35498649835E+03  0.38026645909E+03  0.12509000000E+03 0.  0.
         25    1    4    4    0    0 -0.53822709909E+01 -0.42934467628E+02 -0.21794299534E+03  0.25498822457E+03  0.12509000000E+03 0.  0.
         25    1    3    3    0    0 -0.44298634575E+02  0.64647722145E+02 -0.77587049971E+02  0.16676017338E+03  0.12509000000E+03 0.  0.
<mgrwt>
<rscale>  2 0.46910133E+03</rscale>
<asrwt>0</asrwt>
<pdfrwt beam="1">  1       21 0.11139581E-01 0.46910133E+03</pdfrwt>
<pdfrwt beam="2">  1       21 0.10680379E+00 0.46910133E+03</pdfrwt>
<totfact> 0.42738080E+04</totfact>
</mgrwt>
</event>
<event>
 7    0  0.4752811E-002  0.4518168E+03  0.7546771E-02  0.1027182E+00
         21   -1    0    0  502  501  0.00000000000E+00  0.00000000000E+00  0.74926774427E+03  0.74926774427E+03  0.00000000000E+00 0.  1.
         21   -1    0    0  501  502 -0.00000000000E+00 -0.00000000000E+00 -0.68112636310E+02  0.68112636310E+02  0.00000000000E+00 0.  1.
      99926    2    1    2    0    0  0.00000000000E+00  0.00000000000E+00  0.68115510796E+03  0.81738038058E+03  0.45181678306E+03 0.  0.
      99925    2    3    3    0    0 -0.96918985221E+02 -0.18330626288E+02  0.34312465188E+03  0.44369415005E+03  0.26344007003E+03 0.  0.
         25    1    3    3    0    0  0.96918985221E+02  0.18330626288E+02  0.33803045608E+03  0.37368623054E+03  0.12509000000E+03 0.  0.
         25    1    4    4    0    0 -0.19140498832E+02 -0.39149424589E+02  0.16670901275E+03  0.21292824888E+03  0.12509000000E+03 0.  0.
         25    1    4    4    0    0 -0.77778486389E+02  0.20818798301E+02  0.17641563914E+03  0.23076590116E+03  0.12509000000E+03 0.  0.
<mgrwt>
<rscale>  2 0.45181678E+03</rscale>
<asrwt>0</asrwt>
<pdfrwt beam="1">  1       21 0.11018643E+00 0.45181678E+03</pdfrwt>
<pdfrwt beam="2">  1       21 0.10016565E-01 0.45181678E+03</pdfrwt>
<totfact> 0.48126507E+04</totfact>
</mgrwt>
</event>
<event>
 7    0  0.4752811E-002  0.4527750E+03  0.7546771E-02  0.1026898E+00
         21   -1    0    0  502  501  0.00000000000E+00  0.00000000000E+00  0.17487338426E+03  0.17487338426E+03  0.00000000000E+00 0.  1.
         21   -1    0    0  501  502 -0.00000000000E+00 -0.00000000000E+00 -0.29307658413E+03  0.29307658413E+03  0.00000000000E+00 0.  1.
      99926    2    1    2    0    0  0.17763568394E-14  0.00000000000E+00 -0.11820319987E+03  0.46794996838E+03  0.45277497330E+03 0.  0.
      99925    2    3    3    0    0 -0.11820016413E+02 -0.11021947129E+03 -0.68535107435E+02  0.29358692142E+03  0.26307446634E+03 0.  0.
         25    1    4    4    0    0 -0.23344717031E+02 -0.33035546388E+02 -0.11312027953E+01  0.13147285217E+03  0.12509000000E+03 0.  0.
         25    1    4    4    0    0  0.11524700618E+02 -0.77183924904E+02 -0.67403904639E+02  0.16211406925E+03  0.12509000000E+03 0.  0.
         25    1    3    3    0    0  0.11820016413E+02  0.11021947129E+03 -0.49668092439E+02  0.17436304696E+03  0.12509000000E+03 0.  0.
<mgrwt>
<rscale>  2 0.45277497E+03</rscale>
<asrwt>0</asrwt>
<pdfrwt beam="1">  1       21 0.25716674E-01 0.45277497E+03</pdfrwt>
<pdfrwt beam="2">  1       21 0.43099497E-01 0.45277497E+03</pdfrwt>
<totfact> 0.68794792E+04</totfact>
</mgrwt>
</event>
<event>
 7    0  0.4752811E-002  0.4552188E+03  0.7546771E-02  0.1026177E+00
         21   -1    0    0  502  501  0.00000000000E+00  0.00000000000E+00  0.16217701244E+03  0.16217701244E+03  0.00000000000E+00 0. -1.
         21   -1    0    0  501  502 -0.00000000000E+00 -0.00000000000E+00 -0.31944133792E+03  0.31944133792E+03  0.00000000000E+00 0. -1.
      99926    2    1    2    0    0 -0.14210854715E-13  0.00000000000E+00 -0.15726432548E+03  0.48161835036E+03  0.45521881258E+03 0.  0.
      99925    2    3    3    0    0 -0.75991114436E+02 -0.82584693198E+02 -0.11574059886E+03  0.30850968796E+03  0.26303509332E+03 0.  0.
         25    1    3    3    0    0  0.75991114436E+02  0.82584693198E+02 -0.41523726621E+02  0.17310866240E+03  0.12509000000E+03 0.  0.
         25    1    4    4    0    0 -0.69806856043E+02 -0.47936596255E+02 -0.90627077153E+02  0.17615813812E+03  0.12509000000E+03 0.  0.
         25    1    4    4    0    0 -0.61842583928E+01 -0.34648096943E+02 -0.25113521704E+02  0.13235154984E+03  0.12509000000E+03 0.  0.
<mgrwt>
<rscale>  2 0.45521881E+03</rscale>
<asrwt>0</asrwt>
<pdfrwt beam="1">  1       21 0.23849561E-01 0.45521881E+03</pdfrwt>
<pdfrwt beam="2">  1       21 0.46976667E-01 0.45521881E+03</pdfrwt>
<totfact> 0.66466963E+04</totfact>
</mgrwt>
</event>
<event>
 7    0  0.4752811E-002  0.4488082E+03  0.7546771E-02  0.1028078E+00
         21   -1    0    0  502  501  0.00000000000E+00  0.00000000000E+00  0.13710055456E+03  0.13710055456E+03  0.00000000000E+00 0.  1.
         21   -1    0    0  501  502 -0.00000000000E+00 -0.00000000000E+00 -0.36730119523E+03  0.36730119523E+03  0.00000000000E+00 0.  1.
      99926    2    1    2    0    0 -0.71054273576E-14  0.71054273576E-14 -0.23020064067E+03  0.50440174979E+03  0.44880818868E+03 0.  0.
      99925    2    3    3    0    0  0.58137766270E+02 -0.42256441410E+02 -0.23521061086E+03  0.36004727425E+03  0.26295323068E+03 0.  0.
         25    1    4    4    0    0  0.48281272802E+02 -0.54221363778E+02 -0.10429183962E+03  0.17831246032E+03  0.12509000000E+03 0.  0.
         25    1    4    4    0    0  0.98564934679E+01  0.11964922368E+02 -0.13091877125E+03  0.18173481393E+03  0.12509000000E+03 0.  0.
         25    1    3    3    0    0 -0.58137766270E+02  0.42256441410E+02  0.50099701964E+01  0.14435447554E+03  0.12509000000E+03 0.  0.
<mgrwt>
<rscale>  2 0.44880819E+03</rscale>
<asrwt>0</asrwt>
<pdfrwt beam="1">  1       21 0.20161846E-01 0.44880819E+03</pdfrwt>
<pdfrwt beam="2">  1       21 0.54014881E-01 0.44880819E+03</pdfrwt>
<totfact> 0.68255607E+04</totfact>
</mgrwt>
</event>
<event>
 7    0  0.4752811E-002  0.4587412E+03  0.7546771E-02  0.1025147E+00
         21   -1    0    0  502  501  0.00000000000E+00  0.00000000000E+00  0.15507576150E+03  0.15507576150E+03  0.00000000000E+00 0. -1.
         21   -1    0    0  501  502 -0.00000000000E+00 -0.00000000000E+00 -0.33925909815E+03  0.33925909815E+03  0.00000000000E+00 0. -1.
      99926    2    1    2    0    0  0.00000000000E+00  0.17763568394E-14 -0.18418333665E+03  0.49433485965E+03  0.45874116009E+03 0.  0.
      99925    2    3    3    0    0  0.91621126202E+02 -0.53877824042E+01 -0.19311938334E+03  0.33892951869E+03  0.26297274280E+03 0.  0.
         25    1    3    3    0    0 -0.91621126202E+02  0.53877824042E+01  0.89360466881E+01  0.15540534095E+03  0.12509000000E+03 0.  0.
         25    1    4    4    0    0  0.50066465243E+02  0.18624312469E+02 -0.55629434090E+02  0.14695461202E+03  0.12509000000E+03 0.  0.
         25    1    4    4    0    0  0.41554660960E+02 -0.24012094873E+02 -0.13748994925E+03  0.19197490667E+03  0.12509000000E+03 0.  0.
<mgrwt>
<rscale>  2 0.45874116E+03</rscale>
<asrwt>0</asrwt>
<pdfrwt beam="1">  1       21 0.22805259E-01 0.45874116E+03</pdfrwt>
<pdfrwt beam="2">  1       21 0.49891043E-01 0.45874116E+03</pdfrwt>
<totfact> 0.63755833E+04</totfact>
</mgrwt>
</event>
<event>
 7    0  0.4752811E-002  0.4498977E+03  0.7546771E-02  0.1027753E+00
         21   -1    0    0  502  501  0.00000000000E+00  0.00000000000E+00  0.14918632389E+03  0.14918632389E+03  0.00000000000E+00 0.  1.
         21   -1    0    0  501  502 -0.00000000000E+00 -0.00000000000E+00 -0.33918645044E+03  0.33918645044E+03  0.00000000000E+00 0.  1.
      99926    2    1    2    0    0  0.00000000000E+00  0.71054273576E-14 -0.19000012656E+03  0.48837277433E+03  0.44989767572E+03 0.  0.
      99925    2    3    3    0    0 -0.98342544853E+02 -0.36710181761E+02 -0.14923828851E+03  0.32006374572E+03  0.26296357351E+03 0.  0.
         25    1    4    4    0    0 -0.25241043792E+02 -0.50666471376E+02 -0.79619257367E+02  0.15871652673E+03  0.12509000000E+03 0.  0.
         25    1    4    4    0    0 -0.73101501061E+02  0.13956289615E+02 -0.69619031143E+02  0.16134721899E+03  0.12509000000E+03 0.  0.
         25    1    3    3    0    0  0.98342544853E+02  0.36710181761E+02 -0.40761838047E+02  0.16830902862E+03  0.12509000000E+03 0.  0.
<mgrwt>
<rscale>  2 0.44989768E+03</rscale>
<asrwt>0</asrwt>
<pdfrwt beam="1">  1       21 0.21939165E-01 0.44989768E+03</pdfrwt>
<pdfrwt beam="2">  1       21 0.49880361E-01 0.44989768E+03</pdfrwt>
<totfact> 0.68842008E+04</totfact>
</mgrwt>
</event>
<event>
 7    0  0.4752811E-002  0.4480527E+03  0.7546771E-02  0.1028304E+00
         21   -1    0    0  502  501  0.00000000000E+00  0.00000000000E+00  0.62436448322E+03  0.62436448322E+03  0.00000000000E+00 0. -1.
         21   -1    0    0  501  502 -0.00000000000E+00 -0.00000000000E+00 -0.80382222694E+02  0.80382222694E+02  0.00000000000E+00 0. -1.
      99926    2    1    2    0    0  0.14210854715E-13  0.00000000000E+00  0.54398226053E+03  0.70474670592E+03  0.44805269749E+03 0.  0.
      99925    2    3    3    0    0 -0.82599996051E+02 -0.43750807843E+02  0.42467923126E+03  0.50823305899E+03  0.26308078656E+03 0.  0.
         25    1    4    4    0    0 -0.62740642964E+01  0.17491551115E+01  0.17590780223E+03  0.21594787892E+03  0.12509000000E+03 0.  0.
         25    1    4    4    0    0 -0.76325931755E+02 -0.45499962955E+02  0.24877142903E+03  0.29228518007E+03  0.12509000000E+03 0.  0.
         25    1    3    3    0    0  0.82599996051E+02  0.43750807843E+02  0.11930302927E+03  0.19651364693E+03  0.12509000000E+03 0.  0.
<mgrwt>
<rscale>  2 0.44805270E+03</rscale>
<asrwt>0</asrwt>
<pdfrwt beam="1">  1       21 0.91818304E-01 0.44805270E+03</pdfrwt>
<pdfrwt beam="2">  1       21 0.11820915E-01 0.44805270E+03</pdfrwt>
<totfact> 0.55624995E+04</totfact>
</mgrwt>
</event>
<event>
 7    0  0.4752811E-002  0.4482724E+03  0.7546771E-02  0.1028238E+00
         21   -1    0    0  502  501  0.00000000000E+00  0.00000000000E+00  0.49705926617E+02  0.49705926617E+02  0.00000000000E+00 0. -1.
         21   -1    0    0  501  502 -0.00000000000E+00 -0.00000000000E+00 -0.10106850235E+04  0.10106850235E+04  0.00000000000E+00 0. -1.
      99926    2    1    2    0    0  0.00000000000E+00  0.00000000000E+00 -0.96097909685E+03  0.10603909501E+04  0.44827239759E+03 0.  0.
      99925    2    3    3    0    0  0.39587359583E+02  0.24067205038E+02 -0.83588189006E+03  0.87751610588E+03  0.26303914641E+03 0.  0.
         25    1    4    4    0    0  0.54873969101E+02  0.25489599862E+02 -0.49291766571E+03  0.51212909062E+03  0.12509000000E+03 0.  0.
         25    1    3    3    0    0 -0.39587359583E+02 -0.24067205038E+02 -0.12509720679E+03  0.18287484421E+03  0.12509000000E+03 0.  0.
         25    1    4    4    0    0 -0.15286609518E+02 -0.14223948242E+01 -0.34296422435E+03  0.36538701526E+03  0.12509000000E+03 0.  0.
<mgrwt>
<rscale>  2 0.44827240E+03</rscale>
<asrwt>0</asrwt>
<pdfrwt beam="1">  1       21 0.73096960E-02 0.44827240E+03</pdfrwt>
<pdfrwt beam="2">  1       21 0.14863013E+00 0.44827240E+03</pdfrwt>
<totfact> 0.38901111E+04</totfact>
</mgrwt>
</event>
<event>
 7    0  0.4752811E-002  0.4476639E+03  0.7546771E-02  0.1028421E+00
         21   -1    0    0  502  501  0.00000000000E+00  0.00000000000E+00  0.20105645628E+03  0.20105645628E+03  0.00000000000E+00 0. -1.
         21   -1    0    0  501  502 -0.00000000000E+00 -0.00000000000E+00 -0.24918745323E+03  0.24918745323E+03  0.00000000000E+00 0. -1.
      99926    2    1    2    0    0 -0.71054273576E-14  0.00000000000E+00 -0.48130996956E+02  0.45024390951E+03  0.44766391990E+03 0.  0.
      99925    2    3    3    0    0 -0.57179677862E+02  0.66015548369E+02  0.30182211113E+02  0.27875619903E+03  0.26299521753E+03 0.  0.
         25    1    4    4    0    0 -0.17839200480E+02  0.68234162218E+02  0.33918763634E+02  0.14755381592E+03  0.12509000000E+03 0.  0.
         25    1    3    3    0    0  0.57179677862E+02 -0.66015548369E+02 -0.78313208069E+02  0.17148771048E+03  0.12509000000E+03 0.  0.
         25    1    4    4    0    0 -0.39340477382E+02 -0.22186138485E+01 -0.37365525204E+01  0.13120238311E+03  0.12509000000E+03 0.  0.
<mgrwt>
<rscale>  2 0.44766392E+03</rscale>
<asrwt>0</asrwt>
<pdfrwt beam="1">  1       21 0.29567126E-01 0.44766392E+03</pdfrwt>
<pdfrwt beam="2">  1       21 0.36645214E-01 0.44766392E+03</pdfrwt>
<totfact> 0.73080283E+04</totfact>
</mgrwt>
</event>
<event>
 7    0  0.4752811E-002  0.4533109E+03  0.7546771E-02  0.1026739E+00
         21   -1    0    0  502  501  0.00000000000E+00  0.00000000000E+00  0.28678197297E+03  0.28678197297E+03  0.00000000000E+00 0.  1.
         21   -1    0    0  501  502 -0.00000000000E+00 -0.00000000000E+00 -0.17913501301E+03  0.17913501301E+03  0.00000000000E+00 0.  1.
      99926    2    1    2    0    0  0.35527136788E-14  0.00000000000E+00  0.10764695997E+03  0.46591698598E+03  0.45331089755E+03 0.  0.
      99925    2    3    3    0    0  0.20641616223E+02  0.39902071529E+02  0.17278852674E+03  0.31789947535E+03  0.26303222202E+03 0.  0.
         25    1    4    4    0    0  0.27823522875E+02  0.19862174321E+02  0.43580114874E+02  0.13680419915E+03  0.12509000000E+03 0.  0.
         25    1    3    3    0    0 -0.20641616223E+02 -0.39902071529E+02 -0.65141566772E+02  0.14801751063E+03  0.12509000000E+03 0.  0.
         25    1    4    4    0    0 -0.71819066519E+01  0.20039897209E+02  0.12920841186E+03  0.18109527619E+03  0.12509000000E+03 0.  0.
<mgrwt>
<rscale>  2 0.45331090E+03</rscale>
<asrwt>0</asrwt>
<pdfrwt beam="1">  1       21 0.42173820E-01 0.45331090E+03</pdfrwt>
<pdfrwt beam="2">  1       21 0.26343384E-01 0.45331090E+03</pdfrwt>
<totfact> 0.68656067E+04</totfact>
</mgrwt>
</event>
<event>
 7    0  0.4752811E-002  0.4631993E+03  0.7546771E-02  0.1023857E+00
         21   -1    0    0  502  501  0.00000000000E+00  0.00000000000E+00  0.44570350734E+02  0.44570350734E+02  0.00000000000E+00 0.  1.
         21   -1    0    0  501  502 -0.00000000000E+00 -0.00000000000E+00 -0.12034544776E+04  0.12034544776E+04  0.00000000000E+00 0.  1.
      99926    2    1    2    0    0  0.71054273576E-14  0.00000000000E+00 -0.11588841269E+04  0.12480248283E+04  0.46319925803E+03 0.  0.
      99925    2    3    3    0    0  0.63779906313E+02 -0.10184492462E+02 -0.99868206267E+03  0.10347554920E+04  0.26302369789E+03 0.  0.
         25    1    4    4    0    0  0.33876849664E+02 -0.22560805943E+02 -0.64334579803E+03  0.65665664913E+03  0.12509000000E+03 0.  0.
         25    1    3    3    0    0 -0.63779906313E+02  0.10184492462E+02 -0.16020206421E+03  0.21326933632E+03  0.12509000000E+03 0.  0.
         25    1    4    4    0    0  0.29903056649E+02  0.12376313481E+02 -0.35533626464E+03  0.37809884290E+03  0.12509000000E+03 0.  0.
<mgrwt>
<rscale>  2 0.46319926E+03</rscale>
<asrwt>0</asrwt>
<pdfrwt beam="1">  1       21 0.65544632E-02 0.46319926E+03</pdfrwt>
<pdfrwt beam="2">  1       21 0.17697860E+00 0.46319926E+03</pdfrwt>
<totfact> 0.28780929E+04</totfact>
</mgrwt>
</event>
<event>
 7    0  0.4752811E-002  0.4459985E+03  0.7546771E-02  0.1028922E+00
         21   -1    0    0  502  501  0.00000000000E+00  0.00000000000E+00  0.26049665488E+02  0.26049665488E+02  0.00000000000E+00 0. -1.
         21   -1    0    0  501  502 -0.00000000000E+00 -0.00000000000E+00 -0.19089941022E+04  0.19089941022E+04  0.00000000000E+00 0. -1.
      99926    2    1    2    0    0  0.00000000000E+00  0.00000000000E+00 -0.18829444367E+04  0.19350437677E+04  0.44599846538E+03 0.  0.
      99925    2    3    3    0    0 -0.50963923146E+02 -0.57312949401E+02 -0.88693383292E+03  0.92828325664E+03  0.26301346915E+03 0.  0.
         25    1    4    4    0    0 -0.43838469136E+02 -0.31797681137E+02 -0.33372032098E+03  0.36048531820E+03  0.12509000000E+03 0.  0.
         25    1    3    3    0    0  0.50963923146E+02  0.57312949401E+02 -0.99601060376E+03  0.10067605110E+04  0.12509000000E+03 0.  0.
         25    1    4    4    0    0 -0.71254540096E+01 -0.25515268263E+02 -0.55321351194E+03  0.56779793844E+03  0.12509000000E+03 0.  0.
<mgrwt>
<rscale>  2 0.44599847E+03</rscale>
<asrwt>0</asrwt>
<pdfrwt beam="1">  1       21 0.38308327E-02 0.44599847E+03</pdfrwt>
<pdfrwt beam="2">  1       21 0.28073446E+00 0.44599847E+03</pdfrwt>
<totfact> 0.15880309E+04</totfact>
</mgrwt>
</event>
<event>
 7    0  0.4752811E-002  0.4538296E+03  0.7546771E-02  0.1026586E+00
         21   -1    0    0  502  501  0.00000000000E+00  0.00000000000E+00  0.45814203098E+03  0.45814203098E+03  0.00000000000E+00 0. -1.
         21   -1    0    0  501  502 -0.00000000000E+00 -0.00000000000E+00 -0.11238943622E+03  0.11238943622E+03  0.00000000000E+00 0. -1.
      99926    2    1    2    0    0 -0.14210854715E-13 -0.71054273576E-14  0.34575259476E+03  0.57053146719E+03  0.45382959167E+03 0.  0.
      99925    2    3    3    0    0 -0.90853671024E+02 -0.36591835970E+02  0.14955155047E+03  0.31807214398E+03  0.26307958973E+03 0.  0.
         25    1    4    4    0    0 -0.24037539387E+01 -0.17227375907E+02  0.68336106016E+02  0.14359628129E+03  0.12509000000E+03 0.  0.
         25    1    3    3    0    0  0.90853671024E+02  0.36591835970E+02  0.19620104428E+03  0.25245932321E+03  0.12509000000E+03 0.  0.
         25    1    4    4    0    0 -0.88449917085E+02 -0.19364460063E+02  0.81215444457E+02  0.17447586270E+03  0.12509000000E+03 0.  0.
<mgrwt>
<rscale>  2 0.45382959E+03</rscale>
<asrwt>0</asrwt>
<pdfrwt beam="1">  1       21 0.67373827E-01 0.45382959E+03</pdfrwt>
<pdfrwt beam="2">  1       21 0.16527858E-01 0.45382959E+03</pdfrwt>
<totfact> 0.61093289E+04</totfact>
</mgrwt>
</event>
<event>
 7    0  0.4752811E-002  0.4579332E+03  0.7546771E-02  0.1025382E+00
         21   -1    0    0  502  501  0.00000000000E+00  0.00000000000E+00  0.38664111482E+04  0.38664111482E+04  0.00000000000E+00 0. -1.
         21   -1    0    0  501  502 -0.00000000000E+00 -0.00000000000E+00 -0.13559266636E+02  0.13559266636E+02  0.00000000000E+00 0. -1.
      99926    2    1    2    0    0  0.00000000000E+00  0.00000000000E+00  0.38528518815E+04  0.38799704148E+04  0.45793318151E+03 0.  0.
      99925    2    3    3    0    0  0.86426025431E+02 -0.31098471111E+02  0.18318848589E+04  0.18530535967E+04  0.26375921455E+03 0.  0.
         25    1    4    4    0    0  0.40547094704E+02 -0.24064848014E+02  0.11874876372E+04  0.11949885274E+04  0.12509000000E+03 0.  0.
         25    1    4    4    0    0  0.45878930727E+02 -0.70336230962E+01  0.64439722163E+03  0.65806506934E+03  0.12509000000E+03 0.  0.
         25    1    3    3    0    0 -0.86426025431E+02  0.31098471111E+02  0.20209670226E+04  0.20269168181E+04  0.12509000000E+03 0.  0.
<mgrwt>
<rscale>  2 0.45793318E+03</rscale>
<asrwt>0</asrwt>
<pdfrwt beam="1">  1       21 0.56858911E+00 0.45793318E+03</pdfrwt>
<pdfrwt beam="2">  1       21 0.19940125E-02 0.45793318E+03</pdfrwt>
<totfact> 0.57329833E+02</totfact>
</mgrwt>
</event>
<event>
 7    0  0.4752811E-002  0.4560916E+03  0.7546771E-02  0.1025921E+00
         21   -1    0    0  502  501  0.00000000000E+00  0.00000000000E+00  0.41151679352E+03  0.41151679352E+03  0.00000000000E+00 0. -1.
         21   -1    0    0  501  502 -0.00000000000E+00 -0.00000000000E+00 -0.12637367427E+03  0.12637367427E+03  0.00000000000E+00 0. -1.
      99926    2    1    2    0    0  0.00000000000E+00 -0.14210854715E-13  0.28514311925E+03  0.53789046779E+03  0.45609161019E+03 0.  0.
      99925    2    3    3    0    0  0.10544310385E+02 -0.98727838101E+02  0.24581537791E+03  0.37341388029E+03  0.26297216103E+03 0.  0.
         25    1    3    3    0    0 -0.10544310385E+02  0.98727838101E+02  0.39327741334E+02  0.16447658750E+03  0.12509000000E+03 0.  0.
         25    1    4    4    0    0 -0.80865037160E+00 -0.74973712042E+01  0.12129875514E+03  0.17440688228E+03  0.12509000000E+03 0.  0.
         25    1    4    4    0    0  0.11352960757E+02 -0.91230466897E+02  0.12451662278E+03  0.19900699801E+03  0.12509000000E+03 0.  0.
<mgrwt>
<rscale>  2 0.45609161E+03</rscale>
<asrwt>0</asrwt>
<pdfrwt beam="1">  1       21 0.60517175E-01 0.45609161E+03</pdfrwt>
<pdfrwt beam="2">  1       21 0.18584364E-01 0.45609161E+03</pdfrwt>
<totfact> 0.62135327E+04</totfact>
</mgrwt>
</event>
<event>
 7    0  0.4752811E-002  0.4547702E+03  0.7546771E-02  0.1026309E+00
         21   -1    0    0  502  501  0.00000000000E+00  0.00000000000E+00  0.21729969345E+03  0.21729969345E+03  0.00000000000E+00 0. -1.
         21   -1    0    0  501  502 -0.00000000000E+00 -0.00000000000E+00 -0.23793860054E+03  0.23793860054E+03  0.00000000000E+00 0. -1.
      99926    2    1    2    0    0  0.00000000000E+00  0.00000000000E+00 -0.20638907085E+02  0.45523829399E+03  0.45477020552E+03 0.  0.
      99925    2    3    3    0    0  0.75696862013E+02 -0.77609427537E+02 -0.44890630310E+02  0.28793948245E+03  0.26294626581E+03 0.  0.
         25    1    4    4    0    0  0.68575497433E+02 -0.39224130179E+02 -0.51702210614E+02  0.15672191270E+03  0.12509000000E+03 0.  0.
         25    1    3    3    0    0 -0.75696862013E+02  0.77609427537E+02  0.24251723225E+02  0.16729881153E+03  0.12509000000E+03 0.  0.
         25    1    4    4    0    0  0.71213645804E+01 -0.38385297358E+02  0.68115803037E+01  0.13121756976E+03  0.12509000000E+03 0.  0.
<mgrwt>
<rscale>  2 0.45477021E+03</rscale>
<asrwt>0</asrwt>
<pdfrwt beam="1">  1       21 0.31955837E-01 0.45477021E+03</pdfrwt>
<pdfrwt beam="2">  1       21 0.34990971E-01 0.45477021E+03</pdfrwt>
<totfact> 0.68654153E+04</totfact>
</mgrwt>
</event>
<event>
 7    0  0.4752811E-002  0.4612387E+03  0.7546771E-02  0.1024423E+00
         21   -1    0    0  502  501  0.00000000000E+00  0.00000000000E+00  0.25990872609E+03  0.25990872609E+03  0.00000000000E+00 0. -1.
         21   -1    0    0  501  502 -0.00000000000E+00 -0.00000000000E+00 -0.20463062647E+03  0.20463062647E+03  0.00000000000E+00 0. -1.
      99926    2    1    2    0    0  0.71054273576E-14  0.00000000000E+00  0.55278099623E+02  0.46453935256E+03  0.46123870368E+03 0.  0.
      99925    2    3    3    0    0 -0.53660317194E+02  0.55859022091E+02  0.12588755735E+03  0.30134356949E+03  0.26260352204E+03 0.  0.
         25    1    3    3    0    0  0.53660317194E+02 -0.55859022091E+02 -0.70609457731E+02  0.16319578307E+03  0.12509000000E+03 0.  0.
         25    1    4    4    0    0 -0.21781235565E+02 -0.38067695224E+01  0.86821757353E+02  0.15386500371E+03  0.12509000000E+03 0.  0.
         25    1    4    4    0    0 -0.31879081629E+02  0.59665791613E+02  0.39065800001E+02  0.14747856578E+03  0.12509000000E+03 0.  0.
<mgrwt>
<rscale>  2 0.46123870E+03</rscale>
<asrwt>0</asrwt>
<pdfrwt beam="1">  1       21 0.38221872E-01 0.46123870E+03</pdfrwt>
<pdfrwt beam="2">  1       21 0.30092739E-01 0.46123870E+03</pdfrwt>
<totfact> 0.64577694E+04</totfact>
</mgrwt>
</event>
<event>
 7    0  0.4752811E-002  0.4566643E+03  0.7546771E-02  0.1025753E+00
         21   -1    0    0  502  501  0.00000000000E+00  0.00000000000E+00  0.39058631708E+03  0.39058631708E+03  0.00000000000E+00 0. -1.
         21   -1    0    0  501  502 -0.00000000000E+00 -0.00000000000E+00 -0.13348030634E+03  0.13348030634E+03  0.00000000000E+00 0. -1.
      99926    2    1    2    0    0  0.00000000000E+00  0.00000000000E+00  0.25710601074E+03  0.52406662342E+03  0.45666434613E+03 0.  0.
      99925    2    3    3    0    0  0.86846069980E+02 -0.74589792634E+02  0.16765951071E+03  0.33235313536E+03  0.26314068104E+03 0.  0.
         25    1    3    3    0    0 -0.86846069980E+02  0.74589792634E+02  0.89446500033E+02  0.19171348806E+03  0.12509000000E+03 0.  0.
         25    1    4    4    0    0  0.25881853659E+02 -0.15029205594E+02  0.11365709443E+03  0.17164262461E+03  0.12509000000E+03 0.  0.
         25    1    4    4    0    0  0.60964216321E+02 -0.59560587040E+02  0.54002416276E+02  0.16071051074E+03  0.12509000000E+03 0.  0.
<mgrwt>
<rscale>  2 0.45666435E+03</rscale>
<asrwt>0</asrwt>
<pdfrwt beam="1">  1       21 0.57439164E-01 0.45666435E+03</pdfrwt>
<pdfrwt beam="2">  1       21 0.19629457E-01 0.45666435E+03</pdfrwt>
<totfact> 0.62777511E+04</totfact>
</mgrwt>
</event>
<event>
 7    0  0.4752811E-002  0.4443075E+03  0.7546771E-02  0.1029433E+00
         21   -1    0    0  502  501  0.00000000000E+00  0.00000000000E+00  0.51472260941E+02  0.51472260941E+02  0.00000000000E+00 0. -1.
         21   -1    0    0  501  502 -0.00000000000E+00 -0.00000000000E+00 -0.95881324908E+03  0.95881324908E+03  0.00000000000E+00 0. -1.
      99926    2    1    2    0    0  0.14210854715E-13  0.00000000000E+00 -0.90734098814E+03  0.10102855100E+04  0.44430748700E+03 0.  0.
      99925    2    3    3    0    0 -0.66699004384E+02  0.73400180457E+02 -0.51457162675E+03  0.58631425743E+03  0.26295266824E+03 0.  0.
         25    1    3    3    0    0  0.66699004384E+02 -0.73400180457E+02 -0.39276936139E+03  0.42397125259E+03  0.12509000000E+03 0.  0.
         25    1    4    4    0    0 -0.28321258494E+02 -0.43075032253E+01 -0.21762742240E+03  0.25264570321E+03  0.12509000000E+03 0.  0.
         25    1    4    4    0    0 -0.38377745890E+02  0.77707683683E+02 -0.29694420435E+03  0.33366855423E+03  0.12509000000E+03 0.  0.
<mgrwt>
<rscale>  2 0.44430749E+03</rscale>
<asrwt>0</asrwt>
<pdfrwt beam="1">  1       21 0.75694507E-02 0.44430749E+03</pdfrwt>
<pdfrwt beam="2">  1       21 0.14100194E+00 0.44430749E+03</pdfrwt>
<totfact> 0.42182560E+04</totfact>
</mgrwt>
</event>
<event>
 7    0  0.4752811E-002  0.4594049E+03  0.7546771E-02  0.1024954E+00
         21   -1    0    0  502  501  0.00000000000E+00  0.00000000000E+00  0.38040378573E+03  0.38040378573E+03  0.00000000000E+00 0.  1.
         21   -1    0    0  501  502 -0.00000000000E+00 -0.00000000000E+00 -0.13870316448E+03  0.13870316448E+03  0.00000000000E+00 0.  1.
      99926    2    1    2    0    0  0.00000000000E+00  0.00000000000E+00  0.24170062124E+03  0.51910695021E+03  0.45940487095E+03 0.  0.
      99925    2    3    3    0    0  0.17116578522E+02 -0.83141229705E+02  0.24297667260E+03  0.36792964456E+03  0.26292416888E+03 0.  0.
         25    1    4    4    0    0 -0.26810928169E+02 -0.20178712633E+02  0.11495534358E+03  0.17317114491E+03  0.12509000000E+03 0.  0.
         25    1    3    3    0    0 -0.17116578522E+02  0.83141229705E+02 -0.12760513589E+01  0.15117730565E+03  0.12509000000E+03 0.  0.
         25    1    4    4    0    0  0.43927506691E+02 -0.62962517072E+02  0.12802132903E+03  0.19475849965E+03  0.12509000000E+03 0.  0.
<mgrwt>
<rscale>  2 0.45940487E+03</rscale>
<asrwt>0</asrwt>
<pdfrwt beam="1">  1       21 0.55941733E-01 0.45940487E+03</pdfrwt>
<pdfrwt beam="2">  1       21 0.20397524E-01 0.45940487E+03</pdfrwt>
<totfact> 0.61761132E+04</totfact>
</mgrwt>
</event>
<event>
 7    0  0.4752811E-002  0.4587751E+03  0.7546771E-02  0.1025137E+00
         21   -1    0    0  502  501  0.00000000000E+00  0.00000000000E+00  0.43986571974E+03  0.43986571974E+03  0.00000000000E+00 0. -1.
         21   -1    0    0  501  502 -0.00000000000E+00 -0.00000000000E+00 -0.11962435389E+03  0.11962435389E+03  0.00000000000E+00 0. -1.
      99926    2    1    2    0    0  0.00000000000E+00 -0.71054273576E-14  0.32024136585E+03  0.55949007364E+03  0.45877511931E+03 0.  0.
      99925    2    3    3    0    0 -0.41912260065E+02 -0.40662339266E+02  0.77815811085E+02  0.28051387200E+03  0.26310201168E+03 0.  0.
         25    1    4    4    0    0 -0.47838307228E+02 -0.40172429961E+02  0.15626569737E+02  0.14069124191E+03  0.12509000000E+03 0.  0.
         25    1    4    4    0    0  0.59260471636E+01 -0.48990930437E+00  0.62189241348E+02  0.13982263009E+03  0.12509000000E+03 0.  0.
         25    1    3    3    0    0  0.41912260065E+02  0.40662339266E+02  0.24242555476E+03  0.27897620164E+03  0.12509000000E+03 0.  0.
<mgrwt>
<rscale>  2 0.45877512E+03</rscale>
<asrwt>0</asrwt>
<pdfrwt beam="1">  1       21 0.64686135E-01 0.45877512E+03</pdfrwt>
<pdfrwt beam="2">  1       21 0.17591817E-01 0.45877512E+03</pdfrwt>
<totfact> 0.59448518E+04</totfact>
</mgrwt>
</event>
<event>
 7    0  0.4752811E-002  0.4567851E+03  0.7546771E-02  0.1025718E+00
         21   -1    0    0  502  501  0.00000000000E+00  0.00000000000E+00  0.27262957026E+03  0.27262957026E+03  0.00000000000E+00 0.  1.
         21   -1    0    0  501  502 -0.00000000000E+00 -0.00000000000E+00 -0.19133348864E+03  0.19133348864E+03  0.00000000000E+00 0.  1.
      99926    2    1    2    0    0  0.00000000000E+00 -0.14210854715E-13  0.81296081623E+02  0.46396305890E+03  0.45678514330E+03 0.  0.
      99925    2    3    3    0    0 -0.19487857213E+02 -0.11290089156E+03  0.58789798178E+02  0.29284780888E+03  0.26301560962E+03 0.  0.
         25    1    3    3    0    0  0.19487857213E+02  0.11290089156E+03  0.22506283446E+02  0.17111525002E+03  0.12509000000E+03 0.  0.
         25    1    4    4    0    0  0.23472442825E+02 -0.45060607032E+02  0.49887029348E+02  0.14393622781E+03  0.12509000000E+03 0.  0.
         25    1    4    4    0    0 -0.42960300037E+02 -0.67840284533E+02  0.89027688296E+01  0.14891158107E+03  0.12509000000E+03 0.  0.
<mgrwt>
<rscale>  2 0.45678514E+03</rscale>
<asrwt>0</asrwt>
<pdfrwt beam="1">  1       21 0.40092584E-01 0.45678514E+03</pdfrwt>
<pdfrwt beam="2">  1       21 0.28137278E-01 0.45678514E+03</pdfrwt>
<totfact> 0.66932290E+04</totfact>
</mgrwt>
</event>
<event>
 7    0  0.4752811E-002  0.4536743E+03  0.7546771E-02  0.1026632E+00
         21   -1    0    0  502  501  0.00000000000E+00  0.00000000000E+00  0.52958013307E+02  0.52958013307E+02  0.00000000000E+00 0.  1.
         21   -1    0    0  501  502 -0.00000000000E+00 -0.00000000000E+00 -0.97162062383E+03  0.97162062383E+03  0.00000000000E+00 0.  1.
      99926    2    1    2    0    0  0.00000000000E+00 -0.17763568394E-14 -0.91866261052E+03  0.10245786371E+04  0.45367432339E+03 0.  0.
      99925    2    3    3    0    0  0.20147688166E+02 -0.14801226178E+02 -0.33359933222E+03  0.42577019251E+03  0.26337565707E+03 0.  0.
         25    1    4    4    0    0 -0.21924838514E+02  0.95735613780E+01 -0.13060056311E+03  0.18241810987E+03  0.12509000000E+03 0.  0.
         25    1    3    3    0    0 -0.20147688166E+02  0.14801226178E+02 -0.58506327830E+03  0.59880844462E+03  0.12509000000E+03 0.  0.
         25    1    4    4    0    0  0.42072526680E+02 -0.24374787556E+02 -0.20299876911E+03  0.24335208265E+03  0.12509000000E+03 0.  0.
<mgrwt>
<rscale>  2 0.45367432E+03</rscale>
<asrwt>0</asrwt>
<pdfrwt beam="1">  1       21 0.77879431E-02 0.45367432E+03</pdfrwt>
<pdfrwt beam="2">  1       21 0.14288539E+00 0.45367432E+03</pdfrwt>
<totfact> 0.38622421E+04</totfact>
</mgrwt>
</event>
<event>
 7    0  0.4752811E-002  0.4541291E+03  0.7546771E-02  0.1026498E+00
         21   -1    0    0  502  501  0.00000000000E+00  0.00000000000E+00  0.63529704714E+02  0.63529704714E+02  0.00000000000E+00 0.  1.
         21   -1    0    0  501  502 -0.00000000000E+00 -0.00000000000E+00 -0.81156226529E+03  0.81156226529E+03  0.00000000000E+00 0.  1.
      99926    2    1    2    0    0  0.00000000000E+00 -0.14210854715E-13 -0.74803256057E+03  0.87509197000E+03  0.45412910530E+03 0.  0.
      99925    2    3    3    0    0 -0.36801476270E+02  0.97215344570E+02 -0.55263828664E+03  0.62086450834E+03  0.26317007805E+03 0.  0.
         25    1    3    3    0    0  0.36801476270E+02 -0.97215344570E+02 -0.19539427393E+03  0.25422746166E+03  0.12509000000E+03 0.  0.
         25    1    4    4    0    0  0.17945688268E+02  0.30977337445E+02 -0.28226609270E+03  0.31081071145E+03  0.12509000000E+03 0.  0.
         25    1    4    4    0    0 -0.54747164538E+02  0.66238007125E+02 -0.27037219394E+03  0.31005379690E+03  0.12509000000E+03 0.  0.
<mgrwt>
<rscale>  2 0.45412911E+03</rscale>
<asrwt>0</asrwt>
<pdfrwt beam="1">  1       21 0.93426042E-02 0.45412911E+03</pdfrwt>
<pdfrwt beam="2">  1       21 0.11934738E+00 0.45412911E+03</pdfrwt>
<totfact> 0.44631852E+04</totfact>
</mgrwt>
</event>
<event>
 7    0  0.4752811E-002  0.4518773E+03  0.7546771E-02  0.1027164E+00
         21   -1    0    0  502  501  0.00000000000E+00  0.00000000000E+00  0.14576623838E+03  0.14576623838E+03  0.00000000000E+00 0.  1.
         21   -1    0    0  501  502 -0.00000000000E+00 -0.00000000000E+00 -0.35020647575E+03  0.35020647575E+03  0.00000000000E+00 0.  1.
      99926    2    1    2    0    0  0.00000000000E+00 -0.35527136788E-14 -0.20444023738E+03  0.49597271413E+03  0.45187733125E+03 0.  0.
      99925    2    3    3    0    0 -0.69204733099E+02  0.12064763214E+02 -0.22220128518E+03  0.35141194312E+03  0.26302488293E+03 0.  0.
         25    1    4    4    0    0 -0.11546279223E+02 -0.25618161030E+02 -0.88469934562E+02  0.15576920158E+03  0.12509000000E+03 0.  0.
         25    1    3    3    0    0  0.69204733099E+02 -0.12064763214E+02  0.17761047799E+02  0.14456077101E+03  0.12509000000E+03 0.  0.
         25    1    4    4    0    0 -0.57658453876E+02  0.37682924244E+02 -0.13373135062E+03  0.19564274155E+03  0.12509000000E+03 0.  0.
<mgrwt>
<rscale>  2 0.45187733E+03</rscale>
<asrwt>0</asrwt>
<pdfrwt beam="1">  1       21 0.21436211E-01 0.45187733E+03</pdfrwt>
<pdfrwt beam="2">  1       21 0.51500952E-01 0.45187733E+03</pdfrwt>
<totfact> 0.67205062E+04</totfact>
</mgrwt>
</event>
<event>
 7    0  0.4752811E-002  0.4580717E+03  0.7546771E-02  0.1025342E+00
         21   -1    0    0  502  501  0.00000000000E+00  0.00000000000E+00  0.14598798648E+04  0.14598798648E+04  0.00000000000E+00 0. -1.
         21   -1    0    0  501  502 -0.00000000000E+00 -0.00000000000E+00 -0.35932704351E+02  0.35932704351E+02  0.00000000000E+00 0. -1.
      99926    2    1    2    0    0  0.00000000000E+00 -0.14210854715E-13  0.14239471604E+04  0.14958125691E+04  0.45807174796E+03 0.  0.
      99925    2    3    3    0    0 -0.76534967165E+02 -0.85852184177E+02  0.94465275221E+03  0.98728642764E+03  0.26294004873E+03 0.  0.
         25    1    3    3    0    0  0.76534967165E+02  0.85852184177E+02  0.47929440823E+03  0.50852614150E+03  0.12509000000E+03 0.  0.
         25    1    4    4    0    0 -0.30140346802E+02 -0.58563134877E+02  0.60616894224E+03  0.62243584080E+03  0.12509000000E+03 0.  0.
         25    1    4    4    0    0 -0.46394620363E+02 -0.27289049301E+02  0.33848380996E+03  0.36485058684E+03  0.12509000000E+03 0.  0.
<mgrwt>
<rscale>  2 0.45807175E+03</rscale>
<asrwt>0</asrwt>
<pdfrwt beam="1">  1       21 0.21468818E+00 0.45807175E+03</pdfrwt>
<pdfrwt beam="2">  1       21 0.52842222E-02 0.45807175E+03</pdfrwt>
<totfact> 0.23320545E+04</totfact>
</mgrwt>
</event>
<event>
 7    0  0.4752811E-002  0.4407340E+03  0.7546771E-02  0.1030522E+00
         21   -1    0    0  502  501  0.00000000000E+00  0.00000000000E+00  0.75656013287E+03  0.75656013287E+03  0.00000000000E+00 0. -1.
         21   -1    0    0  501  502 -0.00000000000E+00 -0.00000000000E+00 -0.64187381958E+02  0.64187381958E+02  0.00000000000E+00 0. -1.
      99926    2    1    2    0    0  0.14210854715E-13  0.71054273576E-14  0.69237275091E+03  0.82074751482E+03  0.44073399788E+03 0.  0.
      99925    2    3    3    0    0 -0.77061277498E+02 -0.60441520954E+02  0.47176152088E+03  0.54888644578E+03  0.26291781955E+03 0.  0.
         25    1    3    3    0    0  0.77061277498E+02  0.60441520954E+02  0.22061123003E+03  0.27186106904E+03  0.12509000000E+03 0.  0.
         25    1    4    4    0    0 -0.13630336563E+02 -0.23070930512E+02  0.15891298462E+03  0.20400710451E+03  0.12509000000E+03 0.  0.
         25    1    4    4    0    0 -0.63430940935E+02 -0.37370590442E+02  0.31284853626E+03  0.34487934127E+03  0.12509000000E+03 0.  0.
<mgrwt>
<rscale>  2 0.44073400E+03</rscale>
<asrwt>0</asrwt>
<pdfrwt beam="1">  1       21 0.11125884E+00 0.44073400E+03</pdfrwt>
<pdfrwt beam="2">  1       21 0.94393213E-02 0.44073400E+03</pdfrwt>
<totfact> 0.52401776E+04</totfact>
</mgrwt>
</event>
<event>
 7    0  0.4752811E-002  0.4459590E+03  0.7546771E-02  0.1028934E+00
         21   -1    0    0  502  501  0.00000000000E+00  0.00000000000E+00  0.31210315674E+02  0.31210315674E+02  0.00000000000E+00 0.  1.
         21   -1    0    0  501  502 -0.00000000000E+00 -0.00000000000E+00 -0.15930582964E+04  0.15930582964E+04  0.00000000000E+00 0.  1.
      99926    2    1    2    0    0  0.00000000000E+00  0.00000000000E+00 -0.15618479807E+04  0.16242686120E+04  0.44595897711E+03 0.  0.
      99925    2    3    3    0    0  0.11010199631E+02  0.97312501113E+02 -0.11232558687E+04  0.11577908568E+04  0.26303036718E+03 0.  0.
         25    1    4    4    0    0  0.31074457699E+01  0.34112212135E+02 -0.69857367446E+03  0.71051107380E+03  0.12509000000E+03 0.  0.
         25    1    4    4    0    0  0.79027538611E+01  0.63200288977E+02 -0.42468219427E+03  0.44727978299E+03  0.12509000000E+03 0.  0.
         25    1    3    3    0    0 -0.11010199631E+02 -0.97312501113E+02 -0.43859211196E+03  0.46647775525E+03  0.12509000000E+03 0.  0.
<mgrwt>
<rscale>  2 0.44595898E+03</rscale>
<asrwt>0</asrwt>
<pdfrwt beam="1">  1       21 0.45897514E-02 0.44595898E+03</pdfrwt>
<pdfrwt beam="2">  1       21 0.23427332E+00 0.44595898E+03</pdfrwt>
<totfact> 0.22419973E+04</totfact>
</mgrwt>
</event>
<event>
 6    0  0.4752811E-002  0.4665247E+03  0.7546771E-02  0.1022906E+00
         21   -1    0    0  502  501  0.00000000000E+00  0.00000000000E+00  0.80257453637E+02  0.80257453637E+02  0.00000000000E+00 0. -1.
         21   -1    0    0  501  502 -0.00000000000E+00 -0.00000000000E+00 -0.67795989740E+03  0.67795989740E+03  0.00000000000E+00 0. -1.
      99926    2    1    2    0    0  0.14210854715E-13 -0.71054273576E-14 -0.59770244376E+03  0.75821735104E+03  0.46652474761E+03 0.  0.
         25    1    3    3    0    0 -0.93608934257E+02  0.19527901749E+02 -0.16061581537E+03  0.22491980742E+03  0.12509000000E+03 0.  0.
         25    1    3    3    0    0 -0.14863494350E+02  0.27177807390E+02 -0.14226115313E+03  0.19195129713E+03  0.12509000000E+03 0.  0.
         25    1    3    3    0    0  0.10847242861E+03 -0.46705709139E+02 -0.29482547526E+03  0.34134624649E+03  0.12509000000E+03 0.  0.
<mgrwt>
<rscale>  2 0.46652475E+03</rscale>
<asrwt>0</asrwt>
<pdfrwt beam="1">  1       21 0.11802566E-01 0.46652475E+03</pdfrwt>
<pdfrwt beam="2">  1       21 0.99699990E-01 0.46652475E+03</pdfrwt>
<totfact> 0.45583106E+04</totfact>
</mgrwt>
</event>
<event>
 7    0  0.4752811E-002  0.4418397E+03  0.7546771E-02  0.1030184E+00
         21   -1    0    0  502  501  0.00000000000E+00  0.00000000000E+00  0.76782296807E+03  0.76782296807E+03  0.00000000000E+00 0. -1.
         21   -1    0    0  501  502 -0.00000000000E+00 -0.00000000000E+00 -0.63563583788E+02  0.63563583788E+02  0.00000000000E+00 0. -1.
      99926    2    1    2    0    0  0.00000000000E+00 -0.71054273576E-14  0.70425938428E+03  0.83138655185E+03  0.44183969747E+03 0.  0.
      99925    2    3    3    0    0  0.42198621189E+02 -0.51193567150E+02  0.59030755358E+03  0.64963388264E+03  0.26298225930E+03 0.  0.
         25    1    3    3    0    0 -0.42198621189E+02  0.51193567150E+02  0.11395183070E+03  0.18175266922E+03  0.12509000000E+03 0.  0.
         25    1    4    4    0    0 -0.31151768707E+01 -0.57955285312E+02  0.30935914616E+03  0.33870209453E+03  0.12509000000E+03 0.  0.
         25    1    4    4    0    0  0.45313798060E+02  0.67617181611E+01  0.28094840742E+03  0.31093178811E+03  0.12509000000E+03 0.  0.
<mgrwt>
<rscale>  2 0.44183970E+03</rscale>
<asrwt>0</asrwt>
<pdfrwt beam="1">  1       21 0.11291514E+00 0.44183970E+03</pdfrwt>
<pdfrwt beam="2">  1       21 0.93475863E-02 0.44183970E+03</pdfrwt>
<totfact> 0.51387919E+04</totfact>
</mgrwt>
</event>
<event>
 7    0  0.4752811E-002  0.4557781E+03  0.7546771E-02  0.1026013E+00
         21   -1    0    0  502  501  0.00000000000E+00  0.00000000000E+00  0.11338188203E+03  0.11338188203E+03  0.00000000000E+00 0.  1.
         21   -1    0    0  501  502 -0.00000000000E+00 -0.00000000000E+00 -0.45803980228E+03  0.45803980228E+03  0.00000000000E+00 0.  1.
      99926    2    1    2    0    0  0.00000000000E+00  0.00000000000E+00 -0.34465792025E+03  0.57142168432E+03  0.45577808121E+03 0.  0.
      99925    2    3    3    0    0 -0.86751626220E+02  0.71326431025E+02 -0.19298200905E+03  0.34500084924E+03  0.26300233031E+03 0.  0.
         25    1    4    4    0    0 -0.41612589081E+02  0.18910966320E+02 -0.48438164668E+02  0.14171448802E+03  0.12509000000E+03 0.  0.
         25    1    4    4    0    0 -0.45139037139E+02  0.52415464704E+02 -0.14454384438E+03  0.20328636123E+03  0.12509000000E+03 0.  0.
         25    1    3    3    0    0  0.86751626220E+02 -0.71326431025E+02 -0.15167591120E+03  0.22642083507E+03  0.12509000000E+03 0.  0.
<mgrwt>
<rscale>  2 0.45577808E+03</rscale>
<asrwt>0</asrwt>
<pdfrwt beam="1">  1       21 0.16673806E-01 0.45577808E+03</pdfrwt>
<pdfrwt beam="2">  1       21 0.67358794E-01 0.45577808E+03</pdfrwt>
<totfact> 0.60102104E+04</totfact>
</mgrwt>
</event>
<event>
 7    0  0.4752811E-002  0.3895304E+03  0.7546771E-02  0.1047466E+00
         21   -1    0    0  502  501  0.00000000000E+00  0.00000000000E+00  0.27878049938E+03  0.27878049938E+03  0.00000000000E+00 0.  1.
         21   -1    0    0  501  502 -0.00000000000E+00 -0.00000000000E+00 -0.13606932579E+03  0.13606932579E+03  0.00000000000E+00 0.  1.
      99926    2    1    2    0    0 -0.88817841970E-15 -0.17763568394E-14  0.14271117359E+03  0.41484982517E+03  0.38953035617E+03 0.  0.
      99925    2    3    3    0    0  0.56889862973E+01  0.14787809538E+02  0.96005803072E+02  0.28038814434E+03  0.26296264637E+03 0.  0.
         25    1    4    4    0    0  0.32757507059E+02  0.10953921329E+02  0.77128581380E+02  0.15096148127E+03  0.12509000000E+03 0.  0.
         25    1    3    3    0    0 -0.56889862973E+01 -0.14787809538E+02  0.46705370523E+02  0.13446168083E+03  0.12509000000E+03 0.  0.
         25    1    4    4    0    0 -0.27068520762E+02  0.38338882088E+01  0.18877221691E+02  0.12942666307E+03  0.12509000000E+03 0.  0.
<mgrwt>
<rscale>  2 0.38953036E+03</rscale>
<asrwt>0</asrwt>
<pdfrwt beam="1">  1       21 0.40997132E-01 0.38953036E+03</pdfrwt>
<pdfrwt beam="2">  1       21 0.20010195E-01 0.38953036E+03</pdfrwt>
<totfact> 0.12523831E+05</totfact>
</mgrwt>
</event>
<event>
 7    0  0.4752811E-002  0.4615207E+03  0.7546771E-02  0.1024341E+00
         21   -1    0    0  502  501  0.00000000000E+00  0.00000000000E+00  0.10601798659E+03  0.10601798659E+03  0.00000000000E+00 0.  1.
         21   -1    0    0  501  502 -0.00000000000E+00 -0.00000000000E+00 -0.50227656394E+03  0.50227656394E+03  0.00000000000E+00 0.  1.
      99926    2    1    2    0    0  0.00000000000E+00  0.00000000000E+00 -0.39625857735E+03  0.60829455054E+03  0.46152074720E+03 0.  0.
      99925    2    3    3    0    0 -0.18528952222E+02 -0.99068764829E+02 -0.16409007165E+03  0.32596909052E+03  0.26300637659E+03 0.  0.
         25    1    3    3    0    0  0.18528952222E+02  0.99068764829E+02 -0.23216850570E+03  0.28232546002E+03  0.12509000000E+03 0.  0.
         25    1    4    4    0    0 -0.12501722647E+02 -0.11652015908E+02 -0.96726347862E+02  0.15904577019E+03  0.12509000000E+03 0.  0.
         25    1    4    4    0    0 -0.60272295749E+01 -0.87416748921E+02 -0.67363723786E+02  0.16692332033E+03  0.12509000000E+03 0.  0.
<mgrwt>
<rscale>  2 0.46152075E+03</rscale>
<asrwt>0</asrwt>
<pdfrwt beam="1">  1       21 0.15590881E-01 0.46152075E+03</pdfrwt>
<pdfrwt beam="2">  1       21 0.73864199E-01 0.46152075E+03</pdfrwt>
<totfact> 0.55268165E+04</totfact>
</mgrwt>
</event>
<event>
 7    0  0.4752811E-002  0.4686130E+03  0.7546771E-02  0.1022312E+00
         21   -1    0    0  502  501  0.00000000000E+00  0.00000000000E+00  0.37696094277E+03  0.37696094277E+03  0.00000000000E+00 0.  1.
         21   -1    0    0  501  502 -0.00000000000E+00 -0.00000000000E+00 -0.14563721692E+03  0.14563721692E+03  0.00000000000E+00 0.  1.
      99926    2    1    2    0    0  0.00000000000E+00  0.00000000000E+00  0.23132372585E+03  0.52259815968E+03  0.46861302838E+03 0.  0.
      99925    2    3    3    0    0  0.91040334183E+02  0.66848978895E+02  0.82815774253E+02  0.29796679897E+03  0.26299930113E+03 0.  0.
         25    1    4    4    0    0  0.45354253376E+02 -0.56263766604E+01  0.23892350642E+02  0.13530342543E+03  0.12509000000E+03 0.  0.
         25    1    3    3    0    0 -0.91040334183E+02 -0.66848978895E+02  0.14850795160E+03  0.22463136071E+03  0.12509000000E+03 0.  0.
         25    1    4    4    0    0  0.45686080807E+02  0.72475355556E+02  0.58923423612E+02  0.16266337354E+03  0.12509000000E+03 0.  0.
<mgrwt>
<rscale>  2 0.46861303E+03</rscale>
<asrwt>0</asrwt>
<pdfrwt beam="1">  1       21 0.55435433E-01 0.46861303E+03</pdfrwt>
<pdfrwt beam="2">  1       21 0.21417238E-01 0.46861303E+03</pdfrwt>
<totfact> 0.57269668E+04</totfact>
</mgrwt>
</event>
<event>
 7    0  0.4752811E-002  0.4520529E+03  0.7546771E-02  0.1027112E+00
         21   -1    0    0  502  501  0.00000000000E+00  0.00000000000E+00  0.17989390685E+03  0.17989390685E+03  0.00000000000E+00 0. -1.
         21   -1    0    0  501  502 -0.00000000000E+00 -0.00000000000E+00 -0.28398933247E+03  0.28398933247E+03  0.00000000000E+00 0. -1.
      99926    2    1    2    0    0  0.35527136788E-14  0.00000000000E+00 -0.10409542562E+03  0.46388323931E+03  0.45205287531E+03 0.  0.
      99925    2    3    3    0    0 -0.31015532743E+02 -0.20301623450E+02  0.41019796484E+02  0.26874212378E+03  0.26299350981E+03 0.  0.
         25    1    4    4    0    0 -0.51026940175E+02  0.95233487748E+01  0.22417338049E+02  0.13727522697E+03  0.12509000000E+03 0.  0.
         25    1    4    4    0    0  0.20011407432E+02 -0.29824972225E+02  0.18602458435E+02  0.13146689680E+03  0.12509000000E+03 0.  0.
         25    1    3    3    0    0  0.31015532743E+02  0.20301623450E+02 -0.14511522210E+03  0.19514111553E+03  0.12509000000E+03 0.  0.
<mgrwt>
<rscale>  2 0.45205288E+03</rscale>
<asrwt>0</asrwt>
<pdfrwt beam="1">  1       21 0.26454987E-01 0.45205288E+03</pdfrwt>
<pdfrwt beam="2">  1       21 0.41763137E-01 0.45205288E+03</pdfrwt>
<totfact> 0.69504310E+04</totfact>
</mgrwt>
</event>
<event>
 7    0  0.4752811E-002  0.4508262E+03  0.7546771E-02  0.1027476E+00
         21   -1    0    0  502  501  0.00000000000E+00  0.00000000000E+00  0.20863168550E+03  0.20863168550E+03  0.00000000000E+00 0.  1.
         21   -1    0    0  501  502 -0.00000000000E+00 -0.00000000000E+00 -0.24354436294E+03  0.24354436294E+03  0.00000000000E+00 0.  1.
      99926    2    1    2    0    0  0.00000000000E+00 -0.14210854715E-13 -0.34912677440E+02  0.45217604845E+03  0.45082622344E+03 0.  0.
      99925    2    3    3    0    0 -0.22407063852E+02  0.88109748959E+02 -0.82576536091E+02  0.29035900394E+03  0.26310466070E+03 0.  0.
         25    1    4    4    0    0 -0.26182207279E+02  0.82482190416E+02 -0.33080367439E+02  0.15566193666E+03  0.12509000000E+03 0.  0.
         25    1    3    3    0    0  0.22407063852E+02 -0.88109748959E+02  0.47663858651E+02  0.16181704451E+03  0.12509000000E+03 0.  0.
         25    1    4    4    0    0  0.37751434271E+01  0.56275585425E+01 -0.49496168652E+02  0.13469706728E+03  0.12509000000E+03 0.  0.
<mgrwt>
<rscale>  2 0.45082622E+03</rscale>
<asrwt>0</asrwt>
<pdfrwt beam="1">  1       21 0.30681130E-01 0.45082622E+03</pdfrwt>
<pdfrwt beam="2">  1       21 0.35815347E-01 0.45082622E+03</pdfrwt>
<totfact> 0.71091309E+04</totfact>
</mgrwt>
</event>
<event>
 7    0  0.4752811E-002  0.4520578E+03  0.7546771E-02  0.1027110E+00
         21   -1    0    0  502  501  0.00000000000E+00  0.00000000000E+00  0.49438246559E+03  0.49438246559E+03  0.00000000000E+00 0.  1.
         21   -1    0    0  501  502 -0.00000000000E+00 -0.00000000000E+00 -0.10333912946E+03  0.10333912946E+03  0.00000000000E+00 0.  1.
      99926    2    1    2    0    0 -0.14210854715E-13  0.35527136788E-14  0.39104333614E+03  0.59772159505E+03  0.45205775566E+03 0.  0.
      99925    2    3    3    0    0  0.57347501945E+02 -0.82362879633E+01  0.12235091554E+03  0.29572871864E+03  0.26292424018E+03 0.  0.
         25    1    4    4    0    0 -0.47341923780E+01 -0.19940699190E+02  0.77573453865E+02  0.14861087748E+03  0.12509000000E+03 0.  0.
         25    1    3    3    0    0 -0.57347501945E+02  0.82362879633E+01  0.26869242060E+03  0.30199287642E+03  0.12509000000E+03 0.  0.
         25    1    4    4    0    0  0.62081694323E+02  0.11704411227E+02  0.44777461672E+02  0.14711784115E+03  0.12509000000E+03 0.  0.
<mgrwt>
<rscale>  2 0.45205776E+03</rscale>
<asrwt>0</asrwt>
<pdfrwt beam="1">  1       21 0.72703303E-01 0.45205776E+03</pdfrwt>
<pdfrwt beam="2">  1       21 0.15196931E-01 0.45205776E+03</pdfrwt>
<totfact> 0.60206281E+04</totfact>
</mgrwt>
</event>
<event>
 7    0  0.4752811E-002  0.4548798E+03  0.7546771E-02  0.1026277E+00
         21   -1    0    0  502  501  0.00000000000E+00  0.00000000000E+00  0.49717434638E+02  0.49717434638E+02  0.00000000000E+00 0. -1.
         21   -1    0    0  501  502 -0.00000000000E+00 -0.00000000000E+00 -0.10404582330E+04  0.10404582330E+04  0.00000000000E+00 0. -1.
      99926    2    1    2    0    0  0.00000000000E+00 -0.35527136788E-14 -0.99074079839E+03  0.10901756677E+04  0.45487982674E+03 0.  0.
      99925    2    3    3    0    0 -0.10028342293E+03 -0.94192120071E+01 -0.74644586970E+03  0.79781799845E+03  0.26303352596E+03 0.  0.
         25    1    4    4    0    0 -0.38065337800E+02  0.33577462925E+02 -0.33498247683E+03  0.36116088360E+03  0.12509000000E+03 0.  0.
         25    1    4    4    0    0 -0.62218085133E+02 -0.42996674932E+02 -0.41146339287E+03  0.43665711485E+03  0.12509000000E+03 0.  0.
         25    1    3    3    0    0  0.10028342293E+03  0.94192120071E+01 -0.24429492869E+03  0.29235766922E+03  0.12509000000E+03 0.  0.
<mgrwt>
<rscale>  2 0.45487983E+03</rscale>
<asrwt>0</asrwt>
<pdfrwt beam="1">  1       21 0.73113875E-02 0.45487983E+03</pdfrwt>
<pdfrwt beam="2">  1       21 0.15300856E+00 0.45487983E+03</pdfrwt>
<totfact> 0.35870406E+04</totfact>
</mgrwt>
</event>
<event>
 7    0  0.4752811E-002  0.4609765E+03  0.7546771E-02  0.1024498E+00
         21   -1    0    0  502  501  0.00000000000E+00  0.00000000000E+00  0.45920790121E+02  0.45920790121E+02  0.00000000000E+00 0.  1.
         21   -1    0    0  501  502 -0.00000000000E+00 -0.00000000000E+00 -0.11568796328E+04  0.11568796328E+04  0.00000000000E+00 0.  1.
      99926    2    1    2    0    0  0.00000000000E+00  0.00000000000E+00 -0.11109588426E+04  0.12028004229E+04  0.46097647146E+03 0.  0.
      99925    2    3    3    0    0 -0.95889136100E+02 -0.64005871838E+02 -0.76928700234E+03  0.82112171951E+03  0.26295799709E+03 0.  0.
         25    1    4    4    0    0 -0.57432909009E+02  0.21082995560E+01 -0.43033338884E+03  0.45181557921E+03  0.12509000000E+03 0.  0.
         25    1    3    3    0    0  0.95889136100E+02  0.64005871838E+02 -0.34167184029E+03  0.38167870336E+03  0.12509000000E+03 0.  0.
         25    1    4    4    0    0 -0.38456227091E+02 -0.66114171394E+02 -0.33895361350E+03  0.36930614030E+03  0.12509000000E+03 0.  0.
<mgrwt>
<rscale>  2 0.46097647E+03</rscale>
<asrwt>0</asrwt>
<pdfrwt beam="1">  1       21 0.67530574E-02 0.46097647E+03</pdfrwt>
<pdfrwt beam="2">  1       21 0.17012936E+00 0.46097647E+03</pdfrwt>
<totfact> 0.30616906E+04</totfact>
</mgrwt>
</event>
<event>
 7    0  0.4752811E-002  0.4558522E+03  0.7546771E-02  0.1025991E+00
         21   -1    0    0  502  501  0.00000000000E+00  0.00000000000E+00  0.21364579433E+03  0.21364579433E+03  0.00000000000E+00 0.  1.
         21   -1    0    0  501  502 -0.00000000000E+00 -0.00000000000E+00 -0.24316091785E+03  0.24316091785E+03  0.00000000000E+00 0.  1.
      99926    2    1    2    0    0  0.00000000000E+00  0.35527136788E-14 -0.29515123521E+02  0.45680671219E+03  0.45585220169E+03 0.  0.
      99925    2    3    3    0    0 -0.16455312495E+02 -0.20504631193E+02  0.92583269592E+02  0.28003922957E+03  0.26298116108E+03 0.  0.
         25    1    4    4    0    0 -0.22061965639E+02  0.65208648818E+01  0.82376629701E+02  0.15153438299E+03  0.12509000000E+03 0.  0.
         25    1    3    3    0    0  0.16455312495E+02  0.20504631193E+02 -0.12209839311E+03  0.17676748262E+03  0.12509000000E+03 0.  0.
         25    1    4    4    0    0  0.56066531433E+01 -0.27025496075E+02  0.10206639891E+02  0.12850484658E+03  0.12509000000E+03 0.  0.
<mgrwt>
<rscale>  2 0.45585220E+03</rscale>
<asrwt>0</asrwt>
<pdfrwt beam="1">  1       21 0.31418499E-01 0.45585220E+03</pdfrwt>
<pdfrwt beam="2">  1       21 0.35758958E-01 0.45585220E+03</pdfrwt>
<totfact> 0.67950464E+04</totfact>
</mgrwt>
</event>
<event>
 7    0  0.4752811E-002  0.4491947E+03  0.7546771E-02  0.1027962E+00
         21   -1    0    0  502  501  0.00000000000E+00  0.00000000000E+00  0.24719356347E+03  0.24719356347E+03  0.00000000000E+00 0. -1.
         21   -1    0    0  501  502 -0.00000000000E+00 -0.00000000000E+00 -0.20406665166E+03  0.20406665166E+03  0.00000000000E+00 0. -1.
      99926    2    1    2    0    0  0.00000000000E+00  0.00000000000E+00  0.43126911812E+02  0.45126021512E+03  0.44919466964E+03 0.  0.
      99925    2    3    3    0    0  0.96288857056E+02 -0.47558149872E+02  0.37316173704E+02  0.28629175029E+03  0.26274921094E+03 0.  0.
         25    1    3    3    0    0 -0.96288857056E+02  0.47558149872E+02  0.58107381074E+01  0.16496846483E+03  0.12509000000E+03 0.  0.
         25    1    4    4    0    0  0.79205636278E+02 -0.17886098970E+02  0.46664225155E+02  0.15626421012E+03  0.12509000000E+03 0.  0.
         25    1    4    4    0    0  0.17083220778E+02 -0.29672050902E+02 -0.93480514506E+01  0.13002754017E+03  0.12509000000E+03 0.  0.
<mgrwt>
<rscale>  2 0.44919467E+03</rscale>
<asrwt>0</asrwt>
<pdfrwt beam="1">  1       21 0.36351995E-01 0.44919467E+03</pdfrwt>
<pdfrwt beam="2">  1       21 0.30009802E-01 0.44919467E+03</pdfrwt>
<totfact> 0.72102898E+04</totfact>
</mgrwt>
</event>
<event>
 7    0  0.4752811E-002  0.4552098E+03  0.7546771E-02  0.1026180E+00
         21   -1    0    0  502  501  0.00000000000E+00  0.00000000000E+00  0.77647903669E+02  0.77647903669E+02  0.00000000000E+00 0. -1.
         21   -1    0    0  501  502 -0.00000000000E+00 -0.00000000000E+00 -0.66716530203E+03  0.66716530203E+03  0.00000000000E+00 0. -1.
      99926    2    1    2    0    0 -0.14210854715E-13 -0.22204460493E-15 -0.58951739836E+03  0.74481320570E+03  0.45520978506E+03 0.  0.
      99925    2    3    3    0    0  0.10617542028E+03 -0.17712554132E+01 -0.30471245196E+03  0.41612228277E+03  0.26273887916E+03 0.  0.
         25    1    3    3    0    0 -0.10617542028E+03  0.17712554132E+01 -0.28480494641E+03  0.32869092293E+03  0.12509000000E+03 0.  0.
         25    1    4    4    0    0  0.68621905896E+02 -0.83157851241E+01 -0.21258278166E+03  0.25615828194E+03  0.12509000000E+03 0.  0.
         25    1    4    4    0    0  0.37553514387E+02  0.65445297109E+01 -0.92129670303E+02  0.15996400083E+03  0.12509000000E+03 0.  0.
<mgrwt>
<rscale>  2 0.45520979E+03</rscale>
<asrwt>0</asrwt>
<pdfrwt beam="1">  1       21 0.11418809E-01 0.45520979E+03</pdfrwt>
<pdfrwt beam="2">  1       21 0.98112547E-01 0.45520979E+03</pdfrwt>
<totfact> 0.50453247E+04</totfact>
</mgrwt>
</event>
<event>
 7    0  0.4752811E-002  0.4521226E+03  0.7546771E-02  0.1027091E+00
         21   -1    0    0  502  501  0.00000000000E+00  0.00000000000E+00  0.83348354328E+03  0.83348354328E+03  0.00000000000E+00 0.  1.
         21   -1    0    0  501  502 -0.00000000000E+00 -0.00000000000E+00 -0.61313401250E+02  0.61313401250E+02  0.00000000000E+00 0.  1.
      99926    2    1    2    0    0  0.00000000000E+00  0.00000000000E+00  0.77217014203E+03  0.89479694453E+03  0.45212259808E+03 0.  0.
      99925    2    3    3    0    0 -0.10253025178E+03  0.40513599330E+02  0.47133750195E+03  0.55084696314E+03  0.26290593716E+03 0.  0.
         25    1    3    3    0    0  0.10253025178E+03 -0.40513599330E+02  0.30083264008E+03  0.34394998139E+03  0.12509000000E+03 0.  0.
         25    1    4    4    0    0 -0.92800965105E+02  0.24010333754E+02  0.28348447537E+03  0.32434467951E+03  0.12509000000E+03 0.  0.
         25    1    4    4    0    0 -0.97292866755E+01  0.16503265576E+02  0.18785302658E+03  0.22650228363E+03  0.12509000000E+03 0.  0.
<mgrwt>
<rscale>  2 0.45212260E+03</rscale>
<asrwt>0</asrwt>
<pdfrwt beam="1">  1       21 0.12257110E+00 0.45212260E+03</pdfrwt>
<pdfrwt beam="2">  1       21 0.90166771E-02 0.45212260E+03</pdfrwt>
<totfact> 0.44452503E+04</totfact>
</mgrwt>
</event>
<event>
 7    0  0.4752811E-002  0.4624605E+03  0.7546771E-02  0.1024070E+00
         21   -1    0    0  502  501  0.00000000000E+00  0.00000000000E+00  0.25112882757E+03  0.25112882757E+03  0.00000000000E+00 0.  1.
         21   -1    0    0  501  502 -0.00000000000E+00 -0.00000000000E+00 -0.21290839643E+03  0.21290839643E+03  0.00000000000E+00 0.  1.
      99926    2    1    2    0    0 -0.71054273576E-14  0.35527136788E-14  0.38220431133E+02  0.46403722400E+03  0.46246053227E+03 0.  0.
      99925    2    3    3    0    0  0.41080680123E+02 -0.42379743969E+01 -0.89125972607E+02  0.28081550763E+03  0.26307475672E+03 0.  0.
         25    1    4    4    0    0  0.41267628108E+02 -0.37177365310E+02 -0.42490712706E+02  0.14331134773E+03  0.12509000000E+03 0.  0.
         25    1    4    4    0    0 -0.18694798480E+00  0.32939390913E+02 -0.46635259901E+02  0.13750415990E+03  0.12509000000E+03 0.  0.
         25    1    3    3    0    0 -0.41080680123E+02  0.42379743969E+01  0.12734640374E+03  0.18322171638E+03  0.12509000000E+03 0.  0.
<mgrwt>
<rscale>  2 0.46246053E+03</rscale>
<asrwt>0</asrwt>
<pdfrwt beam="1">  1       21 0.36930710E-01 0.46246053E+03</pdfrwt>
<pdfrwt beam="2">  1       21 0.31310058E-01 0.46246053E+03</pdfrwt>
<totfact> 0.63993838E+04</totfact>
</mgrwt>
</event>
<event>
 7    0  0.4752811E-002  0.4546686E+03  0.7546771E-02  0.1026339E+00
         21   -1    0    0  502  501  0.00000000000E+00  0.00000000000E+00  0.12378610550E+03  0.12378610550E+03  0.00000000000E+00 0.  1.
         21   -1    0    0  501  502 -0.00000000000E+00 -0.00000000000E+00 -0.41750142164E+03  0.41750142164E+03  0.00000000000E+00 0.  1.
      99926    2    1    2    0    0  0.00000000000E+00 -0.14210854715E-13 -0.29371531614E+03  0.54128752714E+03  0.45466856071E+03 0.  0.
      99925    2    3    3    0    0 -0.35372286163E+02 -0.10033145677E+03 -0.22949570372E+03  0.36496604074E+03  0.26308617034E+03 0.  0.
         25    1    4    4    0    0 -0.60021982194E+01 -0.77599980019E+02 -0.84253874198E+02  0.16971743193E+03  0.12509000000E+03 0.  0.
         25    1    3    3    0    0  0.35372286163E+02  0.10033145677E+03 -0.64219612421E+02  0.17632148640E+03  0.12509000000E+03 0.  0.
         25    1    4    4    0    0 -0.29370087944E+02 -0.22731476752E+02 -0.14524182952E+03  0.19524860882E+03  0.12509000000E+03 0.  0.
<mgrwt>
<rscale>  2 0.45466856E+03</rscale>
<asrwt>0</asrwt>
<pdfrwt beam="1">  1       21 0.18203839E-01 0.45466856E+03</pdfrwt>
<pdfrwt beam="2">  1       21 0.61397268E-01 0.45466856E+03</pdfrwt>
<totfact> 0.62609995E+04</totfact>
</mgrwt>
</event>
<event>
 7    0  0.4752811E-002  0.4530370E+03  0.7546771E-02  0.1026820E+00
         21   -1    0    0  502  501  0.00000000000E+00  0.00000000000E+00  0.99006742159E+03  0.99006742159E+03  0.00000000000E+00 0. -1.
         21   -1    0    0  501  502 -0.00000000000E+00 -0.00000000000E+00 -0.51825394100E+02  0.51825394100E+02  0.00000000000E+00 0. -1.
      99926    2    1    2    0    0 -0.14210854715E-13  0.00000000000E+00  0.93824202749E+03  0.10418928157E+04  0.45303701531E+03 0.  0.
      99925    2    3    3    0    0 -0.74640130343E+02  0.65053970041E+02  0.70678663608E+03  0.76078380768E+03  0.26351752314E+03 0.  0.
         25    1    3    3    0    0  0.74640130343E+02 -0.65053970041E+02  0.23145539141E+03  0.28110900801E+03  0.12509000000E+03 0.  0.
         25    1    4    4    0    0 -0.10164691992E+02  0.21632785377E+02  0.24564318081E+03  0.27669365505E+03  0.12509000000E+03 0.  0.
         25    1    4    4    0    0 -0.64475438351E+02  0.43421184664E+02  0.46114345527E+03  0.48409015263E+03  0.12509000000E+03 0.  0.
<mgrwt>
<rscale>  2 0.45303702E+03</rscale>
<asrwt>0</asrwt>
<pdfrwt beam="1">  1       21 0.14559814E+00 0.45303702E+03</pdfrwt>
<pdfrwt beam="2">  1       21 0.76213821E-02 0.45303702E+03</pdfrwt>
<totfact> 0.38157622E+04</totfact>
</mgrwt>
</event>
<event>
 7    0  0.4752811E-002  0.4560310E+03  0.7546771E-02  0.1025939E+00
         21   -1    0    0  502  501  0.00000000000E+00  0.00000000000E+00  0.50509041516E+02  0.50509041516E+02  0.00000000000E+00 0. -1.
         21   -1    0    0  501  502 -0.00000000000E+00 -0.00000000000E+00 -0.10293420311E+04  0.10293420311E+04  0.00000000000E+00 0. -1.
      99926    2    1    2    0    0  0.17763568394E-14  0.00000000000E+00 -0.97883298955E+03  0.10798510726E+04  0.45603104886E+03 0.  0.
      99925    2    3    3    0    0 -0.10410128235E+02  0.11288733489E+03 -0.64828179711E+03  0.70868598792E+03  0.26289659538E+03 0.  0.
         25    1    4    4    0    0  0.17481979957E+02  0.68005153181E+02 -0.41074418126E+03  0.43507310998E+03  0.12509000000E+03 0.  0.
         25    1    4    4    0    0 -0.27892108193E+02  0.44882181708E+02 -0.23753761585E+03  0.27361287795E+03  0.12509000000E+03 0.  0.
         25    1    3    3    0    0  0.10410128235E+02 -0.11288733489E+03 -0.33055119243E+03  0.37116508465E+03  0.12509000000E+03 0.  0.
<mgrwt>
<rscale>  2 0.45603105E+03</rscale>
<asrwt>0</asrwt>
<pdfrwt beam="1">  1       21 0.74278014E-02 0.45603105E+03</pdfrwt>
<pdfrwt beam="2">  1       21 0.15137380E+00 0.45603105E+03</pdfrwt>
<totfact> 0.35910990E+04</totfact>
</mgrwt>
</event>
<event>
 7    0  0.4752811E-002  0.4589296E+03  0.7546771E-02  0.1025092E+00
         21   -1    0    0  502  501  0.00000000000E+00  0.00000000000E+00  0.11386733531E+04  0.11386733531E+04  0.00000000000E+00 0.  1.
         21   -1    0    0  501  502 -0.00000000000E+00 -0.00000000000E+00 -0.46241613879E+02  0.46241613879E+02  0.00000000000E+00 0.  1.
      99926    2    1    2    0    0  0.00000000000E+00  0.00000000000E+00  0.10924317392E+04  0.11849149669E+04  0.45892959602E+03 0.  0.
      99925    2    3    3    0    0  0.11023216147E+03 -0.37278398342E+02  0.65699039843E+03  0.71715704050E+03  0.26293921106E+03 0.  0.
         25    1    4    4    0    0  0.31481186166E+02 -0.21840129608E+02  0.39304975898E+03  0.41425074228E+03  0.12509000000E+03 0.  0.
         25    1    4    4    0    0  0.78750975305E+02 -0.15438268734E+02  0.26394063945E+03  0.30290629822E+03  0.12509000000E+03 0.  0.
         25    1    3    3    0    0 -0.11023216147E+03  0.37278398342E+02  0.43544134075E+03  0.46775792643E+03  0.12509000000E+03 0.  0.
<mgrwt>
<rscale>  2 0.45892960E+03</rscale>
<asrwt>0</asrwt>
<pdfrwt beam="1">  1       21 0.16745195E+00 0.45892960E+03</pdfrwt>
<pdfrwt beam="2">  1       21 0.68002380E-02 0.45892960E+03</pdfrwt>
<totfact> 0.31657377E+04</totfact>
</mgrwt>
</event>
<event>
 7    0  0.4752811E-002  0.4310823E+03  0.7546771E-02  0.1033519E+00
         21   -1    0    0  502  501  0.00000000000E+00  0.00000000000E+00  0.12502920202E+03  0.12502920202E+03  0.00000000000E+00 0. -1.
         21   -1    0    0  501  502 -0.00000000000E+00 -0.00000000000E+00 -0.37157710673E+03  0.37157710673E+03  0.00000000000E+00 0. -1.
      99926    2    1    2    0    0  0.14210854715E-13  0.88817841970E-15 -0.24654790471E+03  0.49660630874E+03  0.43108230834E+03 0.  0.
      99925    2    3    3    0    0  0.65614797253E+02  0.46053427580E+01 -0.89814656442E+02  0.28556287716E+03  0.26296952961E+03 0.  0.
         25    1    3    3    0    0 -0.65614797253E+02 -0.46053427580E+01 -0.15673324827E+03  0.21104343158E+03  0.12509000000E+03 0.  0.
         25    1    4    4    0    0  0.65051415142E+02  0.25298485876E+02 -0.35183963012E+02  0.14750294693E+03  0.12509000000E+03 0.  0.
         25    1    4    4    0    0  0.56338211106E+00 -0.20693143118E+02 -0.54630693430E+02  0.13805993023E+03  0.12509000000E+03 0.  0.
<mgrwt>
<rscale>  2 0.43108231E+03</rscale>
<asrwt>0</asrwt>
<pdfrwt beam="1">  1       21 0.18386647E-01 0.43108231E+03</pdfrwt>
<pdfrwt beam="2">  1       21 0.54643693E-01 0.43108231E+03</pdfrwt>
<totfact> 0.79572521E+04</totfact>
</mgrwt>
</event>
<event>
 7    0  0.4752811E-002  0.4545007E+03  0.7546771E-02  0.1026388E+00
         21   -1    0    0  502  501  0.00000000000E+00  0.00000000000E+00  0.23645397009E+03  0.23645397009E+03  0.00000000000E+00 0.  1.
         21   -1    0    0  501  502 -0.00000000000E+00 -0.00000000000E+00 -0.21840495593E+03  0.21840495593E+03  0.00000000000E+00 0.  1.
      99926    2    1    2    0    0  0.00000000000E+00  0.00000000000E+00  0.18049014164E+02  0.45485892602E+03  0.45450068830E+03 0.  0.
      99925    2    3    3    0    0  0.55544738177E+01 -0.10686267498E+03 -0.24941647283E+02  0.28472313156E+03  0.26266840768E+03 0.  0.
         25    1    4    4    0    0  0.85382690095E+01 -0.89031530049E+02  0.84144094536E+01  0.15400592770E+03  0.12509000000E+03 0.  0.
         25    1    3    3    0    0 -0.55544738177E+01  0.10686267498E+03  0.42990661448E+02  0.17013579446E+03  0.12509000000E+03 0.  0.
         25    1    4    4    0    0 -0.29837951919E+01 -0.17831144933E+02 -0.33356056737E+02  0.13071720386E+03  0.12509000000E+03 0.  0.
<mgrwt>
<rscale>  2 0.45450069E+03</rscale>
<asrwt>0</asrwt>
<pdfrwt beam="1">  1       21 0.34772643E-01 0.45450069E+03</pdfrwt>
<pdfrwt beam="2">  1       21 0.32118376E-01 0.45450069E+03</pdfrwt>
<totfact> 0.68829954E+04</totfact>
</mgrwt>
</event>
<event>
 7    0  0.4752811E-002  0.4511902E+03  0.7546771E-02  0.1027368E+00
         21   -1    0    0  502  501  0.00000000000E+00  0.00000000000E+00  0.52792574726E+03  0.52792574726E+03  0.00000000000E+00 0.  1.
         21   -1    0    0  501  502 -0.00000000000E+00 -0.00000000000E+00 -0.96402091859E+02  0.96402091859E+02  0.00000000000E+00 0.  1.
      99926    2    1    2    0    0  0.00000000000E+00 -0.35527136788E-14  0.43152365540E+03  0.62432783912E+03  0.45119018776E+03 0.  0.
      99925    2    3    3    0    0 -0.57068278828E+02  0.27319573949E+02  0.39628732480E+03  0.47978630646E+03  0.26296027932E+03 0.  0.
         25    1    4    4    0    0 -0.16497269006E+02  0.29002717906E+02  0.25966662012E+03  0.29015095939E+03  0.12509000000E+03 0.  0.
         25    1    3    3    0    0  0.57068278828E+02 -0.27319573949E+02  0.35236330602E+02  0.14454153266E+03  0.12509000000E+03 0.  0.
         25    1    4    4    0    0 -0.40571009822E+02 -0.16831439579E+01  0.13662070469E+03  0.18963534708E+03  0.12509000000E+03 0.  0.
<mgrwt>
<rscale>  2 0.45119019E+03</rscale>
<asrwt>0</asrwt>
<pdfrwt beam="1">  1       21 0.77636138E-01 0.45119019E+03</pdfrwt>
<pdfrwt beam="2">  1       21 0.14176778E-01 0.45119019E+03</pdfrwt>
<totfact> 0.58958803E+04</totfact>
</mgrwt>
</event>
<event>
 7    0  0.4752811E-002  0.4508617E+03  0.7546771E-02  0.1027465E+00
         21   -1    0    0  502  501  0.00000000000E+00  0.00000000000E+00  0.66502004615E+02  0.66502004615E+02  0.00000000000E+00 0. -1.
         21   -1    0    0  501  502 -0.00000000000E+00 -0.00000000000E+00 -0.76417335579E+03  0.76417335579E+03  0.00000000000E+00 0. -1.
      99926    2    1    2    0    0  0.00000000000E+00  0.17763568394E-14 -0.69767135118E+03  0.83067536041E+03  0.45086166408E+03 0.  0.
      99925    2    3    3    0    0 -0.97183264102E+02 -0.10116163282E+02 -0.34991652329E+03  0.44840863154E+03  0.26283417583E+03 0.  0.
         25    1    3    3    0    0  0.97183264102E+02  0.10116163282E+02 -0.34775482789E+03  0.38226672887E+03  0.12509000000E+03 0.  0.
         25    1    4    4    0    0 -0.30537547304E+02 -0.25493556229E+02 -0.11983430850E+03  0.17773641382E+03  0.12509000000E+03 0.  0.
         25    1    4    4    0    0 -0.66645716798E+02  0.15377392947E+02 -0.23008221479E+03  0.27067221772E+03  0.12509000000E+03 0.  0.
<mgrwt>
<rscale>  2 0.45086166E+03</rscale>
<asrwt>0</asrwt>
<pdfrwt beam="1">  1       21 0.97797073E-02 0.45086166E+03</pdfrwt>
<pdfrwt beam="2">  1       21 0.11237843E+00 0.45086166E+03</pdfrwt>
<totfact> 0.47851487E+04</totfact>
</mgrwt>
</event>
<event>
 7    0  0.4752811E-002  0.4580511E+03  0.7546771E-02  0.1025348E+00
         21   -1    0    0  502  501  0.00000000000E+00  0.00000000000E+00  0.74928064942E+03  0.74928064942E+03  0.00000000000E+00 0.  1.
         21   -1    0    0  501  502 -0.00000000000E+00 -0.00000000000E+00 -0.70004073883E+02  0.70004073883E+02  0.00000000000E+00 0.  1.
      99926    2    1    2    0    0  0.00000000000E+00  0.00000000000E+00  0.67927657553E+03  0.81928472330E+03  0.45805107986E+03 0.  0.
      99925    2    3    3    0    0  0.10565661680E+03 -0.15598739998E+02  0.34540567496E+03  0.44709669594E+03  0.26302800965E+03 0.  0.
         25    1    4    4    0    0  0.65365079491E+02 -0.25056009009E+02  0.12441169349E+03  0.18980562368E+03  0.12509000000E+03 0.  0.
         25    1    4    4    0    0  0.40291537310E+02  0.94572690110E+01  0.22099398147E+03  0.25729107226E+03  0.12509000000E+03 0.  0.
         25    1    3    3    0    0 -0.10565661680E+03  0.15598739998E+02  0.33387090057E+03  0.37218802736E+03  0.12509000000E+03 0.  0.
<mgrwt>
<rscale>  2 0.45805108E+03</rscale>
<asrwt>0</asrwt>
<pdfrwt beam="1">  1       21 0.11018833E+00 0.45805108E+03</pdfrwt>
<pdfrwt beam="2">  1       21 0.10294717E-01 0.45805108E+03</pdfrwt>
<totfact> 0.45741183E+04</totfact>
</mgrwt>
</event>
<event>
 7    0  0.4752811E-002  0.4528019E+03  0.7546771E-02  0.1026890E+00
         21   -1    0    0  502  501  0.00000000000E+00  0.00000000000E+00  0.10569167386E+03  0.10569167386E+03  0.00000000000E+00 0.  1.
         21   -1    0    0  501  502 -0.00000000000E+00 -0.00000000000E+00 -0.48497098574E+03  0.48497098574E+03  0.00000000000E+00 0.  1.
      99926    2    1    2    0    0  0.17763568394E-14  0.00000000000E+00 -0.37927931188E+03  0.59066265960E+03  0.45280192250E+03 0.  0.
      99925    2    3    3    0    0  0.11766587379E+02 -0.10797213143E+03 -0.26944858379E+03  0.39189965833E+03  0.26303301911E+03 0.  0.
         25    1    4    4    0    0  0.45026375975E+02 -0.53200478062E+02 -0.15093599217E+03  0.20805491398E+03  0.12509000000E+03 0.  0.
         25    1    4    4    0    0 -0.33259788596E+02 -0.54771653363E+02 -0.11851259162E+03  0.18384474434E+03  0.12509000000E+03 0.  0.
         25    1    3    3    0    0 -0.11766587379E+02  0.10797213143E+03 -0.10983072809E+03  0.19876300128E+03  0.12509000000E+03 0.  0.
<mgrwt>
<rscale>  2 0.45280192E+03</rscale>
<asrwt>0</asrwt>
<pdfrwt beam="1">  1       21 0.15542894E-01 0.45280192E+03</pdfrwt>
<pdfrwt beam="2">  1       21 0.71319261E-01 0.45280192E+03</pdfrwt>
<totfact> 0.60297399E+04</totfact>
</mgrwt>
</event>
<event>
 7    0  0.4752811E-002  0.4903301E+03  0.7546771E-02  0.1016334E+00
         21   -1    0    0  502  501  0.00000000000E+00  0.00000000000E+00  0.25225560278E+02  0.25225560278E+02  0.00000000000E+00 0.  1.
         21   -1    0    0  501  502 -0.00000000000E+00 -0.00000000000E+00 -0.23827384773E+04  0.23827384773E+04  0.00000000000E+00 0.  1.
      99926    2    1    2    0    0  0.00000000000E+00  0.00000000000E+00 -0.23575129171E+04  0.24079640376E+04  0.49033014627E+03 0.  0.
      99925    2    3    3    0    0  0.61864853928E+02 -0.10585922181E+03 -0.18100352361E+04  0.18331486288E+04  0.26300742242E+03 0.  0.
         25    1    4    4    0    0  0.44156618215E+02 -0.27646680090E+02 -0.67846105996E+03  0.69186058121E+03  0.12509000000E+03 0.  0.
         25    1    4    4    0    0  0.17708235712E+02 -0.78212541720E+02 -0.11315741762E+04  0.11412880476E+04  0.12509000000E+03 0.  0.
         25    1    3    3    0    0 -0.61864853928E+02  0.10585922181E+03 -0.54747768091E+03  0.57481540879E+03  0.12509000000E+03 0.  0.
<mgrwt>
<rscale>  2 0.49033015E+03</rscale>
<asrwt>0</asrwt>
<pdfrwt beam="1">  1       21 0.37096442E-02 0.49033015E+03</pdfrwt>
<pdfrwt beam="2">  1       21 0.35040244E+00 0.49033015E+03</pdfrwt>
<totfact> 0.62265643E+03</totfact>
</mgrwt>
</event>
<event>
 7    0  0.4752811E-002  0.4543151E+03  0.7546771E-02  0.1026443E+00
         21   -1    0    0  502  501  0.00000000000E+00  0.00000000000E+00  0.10439050715E+04  0.10439050715E+04  0.00000000000E+00 0.  1.
         21   -1    0    0  501  502 -0.00000000000E+00 -0.00000000000E+00 -0.49430301722E+02  0.49430301722E+02  0.00000000000E+00 0.  1.
      99926    2    1    2    0    0  0.00000000000E+00  0.00000000000E+00  0.99447476982E+03  0.10933353733E+04  0.45431505657E+03 0.  0.
      99925    2    3    3    0    0 -0.87416735917E+02 -0.30160409589E+02  0.47184260477E+03  0.54804350273E+03  0.26299220746E+03 0.  0.
         25    1    4    4    0    0 -0.58534473414E+02  0.58667496012E+01  0.30183486279E+03  0.33198267398E+03  0.12509000000E+03 0.  0.
         25    1    3    3    0    0  0.87416735917E+02  0.30160409589E+02  0.52263216506E+03  0.54529187054E+03  0.12509000000E+03 0.  0.
         25    1    4    4    0    0 -0.28882262503E+02 -0.36027159190E+02  0.17000774198E+03  0.21606082875E+03  0.12509000000E+03 0.  0.
<mgrwt>
<rscale>  2 0.45431506E+03</rscale>
<asrwt>0</asrwt>
<pdfrwt beam="1">  1       21 0.15351544E+00 0.45431506E+03</pdfrwt>
<pdfrwt beam="2">  1       21 0.72691627E-02 0.45431506E+03</pdfrwt>
<totfact> 0.35917771E+04</totfact>
</mgrwt>
</event>
<event>
 7    0  0.4752811E-002  0.4532242E+03  0.7546771E-02  0.1026765E+00
         21   -1    0    0  502  501  0.00000000000E+00  0.00000000000E+00  0.13809775195E+03  0.13809775195E+03  0.00000000000E+00 0.  1.
         21   -1    0    0  501  502 -0.00000000000E+00 -0.00000000000E+00 -0.37186010282E+03  0.37186010282E+03  0.00000000000E+00 0.  1.
      99926    2    1    2    0    0  0.00000000000E+00  0.00000000000E+00 -0.23376235087E+03  0.50995785476E+03  0.45322420164E+03 0.  0.
      99925    2    3    3    0    0  0.75728384545E+02 -0.78357081380E+02 -0.17396644290E+03  0.33361251420E+03  0.26297978239E+03 0.  0.
         25    1    4    4    0    0  0.69588968560E+02 -0.15495771147E+02 -0.77777600190E+02  0.16364475751E+03  0.12509000000E+03 0.  0.
         25    1    4    4    0    0  0.61394159852E+01 -0.62861310233E+02 -0.96188842713E+02  0.16996775669E+03  0.12509000000E+03 0.  0.
         25    1    3    3    0    0 -0.75728384545E+02  0.78357081380E+02 -0.59795907966E+02  0.17634534056E+03  0.12509000000E+03 0.  0.
<mgrwt>
<rscale>  2 0.45322420E+03</rscale>
<asrwt>0</asrwt>
<pdfrwt beam="1">  1       21 0.20308493E-01 0.45322420E+03</pdfrwt>
<pdfrwt beam="2">  1       21 0.54685309E-01 0.45322420E+03</pdfrwt>
<totfact> 0.65494754E+04</totfact>
</mgrwt>
</event>
<event>
 7    0  0.4752811E-002  0.4555953E+03  0.7546771E-02  0.1026067E+00
         21   -1    0    0  502  501  0.00000000000E+00  0.00000000000E+00  0.56129146395E+02  0.56129146395E+02  0.00000000000E+00 0. -1.
         21   -1    0    0  501  502 -0.00000000000E+00 -0.00000000000E+00 -0.92450650699E+03  0.92450650699E+03  0.00000000000E+00 0. -1.
      99926    2    1    2    0    0  0.00000000000E+00  0.00000000000E+00 -0.86837736059E+03  0.98063565338E+03  0.45559526369E+03 0.  0.
      99925    2    3    3    0    0  0.97336257753E+02 -0.57099154727E+02 -0.51611001224E+03  0.59015588008E+03  0.26302045075E+03 0.  0.
         25    1    4    4    0    0  0.80117919365E+02 -0.18436638912E+02 -0.32551648157E+03  0.35828379608E+03  0.12509000000E+03 0.  0.
         25    1    4    4    0    0  0.17218338388E+02 -0.38662515815E+02 -0.19059353067E+03  0.23187208400E+03  0.12509000000E+03 0.  0.
         25    1    3    3    0    0 -0.97336257753E+02  0.57099154727E+02 -0.35226734835E+03  0.39047977330E+03  0.12509000000E+03 0.  0.
<mgrwt>
<rscale>  2 0.45559526E+03</rscale>
<asrwt>0</asrwt>
<pdfrwt beam="1">  1       21 0.82542866E-02 0.45559526E+03</pdfrwt>
<pdfrwt beam="2">  1       21 0.13595683E+00 0.45559526E+03</pdfrwt>
<totfact> 0.39739167E+04</totfact>
</mgrwt>
</event>
<event>
 7    0  0.4752811E-002  0.4537774E+03  0.7546771E-02  0.1026602E+00
         21   -1    0    0  502  501  0.00000000000E+00  0.00000000000E+00  0.48646883635E+03  0.48646883635E+03  0.00000000000E+00 0. -1.
         21   -1    0    0  501  502 -0.00000000000E+00 -0.00000000000E+00 -0.10582069888E+03  0.10582069888E+03  0.00000000000E+00 0. -1.
      99926    2    1    2    0    0  0.71054273576E-14  0.00000000000E+00  0.38064813747E+03  0.59228953523E+03  0.45377735618E+03 0.  0.
      99925    2    3    3    0    0  0.60583788837E+02 -0.80018361102E+02  0.30485141128E+03  0.41490299294E+03  0.26293873243E+03 0.  0.
         25    1    4    4    0    0 -0.19048364277E+01 -0.17819100356E+02  0.16288235336E+03  0.20615362688E+03  0.12509000000E+03 0.  0.
         25    1    4    4    0    0  0.62488625265E+02 -0.62199260747E+02  0.14196905792E+03  0.20874936606E+03  0.12509000000E+03 0.  0.
         25    1    3    3    0    0 -0.60583788837E+02  0.80018361102E+02  0.75796726188E+02  0.17738654229E+03  0.12509000000E+03 0.  0.
<mgrwt>
<rscale>  2 0.45377736E+03</rscale>
<asrwt>0</asrwt>
<pdfrwt beam="1">  1       21 0.71539534E-01 0.45377736E+03</pdfrwt>
<pdfrwt beam="2">  1       21 0.15561868E-01 0.45377736E+03</pdfrwt>
<totfact> 0.59730450E+04</totfact>
</mgrwt>
</event>
<event>
 7    0  0.4752811E-002  0.4604958E+03  0.7546771E-02  0.1024638E+00
         21   -1    0    0  502  501  0.00000000000E+00  0.00000000000E+00  0.76041095432E+02  0.76041095432E+02  0.00000000000E+00 0. -1.
         21   -1    0    0  501  502 -0.00000000000E+00 -0.00000000000E+00 -0.69717697594E+03  0.69717697594E+03  0.00000000000E+00 0. -1.
      99926    2    1    2    0    0  0.00000000000E+00  0.00000000000E+00 -0.62113588050E+03  0.77321807137E+03  0.46049582391E+03 0.  0.
      99925    2    3    3    0    0  0.29485686614E+02 -0.82131988368E+02 -0.25456226721E+03  0.37618055263E+03  0.26285888050E+03 0.  0.
         25    1    3    3    0    0 -0.29485686614E+02  0.82131988368E+02 -0.36657361329E+03  0.39703751874E+03  0.12509000000E+03 0.  0.
         25    1    4    4    0    0  0.40231278526E+02 -0.69809168888E+02 -0.16019950205E+03  0.21863957645E+03  0.12509000000E+03 0.  0.
         25    1    4    4    0    0 -0.10745591912E+02 -0.12322819480E+02 -0.94362765169E+02  0.15754097618E+03  0.12509000000E+03 0.  0.
<mgrwt>
<rscale>  2 0.46049582E+03</rscale>
<asrwt>0</asrwt>
<pdfrwt beam="1">  1       21 0.11182514E-01 0.46049582E+03</pdfrwt>
<pdfrwt beam="2">  1       21 0.10252602E+00 0.46049582E+03</pdfrwt>
<totfact> 0.47025712E+04</totfact>
</mgrwt>
</event>
<event>
 7    0  0.4752811E-002  0.4414830E+03  0.7546771E-02  0.1030293E+00
         21   -1    0    0  502  501  0.00000000000E+00  0.00000000000E+00  0.29827413571E+02  0.29827413571E+02  0.00000000000E+00 0. -1.
         21   -1    0    0  501  502 -0.00000000000E+00 -0.00000000000E+00 -0.16336247617E+04  0.16336247617E+04  0.00000000000E+00 0. -1.
      99926    2    1    2    0    0  0.00000000000E+00  0.00000000000E+00 -0.16037973481E+04  0.16634521753E+04  0.44148296178E+03 0.  0.
      99925    2    3    3    0    0 -0.41533743453E+00 -0.98981839523E+02 -0.10752667644E+04  0.11113745874E+04  0.26297772091E+03 0.  0.
         25    1    4    4    0    0 -0.59695020478E+01 -0.66836635702E+01 -0.48712824891E+03  0.50301266913E+03  0.12509000000E+03 0.  0.
         25    1    4    4    0    0  0.55541646132E+01 -0.92298175952E+02 -0.58813851552E+03  0.60836191824E+03  0.12509000000E+03 0.  0.
         25    1    3    3    0    0  0.41533743453E+00  0.98981839523E+02 -0.52853058368E+03  0.55207758789E+03  0.12509000000E+03 0.  0.
<mgrwt>
<rscale>  2 0.44148296E+03</rscale>
<asrwt>0</asrwt>
<pdfrwt beam="1">  1       21 0.43863854E-02 0.44148296E+03</pdfrwt>
<pdfrwt beam="2">  1       21 0.24023888E+00 0.44148296E+03</pdfrwt>
<totfact> 0.22281581E+04</totfact>
</mgrwt>
</event>
<event>
 7    0  0.4752811E-002  0.4513772E+03  0.7546771E-02  0.1027312E+00
         21   -1    0    0  502  501  0.00000000000E+00  0.00000000000E+00  0.12138867317E+04  0.12138867317E+04  0.00000000000E+00 0.  1.
         21   -1    0    0  501  502 -0.00000000000E+00 -0.00000000000E+00 -0.41960532414E+02  0.41960532414E+02  0.00000000000E+00 0.  1.
      99926    2    1    2    0    0  0.00000000000E+00 -0.44408920985E-15  0.11719261993E+04  0.12558472641E+04  0.45137715295E+03 0.  0.
      99925    2    3    3    0    0 -0.10976877307E+03 -0.24566127290E+01  0.73485813270E+03  0.78816016635E+03  0.26291586892E+03 0.  0.
         25    1    4    4    0    0 -0.26934922875E+02 -0.30122207123E+02  0.37163190933E+03  0.39419617143E+03  0.12509000000E+03 0.  0.
         25    1    3    3    0    0  0.10976877307E+03  0.24566127290E+01  0.43706806655E+03  0.46768709773E+03  0.12509000000E+03 0.  0.
         25    1    4    4    0    0 -0.82833850198E+02  0.27665594394E+02  0.36322622337E+03  0.39396399492E+03  0.12509000000E+03 0.  0.
<mgrwt>
<rscale>  2 0.45137715E+03</rscale>
<asrwt>0</asrwt>
<pdfrwt beam="1">  1       21 0.17851273E+00 0.45137715E+03</pdfrwt>
<pdfrwt beam="2">  1       21 0.61706674E-02 0.45137715E+03</pdfrwt>
<totfact> 0.31297738E+04</totfact>
</mgrwt>
</event>
<event>
 7    0  0.4752811E-002  0.4556933E+03  0.7546771E-02  0.1026038E+00
         21   -1    0    0  502  501  0.00000000000E+00  0.00000000000E+00  0.13883690113E+03  0.13883690113E+03  0.00000000000E+00 0. -1.
         21   -1    0    0  501  502 -0.00000000000E+00 -0.00000000000E+00 -0.37392141374E+03  0.37392141374E+03  0.00000000000E+00 0. -1.
      99926    2    1    2    0    0  0.00000000000E+00  0.00000000000E+00 -0.23508451261E+03  0.51275831487E+03  0.45569327557E+03 0.  0.
      99925    2    3    3    0    0  0.85380197526E+02  0.23977694700E+02 -0.67580733393E+02  0.28566861426E+03  0.26301082425E+03 0.  0.
         25    1    4    4    0    0  0.54778969004E+02  0.27413640250E+02 -0.71951910973E+02  0.15676998664E+03  0.12509000000E+03 0.  0.
         25    1    3    3    0    0 -0.85380197526E+02 -0.23977694700E+02 -0.16750377921E+03  0.22708970061E+03  0.12509000000E+03 0.  0.
         25    1    4    4    0    0  0.30601228522E+02 -0.34359455502E+01  0.43711775801E+01  0.12889862762E+03  0.12509000000E+03 0.  0.
<mgrwt>
<rscale>  2 0.45569328E+03</rscale>
<asrwt>0</asrwt>
<pdfrwt beam="1">  1       21 0.20417192E-01 0.45569328E+03</pdfrwt>
<pdfrwt beam="2">  1       21 0.54988442E-01 0.45569328E+03</pdfrwt>
<totfact> 0.64030329E+04</totfact>
</mgrwt>
</event>
<event>
 7    0  0.4752811E-002  0.4608269E+03  0.7546771E-02  0.1024542E+00
         21   -1    0    0  502  501  0.00000000000E+00  0.00000000000E+00  0.23497745500E+03  0.23497745500E+03  0.00000000000E+00 0.  1.
         21   -1    0    0  501  502 -0.00000000000E+00 -0.00000000000E+00 -0.22593806792E+03  0.22593806792E+03  0.00000000000E+00 0.  1.
      99926    2    1    2    0    0  0.00000000000E+00  0.00000000000E+00  0.90393870864E+01  0.46091552292E+03  0.46082687503E+03 0.  0.
      99925    2    3    3    0    0  0.51215154920E+02  0.33565461448E+02  0.10717771736E+03  0.29053866926E+03  0.26301335126E+03 0.  0.
         25    1    4    4    0    0 -0.11877570507E+00  0.48130761681E+02  0.51360706199E+02  0.14353401886E+03  0.12509000000E+03 0.  0.
         25    1    4    4    0    0  0.51333930625E+02 -0.14565300234E+02  0.55817011162E+02  0.14700465040E+03  0.12509000000E+03 0.  0.
         25    1    3    3    0    0 -0.51215154920E+02 -0.33565461448E+02 -0.98138330275E+02  0.17037685367E+03  0.12509000000E+03 0.  0.
<mgrwt>
<rscale>  2 0.46082688E+03</rscale>
<asrwt>0</asrwt>
<pdfrwt beam="1">  1       21 0.34555508E-01 0.46082688E+03</pdfrwt>
<pdfrwt beam="2">  1       21 0.33226186E-01 0.46082688E+03</pdfrwt>
<totfact> 0.65037820E+04</totfact>
</mgrwt>
</event>
<event>
 7    0  0.4752811E-002  0.4521607E+03  0.7546771E-02  0.1027080E+00
         21   -1    0    0  502  501  0.00000000000E+00  0.00000000000E+00  0.30741518826E+03  0.30741518826E+03  0.00000000000E+00 0.  1.
         21   -1    0    0  501  502 -0.00000000000E+00 -0.00000000000E+00 -0.16626478952E+03  0.16626478952E+03  0.00000000000E+00 0.  1.
      99926    2    1    2    0    0 -0.14210854715E-13  0.00000000000E+00  0.14115039873E+03  0.47367997778E+03  0.45216068636E+03 0.  0.
      99925    2    3    3    0    0 -0.66659973380E+02  0.84461645584E+02  0.11577313018E+03  0.30674036149E+03  0.26288573577E+03 0.  0.
         25    1    4    4    0    0  0.18048067765E+00  0.60800048958E+02  0.42958443745E+02  0.14556652952E+03  0.12509000000E+03 0.  0.
         25    1    4    4    0    0 -0.66840454058E+02  0.23661596626E+02  0.72814686436E+02  0.16117383198E+03  0.12509000000E+03 0.  0.
         25    1    3    3    0    0  0.66659973380E+02 -0.84461645584E+02  0.25377268553E+02  0.16693961628E+03  0.12509000000E+03 0.  0.
<mgrwt>
<rscale>  2 0.45216069E+03</rscale>
<asrwt>0</asrwt>
<pdfrwt beam="1">  1       21 0.45208116E-01 0.45216069E+03</pdfrwt>
<pdfrwt beam="2">  1       21 0.24450704E-01 0.45216069E+03</pdfrwt>
<totfact> 0.68698062E+04</totfact>
</mgrwt>
</event>
<event>
 7    0  0.4752811E-002  0.4555946E+03  0.7546771E-02  0.1026067E+00
         21   -1    0    0  502  501  0.00000000000E+00  0.00000000000E+00  0.53930545232E+03  0.53930545232E+03  0.00000000000E+00 0. -1.
         21   -1    0    0  501  502 -0.00000000000E+00 -0.00000000000E+00 -0.96219311806E+02  0.96219311806E+02  0.00000000000E+00 0. -1.
      99926    2    1    2    0    0  0.00000000000E+00  0.00000000000E+00  0.44308614052E+03  0.63552476413E+03  0.45559455430E+03 0.  0.
      99925    2    3    3    0    0 -0.48001955524E+02 -0.66960590916E+02  0.16929859788E+03  0.32344298787E+03  0.26299323696E+03 0.  0.
         25    1    3    3    0    0  0.48001955524E+02  0.66960590916E+02  0.27378754264E+03  0.31208177626E+03  0.12509000000E+03 0.  0.
         25    1    4    4    0    0 -0.13758451307E+02 -0.52988051907E+02  0.12655936832E+03  0.18617682572E+03  0.12509000000E+03 0.  0.
         25    1    4    4    0    0 -0.34243504216E+02 -0.13972539010E+02  0.42739229564E+02  0.13726616215E+03  0.12509000000E+03 0.  0.
<mgrwt>
<rscale>  2 0.45559455E+03</rscale>
<asrwt>0</asrwt>
<pdfrwt beam="1">  1       21 0.79309624E-01 0.45559455E+03</pdfrwt>
<pdfrwt beam="2">  1       21 0.14149899E-01 0.45559455E+03</pdfrwt>
<totfact> 0.56278648E+04</totfact>
</mgrwt>
</event>
<event>
 7    0  0.4752811E-002  0.4555623E+03  0.7546771E-02  0.1026076E+00
         21   -1    0    0  502  501  0.00000000000E+00  0.00000000000E+00  0.21016903795E+03  0.21016903795E+03  0.00000000000E+00 0. -1.
         21   -1    0    0  501  502 -0.00000000000E+00 -0.00000000000E+00 -0.24686917390E+03  0.24686917390E+03  0.00000000000E+00 0. -1.
      99926    2    1    2    0    0  0.00000000000E+00  0.00000000000E+00 -0.36700135957E+02  0.45703821185E+03  0.45556231968E+03 0.  0.
      99925    2    3    3    0    0  0.62049284613E+02  0.80781934405E+02  0.27623938355E+02  0.28336918961E+03  0.26298133205E+03 0.  0.
         25    1    4    4    0    0  0.48261398221E+02  0.12173150944E+02  0.37324687743E+02  0.13970679503E+03  0.12509000000E+03 0.  0.
         25    1    3    3    0    0 -0.62049284613E+02 -0.80781934405E+02 -0.64324074312E+02  0.17366902223E+03  0.12509000000E+03 0.  0.
         25    1    4    4    0    0  0.13787886392E+02  0.68608783461E+02 -0.97007493879E+01  0.14366239458E+03  0.12509000000E+03 0.  0.
<mgrwt>
<rscale>  2 0.45556232E+03</rscale>
<asrwt>0</asrwt>
<pdfrwt beam="1">  1       21 0.30907212E-01 0.45556232E+03</pdfrwt>
<pdfrwt beam="2">  1       21 0.36304290E-01 0.45556232E+03</pdfrwt>
<totfact> 0.68090756E+04</totfact>
</mgrwt>
</event>
<event>
 7    0  0.4752811E-002  0.4521372E+03  0.7546771E-02  0.1027087E+00
         21   -1    0    0  502  501  0.00000000000E+00  0.00000000000E+00  0.79139683664E+02  0.79139683664E+02  0.00000000000E+00 0.  1.
         21   -1    0    0  501  502 -0.00000000000E+00 -0.00000000000E+00 -0.64578227383E+03  0.64578227383E+03  0.00000000000E+00 0.  1.
      99926    2    1    2    0    0  0.00000000000E+00  0.00000000000E+00 -0.56664259017E+03  0.72492195750E+03  0.45213716886E+03 0.  0.
      99925    2    3    3    0    0 -0.16949456877E+02  0.79276831346E+02 -0.23634628645E+03  0.36254748761E+03  0.26269566722E+03 0.  0.
         25    1    3    3    0    0  0.16949456877E+02 -0.79276831346E+02 -0.33029630372E+03  0.36237446989E+03  0.12509000000E+03 0.  0.
         25    1    4    4    0    0 -0.41819457573E+02  0.53704070965E+02 -0.14746988354E+03  0.20500699725E+03  0.12509000000E+03 0.  0.
         25    1    4    4    0    0  0.24870000696E+02  0.25572760380E+02 -0.88876402907E+02  0.15754049036E+03  0.12509000000E+03 0.  0.
<mgrwt>
<rscale>  2 0.45213717E+03</rscale>
<asrwt>0</asrwt>
<pdfrwt beam="1">  1       21 0.11638189E-01 0.45213717E+03</pdfrwt>
<pdfrwt beam="2">  1       21 0.94967980E-01 0.45213717E+03</pdfrwt>
<totfact> 0.52748324E+04</totfact>
</mgrwt>
</event>
<event>
 7    0  0.4752811E-002  0.4541989E+03  0.7546771E-02  0.1026477E+00
         21   -1    0    0  502  501  0.00000000000E+00  0.00000000000E+00  0.45982923616E+03  0.45982923616E+03  0.00000000000E+00 0.  1.
         21   -1    0    0  501  502 -0.00000000000E+00 -0.00000000000E+00 -0.11215937407E+03  0.11215937407E+03  0.00000000000E+00 0.  1.
      99926    2    1    2    0    0  0.00000000000E+00 -0.17763568394E-14  0.34766986209E+03  0.57198861023E+03  0.45419889611E+03 0.  0.
      99925    2    3    3    0    0  0.10980468611E+03 -0.10375535380E+02  0.24621849729E+03  0.37678459299E+03  0.26301779461E+03 0.  0.
         25    1    4    4    0    0  0.41248487463E+02 -0.42307166652E+02  0.13281930678E+03  0.19178063099E+03  0.12509000000E+03 0.  0.
         25    1    3    3    0    0 -0.10980468611E+03  0.10375535380E+02  0.10145136480E+03  0.19520401724E+03  0.12509000000E+03 0.  0.
         25    1    4    4    0    0  0.68556198646E+02  0.31931631272E+02  0.11339919051E+03  0.18500396200E+03  0.12509000000E+03 0.  0.
<mgrwt>
<rscale>  2 0.45419890E+03</rscale>
<asrwt>0</asrwt>
<pdfrwt beam="1">  1       21 0.67621946E-01 0.45419890E+03</pdfrwt>
<pdfrwt beam="2">  1       21 0.16494026E-01 0.45419890E+03</pdfrwt>
<totfact> 0.60820807E+04</totfact>
</mgrwt>
</event>
<event>
 7    0  0.4752811E-002  0.4302330E+03  0.7546771E-02  0.1033786E+00
         21   -1    0    0  502  501  0.00000000000E+00  0.00000000000E+00  0.21313846189E+03  0.21313846189E+03  0.00000000000E+00 0.  1.
         21   -1    0    0  501  502 -0.00000000000E+00 -0.00000000000E+00 -0.21711291239E+03  0.21711291239E+03  0.00000000000E+00 0.  1.
      99926    2    1    2    0    0  0.00000000000E+00  0.00000000000E+00 -0.39744505075E+01  0.43025137428E+03  0.43023301688E+03 0.  0.
      99925    2    3    3    0    0  0.86642537624E+02  0.15179420372E+02  0.59635593182E+00  0.27726201354E+03  0.26293825203E+03 0.  0.
         25    1    3    3    0    0 -0.86642537624E+02 -0.15179420372E+02 -0.45708064393E+01  0.15298936074E+03  0.12509000000E+03 0.  0.
         25    1    4    4    0    0  0.40431986999E+02 -0.29646500131E+02 -0.15531964743E+02  0.13565548486E+03  0.12509000000E+03 0.  0.
         25    1    4    4    0    0  0.46210550625E+02  0.44825920504E+02  0.16128320675E+02  0.14160652868E+03  0.12509000000E+03 0.  0.
<mgrwt>
<rscale>  2 0.43023302E+03</rscale>
<asrwt>0</asrwt>
<pdfrwt beam="1">  1       21 0.31343891E-01 0.43023302E+03</pdfrwt>
<pdfrwt beam="2">  1       21 0.31928369E-01 0.43023302E+03</pdfrwt>
<totfact> 0.86217443E+04</totfact>
</mgrwt>
</event>
<event>
 7    0  0.4752811E-002  0.4567456E+03  0.7546771E-02  0.1025729E+00
         21   -1    0    0  502  501  0.00000000000E+00  0.00000000000E+00  0.10664587745E+04  0.10664587745E+04  0.00000000000E+00 0.  1.
         21   -1    0    0  501  502 -0.00000000000E+00 -0.00000000000E+00 -0.48904031338E+02  0.48904031338E+02  0.00000000000E+00 0.  1.
      99926    2    1    2    0    0  0.00000000000E+00  0.00000000000E+00  0.10175547431E+04  0.11153628058E+04  0.45674558926E+03 0.  0.
      99925    2    3    3    0    0  0.32652769349E+02  0.13324155939E+02  0.37250102875E+03  0.45734643898E+03  0.26299241880E+03 0.  0.
         25    1    4    4    0    0  0.49942487176E+02  0.39342555289E+01  0.23125445972E+03  0.26764876916E+03  0.12509000000E+03 0.  0.
         25    1    4    4    0    0 -0.17289717826E+02  0.93899004100E+01  0.14124656903E+03  0.18969766982E+03  0.12509000000E+03 0.  0.
         25    1    3    3    0    0 -0.32652769349E+02 -0.13324155939E+02  0.64505371440E+03  0.65801636684E+03  0.12509000000E+03 0.  0.
<mgrwt>
<rscale>  2 0.45674559E+03</rscale>
<asrwt>0</asrwt>
<pdfrwt beam="1">  1       21 0.15683216E+00 0.45674559E+03</pdfrwt>
<pdfrwt beam="2">  1       21 0.71917700E-02 0.45674559E+03</pdfrwt>
<totfact> 0.34488286E+04</totfact>
</mgrwt>
</event>
<event>
 7    0  0.4752811E-002  0.4454789E+03  0.7546771E-02  0.1029079E+00
         21   -1    0    0  502  501  0.00000000000E+00  0.00000000000E+00  0.40171364537E+03  0.40171364537E+03  0.00000000000E+00 0. -1.
         21   -1    0    0  501  502 -0.00000000000E+00 -0.00000000000E+00 -0.12350305979E+03  0.12350305979E+03  0.00000000000E+00 0. -1.
      99926    2    1    2    0    0  0.00000000000E+00  0.00000000000E+00  0.27821058558E+03  0.52521670516E+03  0.44547890797E+03 0.  0.
      99925    2    3    3    0    0  0.77300928190E+02 -0.53475827387E+02  0.22883511508E+03  0.36114189661E+03  0.26310237927E+03 0.  0.
         25    1    3    3    0    0 -0.77300928190E+02  0.53475827387E+02  0.49375470499E+02  0.16407480855E+03  0.12509000000E+03 0.  0.
         25    1    4    4    0    0  0.42417953594E+02 -0.16214873035E+02  0.62990975120E+02  0.14723306674E+03  0.12509000000E+03 0.  0.
         25    1    4    4    0    0  0.34882974596E+02 -0.37260954352E+02  0.16584413996E+03  0.21390882987E+03  0.12509000000E+03 0.  0.
<mgrwt>
<rscale>  2 0.44547891E+03</rscale>
<asrwt>0</asrwt>
<pdfrwt beam="1">  1       21 0.59075536E-01 0.44547891E+03</pdfrwt>
<pdfrwt beam="2">  1       21 0.18162215E-01 0.44547891E+03</pdfrwt>
<totfact> 0.68557864E+04</totfact>
</mgrwt>
</event>
<event>
 7    0  0.4752811E-002  0.4347408E+03  0.7546771E-02  0.1032373E+00
         21   -1    0    0  502  501  0.00000000000E+00  0.00000000000E+00  0.27556512109E+03  0.27556512109E+03  0.00000000000E+00 0.  1.
         21   -1    0    0  501  502 -0.00000000000E+00 -0.00000000000E+00 -0.17146543047E+03  0.17146543047E+03  0.00000000000E+00 0.  1.
      99926    2    1    2    0    0  0.71054273576E-14  0.00000000000E+00  0.10409969062E+03  0.44703055156E+03  0.43474080604E+03 0.  0.
      99925    2    3    3    0    0 -0.45959687514E+02 -0.27212562677E+02 -0.13268512856E+02  0.26737638453E+03  0.26165102928E+03 0.  0.
         25    1    4    4    0    0 -0.32375393748E+02 -0.30110317851E+02  0.26680037416E+02  0.13532970797E+03  0.12509000000E+03 0.  0.
         25    1    3    3    0    0  0.45959687514E+02  0.27212562677E+02  0.11736820348E+03  0.17965416703E+03  0.12509000000E+03 0.  0.
         25    1    4    4    0    0 -0.13584293766E+02  0.28977551735E+01 -0.39948550272E+02  0.13204667656E+03  0.12509000000E+03 0.  0.
<mgrwt>
<rscale>  2 0.43474081E+03</rscale>
<asrwt>0</asrwt>
<pdfrwt beam="1">  1       21 0.40524283E-01 0.43474081E+03</pdfrwt>
<pdfrwt beam="2">  1       21 0.25215504E-01 0.43474081E+03</pdfrwt>
<totfact> 0.81514916E+04</totfact>
</mgrwt>
</event>
<event>
 7    0  0.4752811E-002  0.4426893E+03  0.7546771E-02  0.1029925E+00
         21   -1    0    0  502  501  0.00000000000E+00  0.00000000000E+00  0.26773015674E+02  0.26773015674E+02  0.00000000000E+00 0.  1.
         21   -1    0    0  501  502 -0.00000000000E+00 -0.00000000000E+00 -0.18299564155E+04  0.18299564155E+04  0.00000000000E+00 0.  1.
      99926    2    1    2    0    0 -0.14210854715E-13  0.88817841970E-15 -0.18031833998E+04  0.18567294312E+04  0.44268928966E+03 0.  0.
      99925    2    3    3    0    0 -0.91068337067E+02  0.70756459215E+01 -0.96603385323E+03  0.10053714699E+04  0.26307200553E+03 0.  0.
         25    1    4    4    0    0 -0.85147104186E+02  0.15412478847E+02 -0.48949618716E+03  0.51258326075E+03  0.12509000000E+03 0.  0.
         25    1    4    4    0    0 -0.59212328815E+01 -0.83368329259E+01 -0.47653766607E+03  0.49278820914E+03  0.12509000000E+03 0.  0.
         25    1    3    3    0    0  0.91068337067E+02 -0.70756459215E+01 -0.83714954659E+03  0.85135796128E+03  0.12509000000E+03 0.  0.
<mgrwt>
<rscale>  2 0.44268929E+03</rscale>
<asrwt>0</asrwt>
<pdfrwt beam="1">  1       21 0.39372089E-02 0.44268929E+03</pdfrwt>
<pdfrwt beam="2">  1       21 0.26911119E+00 0.44268929E+03</pdfrwt>
<totfact> 0.17837551E+04</totfact>
</mgrwt>
</event>
<event>
 7    0  0.4752811E-002  0.4592444E+03  0.7546771E-02  0.1025001E+00
         21   -1    0    0  502  501  0.00000000000E+00  0.00000000000E+00  0.47613874128E+03  0.47613874128E+03  0.00000000000E+00 0. -1.
         21   -1    0    0  501  502 -0.00000000000E+00 -0.00000000000E+00 -0.11073739972E+03  0.11073739972E+03  0.00000000000E+00 0. -1.
      99926    2    1    2    0    0  0.00000000000E+00  0.00000000000E+00  0.36540134156E+03  0.58687614101E+03  0.45924444957E+03 0.  0.
      99925    2    3    3    0    0  0.82088070903E+02  0.76561236408E+02  0.18786761392E+03  0.34240567887E+03  0.26333882026E+03 0.  0.
         25    1    4    4    0    0  0.77173472720E+02  0.31024087731E+02  0.12344799896E+03  0.19443547891E+03  0.12509000000E+03 0.  0.
         25    1    3    3    0    0 -0.82088070903E+02 -0.76561236408E+02  0.17753372765E+03  0.24447046214E+03  0.12509000000E+03 0.  0.
         25    1    4    4    0    0  0.49145981836E+01  0.45537148677E+02  0.64419614954E+02  0.14797019996E+03  0.12509000000E+03 0.  0.
<mgrwt>
<rscale>  2 0.45924445E+03</rscale>
<asrwt>0</asrwt>
<pdfrwt beam="1">  1       21 0.70020402E-01 0.45924445E+03</pdfrwt>
<pdfrwt beam="2">  1       21 0.16284912E-01 0.45924445E+03</pdfrwt>
<totfact> 0.57538603E+04</totfact>
</mgrwt>
</event>
<event>
 7    0  0.4752811E-002  0.4551776E+03  0.7546771E-02  0.1026189E+00
         21   -1    0    0  502  501  0.00000000000E+00  0.00000000000E+00  0.49721422352E+02  0.49721422352E+02  0.00000000000E+00 0. -1.
         21   -1    0    0  501  502 -0.00000000000E+00 -0.00000000000E+00 -0.10417371836E+04  0.10417371836E+04  0.00000000000E+00 0. -1.
      99926    2    1    2    0    0  0.00000000000E+00  0.00000000000E+00 -0.99201576127E+03  0.10914586060E+04  0.45517756749E+03 0.  0.
      99925    2    3    3    0    0 -0.43862271668E+02 -0.93166331698E+02 -0.50906976658E+03  0.58205875701E+03  0.26274798786E+03 0.  0.
         25    1    3    3    0    0  0.43862271668E+02  0.93166331698E+02 -0.48294599469E+03  0.50939984897E+03  0.12509000000E+03 0.  0.
         25    1    4    4    0    0 -0.43467522653E+02 -0.62481632619E+02 -0.33424282755E+03  0.36490979133E+03  0.12509000000E+03 0.  0.
         25    1    4    4    0    0 -0.39474901544E+00 -0.30684699079E+02 -0.17482693903E+03  0.21714896568E+03  0.12509000000E+03 0.  0.
<mgrwt>
<rscale>  2 0.45517757E+03</rscale>
<asrwt>0</asrwt>
<pdfrwt beam="1">  1       21 0.73119738E-02 0.45517757E+03</pdfrwt>
<pdfrwt beam="2">  1       21 0.15319665E+00 0.45517757E+03</pdfrwt>
<totfact> 0.35742306E+04</totfact>
</mgrwt>
</event>
<event>
 7    0  0.4752811E-002  0.4383348E+03  0.7546771E-02  0.1031259E+00
         21   -1    0    0  502  501  0.00000000000E+00  0.00000000000E+00  0.19770506204E+03  0.19770506204E+03  0.00000000000E+00 0.  1.
         21   -1    0    0  501  502 -0.00000000000E+00 -0.00000000000E+00 -0.24295960491E+03  0.24295960491E+03  0.00000000000E+00 0.  1.
      99926    2    1    2    0    0  0.00000000000E+00 -0.17763568394E-14 -0.45254542874E+02  0.44066466695E+03  0.43833477509E+03 0.  0.
      99925    2    3    3    0    0  0.17405898094E+02  0.23459969725E+01  0.66675094104E+02  0.27189197744E+03  0.26300420193E+03 0.  0.
         25    1    3    3    0    0 -0.17405898094E+02 -0.23459969725E+01 -0.11192963698E+03  0.16877268951E+03  0.12509000000E+03 0.  0.
         25    1    4    4    0    0  0.39327754889E+02 -0.23143179875E+02  0.22523137028E+02  0.13504472919E+03  0.12509000000E+03 0.  0.
         25    1    4    4    0    0 -0.21921856795E+02  0.25489176848E+02  0.44151957076E+02  0.13684724826E+03  0.12509000000E+03 0.  0.
<mgrwt>
<rscale>  2 0.43833478E+03</rscale>
<asrwt>0</asrwt>
<pdfrwt beam="1">  1       21 0.29074274E-01 0.43833478E+03</pdfrwt>
<pdfrwt beam="2">  1       21 0.35729353E-01 0.43833478E+03</pdfrwt>
<totfact> 0.79689252E+04</totfact>
</mgrwt>
</event>
<event>
 7    0  0.4752811E-002  0.4478233E+03  0.7546771E-02  0.1028373E+00
         21   -1    0    0  502  501  0.00000000000E+00  0.00000000000E+00  0.24627813242E+02  0.24627813242E+02  0.00000000000E+00 0. -1.
         21   -1    0    0  501  502 -0.00000000000E+00 -0.00000000000E+00 -0.20357644786E+04  0.20357644786E+04  0.00000000000E+00 0. -1.
      99926    2    1    2    0    0 -0.14210854715E-13  0.00000000000E+00 -0.20111366653E+04  0.20603922918E+04  0.44782330168E+03 0.  0.
      99925    2    3    3    0    0 -0.77630729804E+02  0.69320813539E+02 -0.11761178107E+04  0.12096656018E+04  0.26307006320E+03 0.  0.
         25    1    4    4    0    0 -0.79011322976E+02  0.37918891554E+02 -0.58188820234E+03  0.60159955088E+03  0.12509000000E+03 0.  0.
         25    1    3    3    0    0  0.77630729804E+02 -0.69320813539E+02 -0.83501885465E+03  0.85072669003E+03  0.12509000000E+03 0.  0.
         25    1    4    4    0    0  0.13805931718E+01  0.31401921985E+02 -0.59422960832E+03  0.60806605089E+03  0.12509000000E+03 0.  0.
<mgrwt>
<rscale>  2 0.44782330E+03</rscale>
<asrwt>0</asrwt>
<pdfrwt beam="1">  1       21 0.36217370E-02 0.44782330E+03</pdfrwt>
<pdfrwt beam="2">  1       21 0.29937715E+00 0.44782330E+03</pdfrwt>
<totfact> 0.13484561E+04</totfact>
</mgrwt>
</event>
<event>
 7    0  0.4752811E-002  0.4579512E+03  0.7546771E-02  0.1025377E+00
         21   -1    0    0  502  501  0.00000000000E+00  0.00000000000E+00  0.21682531992E+03  0.21682531992E+03  0.00000000000E+00 0. -1.
         21   -1    0    0  501  502 -0.00000000000E+00 -0.00000000000E+00 -0.24180679019E+03  0.24180679019E+03  0.00000000000E+00 0. -1.
      99926    2    1    2    0    0  0.00000000000E+00  0.14210854715E-13 -0.24981470267E+02  0.45863211010E+03  0.45795124038E+03 0.  0.
      99925    2    3    3    0    0  0.93824248028E+02 -0.66371783091E+02 -0.31183783474E+02  0.28864922891E+03  0.26294057483E+03 0.  0.
         25    1    4    4    0    0  0.73260397654E+02 -0.27617822578E+02 -0.47641557997E+02  0.15507113251E+03  0.12509000000E+03 0.  0.
         25    1    4    4    0    0  0.20563850374E+02 -0.38753960513E+02  0.16457774524E+02  0.13357809641E+03  0.12509000000E+03 0.  0.
         25    1    3    3    0    0 -0.93824248028E+02  0.66371783091E+02  0.62023132062E+01  0.16998288119E+03  0.12509000000E+03 0.  0.
<mgrwt>
<rscale>  2 0.45795124E+03</rscale>
<asrwt>0</asrwt>
<pdfrwt beam="1">  1       21 0.31886077E-01 0.45795124E+03</pdfrwt>
<pdfrwt beam="2">  1       21 0.35559822E-01 0.45795124E+03</pdfrwt>
<totfact> 0.66696137E+04</totfact>
</mgrwt>
</event>
<event>
 7    0  0.4752811E-002  0.4550149E+03  0.7546771E-02  0.1026237E+00
         21   -1    0    0  502  501  0.00000000000E+00  0.00000000000E+00  0.12502407064E+04  0.12502407064E+04  0.00000000000E+00 0. -1.
         21   -1    0    0  501  502 -0.00000000000E+00 -0.00000000000E+00 -0.41399747433E+02  0.41399747433E+02  0.00000000000E+00 0. -1.
      99926    2    1    2    0    0  0.35527136788E-14  0.00000000000E+00  0.12088409589E+04  0.12916404538E+04  0.45501494250E+03 0.  0.
      99925    2    3    3    0    0  0.27960629480E+02 -0.56647412886E+02  0.49395374260E+03  0.56314751192E+03  0.26297166039E+03 0.  0.
         25    1    4    4    0    0 -0.38023668985E+01  0.62957807540E+01  0.20027994133E+03  0.23624914360E+03  0.12509000000E+03 0.  0.
         25    1    3    3    0    0 -0.27960629480E+02  0.56647412886E+02  0.71488721634E+03  0.72849294189E+03  0.12509000000E+03 0.  0.
         25    1    4    4    0    0  0.31762996379E+02 -0.62943193640E+02  0.29367380127E+03  0.32689836833E+03  0.12509000000E+03 0.  0.
<mgrwt>
<rscale>  2 0.45501494E+03</rscale>
<asrwt>0</asrwt>
<pdfrwt beam="1">  1       21 0.18385890E+00 0.45501494E+03</pdfrwt>
<pdfrwt beam="2">  1       21 0.60881990E-02 0.45501494E+03</pdfrwt>
<totfact> 0.29355065E+04</totfact>
</mgrwt>
</event>
<event>
 7    0  0.4752811E-002  0.4533610E+03  0.7546771E-02  0.1026724E+00
         21   -1    0    0  502  501  0.00000000000E+00  0.00000000000E+00  0.68163978044E+03  0.68163978044E+03  0.00000000000E+00 0.  1.
         21   -1    0    0  501  502 -0.00000000000E+00 -0.00000000000E+00 -0.75382991158E+02  0.75382991158E+02  0.00000000000E+00 0.  1.
      99926    2    1    2    0    0  0.00000000000E+00  0.00000000000E+00  0.60625678928E+03  0.75702277160E+03  0.45336098439E+03 0.  0.
      99925    2    3    3    0    0  0.25439355055E+02  0.50046514585E+02  0.54327468446E+03  0.60613848469E+03  0.26287766251E+03 0.  0.
         25    1    4    4    0    0  0.24466884472E+02  0.51597848257E+02  0.21926640937E+03  0.25881698699E+03  0.12509000000E+03 0.  0.
         25    1    4    4    0    0  0.97247058321E+00 -0.15513336721E+01  0.32400827509E+03  0.34732149770E+03  0.12509000000E+03 0.  0.
         25    1    3    3    0    0 -0.25439355055E+02 -0.50046514585E+02  0.62982104827E+02  0.15088428691E+03  0.12509000000E+03 0.  0.
<mgrwt>
<rscale>  2 0.45336098E+03</rscale>
<asrwt>0</asrwt>
<pdfrwt beam="1">  1       21 0.10024114E+00 0.45336098E+03</pdfrwt>
<pdfrwt beam="2">  1       21 0.11085734E-01 0.45336098E+03</pdfrwt>
<totfact> 0.50560680E+04</totfact>
</mgrwt>
</event>
<event>
 7    0  0.4752811E-002  0.4324010E+03  0.7546771E-02  0.1033104E+00
         21   -1    0    0  502  501  0.00000000000E+00  0.00000000000E+00  0.10767551010E+03  0.10767551010E+03  0.00000000000E+00 0. -1.
         21   -1    0    0  501  502 -0.00000000000E+00 -0.00000000000E+00 -0.43410666749E+03  0.43410666749E+03  0.00000000000E+00 0. -1.
      99926    2    1    2    0    0  0.71054273576E-14  0.71054273576E-14 -0.32643115739E+03  0.54178217759E+03  0.43240100305E+03 0.  0.
      99925    2    3    3    0    0  0.50147789216E+02  0.57823883223E+02 -0.27008405191E+03  0.38468059698E+03  0.26301209928E+03 0.  0.
         25    1    4    4    0    0  0.46989811555E+02  0.36570880797E+02 -0.18798831901E+03  0.23352213577E+03  0.12509000000E+03 0.  0.
         25    1    4    4    0    0  0.31579776604E+01  0.21253002426E+02 -0.82095732902E+02  0.15115846121E+03  0.12509000000E+03 0.  0.
         25    1    3    3    0    0 -0.50147789216E+02 -0.57823883223E+02 -0.56347105484E+02  0.15710158061E+03  0.12509000000E+03 0.  0.
<mgrwt>
<rscale>  2 0.43240100E+03</rscale>
<asrwt>0</asrwt>
<pdfrwt beam="1">  1       21 0.15834634E-01 0.43240100E+03</pdfrwt>
<pdfrwt beam="2">  1       21 0.63839215E-01 0.43240100E+03</pdfrwt>
<totfact> 0.74942681E+04</totfact>
</mgrwt>
</event>
<event>
 7    0  0.4752811E-002  0.4631593E+03  0.7546771E-02  0.1023869E+00
         21   -1    0    0  502  501  0.00000000000E+00  0.00000000000E+00  0.76051861812E+02  0.76051861812E+02  0.00000000000E+00 0. -1.
         21   -1    0    0  501  502 -0.00000000000E+00 -0.00000000000E+00 -0.70516540982E+03  0.70516540982E+03  0.00000000000E+00 0. -1.
      99926    2    1    2    0    0 -0.35527136788E-14 -0.71054273576E-14 -0.62911354800E+03  0.78121727163E+03  0.46315933458E+03 0.  0.
      99925    2    3    3    0    0  0.25877835472E+02  0.38790725473E+02 -0.58074693702E+03  0.63922706102E+03  0.26300161202E+03 0.  0.
         25    1    4    4    0    0 -0.12271328175E+02  0.50985190023E+02 -0.30463509857E+03  0.33346682965E+03  0.12509000000E+03 0.  0.
         25    1    4    4    0    0  0.38149163647E+02 -0.12194464550E+02 -0.27611183845E+03  0.30576023137E+03  0.12509000000E+03 0.  0.
         25    1    3    3    0    0 -0.25877835472E+02 -0.38790725473E+02 -0.48366610985E+02  0.14199021061E+03  0.12509000000E+03 0.  0.
<mgrwt>
<rscale>  2 0.46315933E+03</rscale>
<asrwt>0</asrwt>
<pdfrwt beam="1">  1       21 0.11184097E-01 0.46315933E+03</pdfrwt>
<pdfrwt beam="2">  1       21 0.10370080E+00 0.46315933E+03</pdfrwt>
<totfact> 0.45689644E+04</totfact>
</mgrwt>
</event>
<event>
 7    0  0.4752811E-002  0.4458448E+03  0.7546771E-02  0.1028968E+00
         21   -1    0    0  502  501  0.00000000000E+00  0.00000000000E+00  0.82546902636E+03  0.82546902636E+03  0.00000000000E+00 0. -1.
         21   -1    0    0  501  502 -0.00000000000E+00 -0.00000000000E+00 -0.60201418393E+02  0.60201418393E+02  0.00000000000E+00 0. -1.
      99926    2    1    2    0    0  0.00000000000E+00  0.00000000000E+00  0.76526760797E+03  0.88567044475E+03  0.44584484398E+03 0.  0.
      99925    2    3    3    0    0  0.42733429682E+02  0.91581427014E+02  0.43414652482E+03  0.51756450404E+03  0.26301427155E+03 0.  0.
         25    1    3    3    0    0 -0.42733429682E+02 -0.91581427014E+02  0.33112108315E+03  0.36810594072E+03  0.12509000000E+03 0.  0.
         25    1    4    4    0    0  0.18275274124E+02  0.48189990149E+01  0.21821081325E+03  0.25223139280E+03  0.12509000000E+03 0.  0.
         25    1    4    4    0    0  0.24458155557E+02  0.86762427999E+02  0.21593571157E+03  0.26533311124E+03  0.12509000000E+03 0.  0.
<mgrwt>
<rscale>  2 0.44584484E+03</rscale>
<asrwt>0</asrwt>
<pdfrwt beam="1">  1       21 0.12139250E+00 0.44584484E+03</pdfrwt>
<pdfrwt beam="2">  1       21 0.88531503E-02 0.44584484E+03</pdfrwt>
<totfact> 0.47149378E+04</totfact>
</mgrwt>
</event>
<event>
 7    0  0.4752811E-002  0.4533560E+03  0.7546771E-02  0.1026726E+00
         21   -1    0    0  502  501  0.00000000000E+00  0.00000000000E+00  0.18381124245E+03  0.18381124245E+03  0.00000000000E+00 0. -1.
         21   -1    0    0  501  502 -0.00000000000E+00 -0.00000000000E+00 -0.27954171989E+03  0.27954171989E+03  0.00000000000E+00 0. -1.
      99926    2    1    2    0    0  0.35527136788E-14  0.00000000000E+00 -0.95730477435E+02  0.46335296234E+03  0.45335597867E+03 0.  0.
      99925    2    3    3    0    0 -0.26640819990E+02 -0.51138113512E+02 -0.15793539165E+03  0.31221792538E+03  0.26308098573E+03 0.  0.
         25    1    4    4    0    0 -0.44726811598E+02 -0.47686096422E+02 -0.65547408307E+02  0.15562269212E+03  0.12509000000E+03 0.  0.
         25    1    4    4    0    0  0.18085991607E+02 -0.34520170901E+01 -0.92387983342E+02  0.15659523326E+03  0.12509000000E+03 0.  0.
         25    1    3    3    0    0  0.26640819990E+02  0.51138113512E+02  0.62204914214E+02  0.15113503696E+03  0.12509000000E+03 0.  0.
<mgrwt>
<rscale>  2 0.45335598E+03</rscale>
<asrwt>0</asrwt>
<pdfrwt beam="1">  1       21 0.27031065E-01 0.45335598E+03</pdfrwt>
<pdfrwt beam="2">  1       21 0.41109076E-01 0.45335598E+03</pdfrwt>
<totfact> 0.68827153E+04</totfact>
</mgrwt>
</event>
<event>
 7    0  0.4752811E-002  0.4598019E+03  0.7546771E-02  0.1024839E+00
         21   -1    0    0  502  501  0.00000000000E+00  0.00000000000E+00  0.15755508345E+04  0.15755508345E+04  0.00000000000E+00 0.  1.
         21   -1    0    0  501  502 -0.00000000000E+00 -0.00000000000E+00 -0.33546640789E+02  0.33546640789E+02  0.00000000000E+00 0.  1.
      99926    2    1    2    0    0  0.00000000000E+00  0.00000000000E+00  0.15420041937E+04  0.16090974752E+04  0.45980186119E+03 0.  0.
      99925    2    3    3    0    0  0.97958505996E+02  0.61287853332E+02  0.88835927902E+03  0.93363374387E+03  0.26294046703E+03 0.  0.
         25    1    3    3    0    0 -0.97958505996E+02 -0.61287853332E+02  0.65364491464E+03  0.67546373137E+03  0.12509000000E+03 0.  0.
         25    1    4    4    0    0  0.75684833168E+02  0.64124899443E+02  0.46786097564E+03  0.49434967111E+03  0.12509000000E+03 0.  0.
         25    1    4    4    0    0  0.22273672828E+02 -0.28370461102E+01  0.42049830338E+03  0.43928407275E+03  0.12509000000E+03 0.  0.
<mgrwt>
<rscale>  2 0.45980186E+03</rscale>
<asrwt>0</asrwt>
<pdfrwt beam="1">  1       21 0.23169860E+00 0.45980186E+03</pdfrwt>
<pdfrwt beam="2">  1       21 0.49333306E-02 0.45980186E+03</pdfrwt>
<totfact> 0.20451754E+04</totfact>
</mgrwt>
</event>
<event>
 7    0  0.4752811E-002  0.4552575E+03  0.7546771E-02  0.1026166E+00
         21   -1    0    0  502  501  0.00000000000E+00  0.00000000000E+00  0.30887710449E+02  0.30887710449E+02  0.00000000000E+00 0. -1.
         21   -1    0    0  501  502 -0.00000000000E+00 -0.00000000000E+00 -0.16775231562E+04  0.16775231562E+04  0.00000000000E+00 0. -1.
      99926    2    1    2    0    0  0.00000000000E+00  0.00000000000E+00 -0.16466354457E+04  0.17084108666E+04  0.45525750744E+03 0.  0.
      99925    2    3    3    0    0 -0.89895015611E+02  0.57227310512E+02 -0.11813178356E+04  0.12149292912E+04  0.26303093922E+03 0.  0.
         25    1    4    4    0    0 -0.83184882684E+02  0.41138309616E+02 -0.58470300701E+03  0.60509271995E+03  0.12509000000E+03 0.  0.
         25    1    4    4    0    0 -0.67101329277E+01  0.16089000896E+02 -0.59661482859E+03  0.60983657124E+03  0.12509000000E+03 0.  0.
         25    1    3    3    0    0  0.89895015611E+02 -0.57227310512E+02 -0.46531761014E+03  0.49348157545E+03  0.12509000000E+03 0.  0.
<mgrwt>
<rscale>  2 0.45525751E+03</rscale>
<asrwt>0</asrwt>
<pdfrwt beam="1">  1       21 0.45423101E-02 0.45525751E+03</pdfrwt>
<pdfrwt beam="2">  1       21 0.24669460E+00 0.45525751E+03</pdfrwt>
<totfact> 0.19049239E+04</totfact>
</mgrwt>
</event>
<event>
 7    0  0.4752811E-002  0.4552416E+03  0.7546771E-02  0.1026170E+00
         21   -1    0    0  502  501  0.00000000000E+00  0.00000000000E+00  0.30534150123E+02  0.30534150123E+02  0.00000000000E+00 0.  1.
         21   -1    0    0  501  502 -0.00000000000E+00 -0.00000000000E+00 -0.16968289375E+04  0.16968289375E+04  0.00000000000E+00 0.  1.
      99926    2    1    2    0    0  0.14210854715E-13  0.00000000000E+00 -0.16662947874E+04  0.17273630877E+04  0.45524160404E+03 0.  0.
      99925    2    3    3    0    0  0.10708791806E+03  0.32498024472E+02 -0.97188902959E+03  0.10129606742E+04  0.26267298645E+03 0.  0.
         25    1    3    3    0    0 -0.10708791806E+03 -0.32498024472E+02 -0.69440575783E+03  0.71440241348E+03  0.12509000000E+03 0.  0.
         25    1    4    4    0    0  0.89334760551E+02  0.79831524029E+00 -0.57805138596E+03  0.59814066043E+03  0.12509000000E+03 0.  0.
         25    1    4    4    0    0  0.17753157507E+02  0.31699709232E+02 -0.39383764363E+03  0.41482001375E+03  0.12509000000E+03 0.  0.
<mgrwt>
<rscale>  2 0.45524160E+03</rscale>
<asrwt>0</asrwt>
<pdfrwt beam="1">  1       21 0.44903168E-02 0.45524160E+03</pdfrwt>
<pdfrwt beam="2">  1       21 0.24953363E+00 0.45524160E+03</pdfrwt>
<totfact> 0.18662808E+04</totfact>
</mgrwt>
</event>
<event>
 7    0  0.4752811E-002  0.4612628E+03  0.7546771E-02  0.1024416E+00
         21   -1    0    0  502  501  0.00000000000E+00  0.00000000000E+00  0.68463764988E+02  0.68463764988E+02  0.00000000000E+00 0.  1.
         21   -1    0    0  501  502 -0.00000000000E+00 -0.00000000000E+00 -0.77691961272E+03  0.77691961272E+03  0.00000000000E+00 0.  1.
      99926    2    1    2    0    0  0.35527136788E-14 -0.71054273576E-14 -0.70845584773E+03  0.84538337771E+03  0.46126279616E+03 0.  0.
      99925    2    3    3    0    0  0.30693491768E+02  0.48323507462E+02 -0.25260724872E+03  0.36922930061E+03  0.26313989153E+03 0.  0.
         25    1    4    4    0    0 -0.48013068463E-01 -0.11572441044E+02 -0.13878949098E+03  0.18720030610E+03  0.12509000000E+03 0.  0.
         25    1    3    3    0    0 -0.30693491768E+02 -0.48323507462E+02 -0.45584859901E+03  0.47615407709E+03  0.12509000000E+03 0.  0.
         25    1    4    4    0    0  0.30741504836E+02  0.59895948506E+02 -0.11381775773E+03  0.18202899451E+03  0.12509000000E+03 0.  0.
<mgrwt>
<rscale>  2 0.46126280E+03</rscale>
<asrwt>0</asrwt>
<pdfrwt beam="1">  1       21 0.10068201E-01 0.46126280E+03</pdfrwt>
<pdfrwt beam="2">  1       21 0.11425288E+00 0.46126280E+03</pdfrwt>
<totfact> 0.43471102E+04</totfact>
</mgrwt>
</event>
<event>
 7    0  0.4752811E-002  0.4468267E+03  0.7546771E-02  0.1028673E+00
         21   -1    0    0  502  501  0.00000000000E+00  0.00000000000E+00  0.55669111955E+02  0.55669111955E+02  0.00000000000E+00 0. -1.
         21   -1    0    0  501  502 -0.00000000000E+00 -0.00000000000E+00 -0.89661068154E+03  0.89661068154E+03  0.00000000000E+00 0. -1.
      99926    2    1    2    0    0  0.22204460493E-14  0.14210854715E-13 -0.84094156958E+03  0.95227979349E+03  0.44682667965E+03 0.  0.
      99925    2    3    3    0    0  0.30665216588E+01  0.87821969793E+02 -0.40900806254E+03  0.49409187949E+03  0.26290128988E+03 0.  0.
         25    1    4    4    0    0 -0.13942611961E+02  0.34182287890E+02 -0.13523423002E+03  0.18787929716E+03  0.12509000000E+03 0.  0.
         25    1    3    3    0    0 -0.30665216588E+01 -0.87821969793E+02 -0.43193350704E+03  0.45818791400E+03  0.12509000000E+03 0.  0.
         25    1    4    4    0    0  0.17009133619E+02  0.53639681903E+02 -0.27377383252E+03  0.30621258233E+03  0.12509000000E+03 0.  0.
<mgrwt>
<rscale>  2 0.44682668E+03</rscale>
<asrwt>0</asrwt>
<pdfrwt beam="1">  1       21 0.81866348E-02 0.44682668E+03</pdfrwt>
<pdfrwt beam="2">  1       21 0.13185450E+00 0.44682668E+03</pdfrwt>
<totfact> 0.43780436E+04</totfact>
</mgrwt>
</event>
<event>
 7    0  0.4752811E-002  0.4516243E+03  0.7546771E-02  0.1027239E+00
         21   -1    0    0  502  501  0.00000000000E+00  0.00000000000E+00  0.47661779749E+02  0.47661779749E+02  0.00000000000E+00 0.  1.
         21   -1    0    0  501  502 -0.00000000000E+00 -0.00000000000E+00 -0.10698537608E+04  0.10698537608E+04  0.00000000000E+00 0.  1.
      99926    2    1    2    0    0 -0.35527136788E-14  0.00000000000E+00 -0.10221919810E+04  0.11175155405E+04  0.45162433198E+03 0.  0.
      99925    2    3    3    0    0  0.26292213499E+02  0.95451986069E+02 -0.52688009885E+03  0.59714669935E+03  0.26301935261E+03 0.  0.
         25    1    4    4    0    0  0.70507836044E+01  0.11146450185E+02 -0.28369562787E+03  0.31032994421E+03  0.12509000000E+03 0.  0.
         25    1    4    4    0    0  0.19241429895E+02  0.84305535884E+02 -0.24318447098E+03  0.28681675514E+03  0.12509000000E+03 0.  0.
         25    1    3    3    0    0 -0.26292213499E+02 -0.95451986069E+02 -0.49531188216E+03  0.52036884115E+03  0.12509000000E+03 0.  0.
<mgrwt>
<rscale>  2 0.45162433E+03</rscale>
<asrwt>0</asrwt>
<pdfrwt beam="1">  1       21 0.70090859E-02 0.45162433E+03</pdfrwt>
<pdfrwt beam="2">  1       21 0.15733142E+00 0.45162433E+03</pdfrwt>
<totfact> 0.35819064E+04</totfact>
</mgrwt>
</event>
<event>
 7    0  0.4752811E-002  0.4530707E+03  0.7546771E-02  0.1026810E+00
         21   -1    0    0  502  501  0.00000000000E+00  0.00000000000E+00  0.51692440252E+03  0.51692440252E+03  0.00000000000E+00 0. -1.
         21   -1    0    0  501  502 -0.00000000000E+00 -0.00000000000E+00 -0.99276132057E+02  0.99276132057E+02  0.00000000000E+00 0. -1.
      99926    2    1    2    0    0  0.14210854715E-13  0.00000000000E+00  0.41764827046E+03  0.61620053457E+03  0.45307065783E+03 0.  0.
      99925    2    3    3    0    0 -0.96572246203E+02 -0.34675436828E+02  0.32204086723E+03  0.42827270718E+03  0.26301826342E+03 0.  0.
         25    1    4    4    0    0 -0.55887437668E+02 -0.34047165960E+02  0.22168672675E+03  0.26282147575E+03  0.12509000000E+03 0.  0.
         25    1    4    4    0    0 -0.40684808536E+02 -0.62827086833E+00  0.10035414048E+03  0.16545123143E+03  0.12509000000E+03 0.  0.
         25    1    3    3    0    0  0.96572246203E+02  0.34675436828E+02  0.95607403229E+02  0.18792782739E+03  0.12509000000E+03 0.  0.
<mgrwt>
<rscale>  2 0.45307066E+03</rscale>
<asrwt>0</asrwt>
<pdfrwt beam="1">  1       21 0.76018293E-01 0.45307066E+03</pdfrwt>
<pdfrwt beam="2">  1       21 0.14599431E-01 0.45307066E+03</pdfrwt>
<totfact> 0.58579472E+04</totfact>
</mgrwt>
</event>
<event>
 7    0  0.4752811E-002  0.4398221E+03  0.7546771E-02  0.1030801E+00
         21   -1    0    0  502  501  0.00000000000E+00  0.00000000000E+00  0.48205415304E+03  0.48205415304E+03  0.00000000000E+00 0. -1.
         21   -1    0    0  501  502 -0.00000000000E+00 -0.00000000000E+00 -0.10032248831E+03  0.10032248831E+03  0.00000000000E+00 0. -1.
      99926    2    1    2    0    0  0.00000000000E+00  0.00000000000E+00  0.38173166474E+03  0.58237664135E+03  0.43982211010E+03 0.  0.
      99925    2    3    3    0    0 -0.49026015518E+02  0.85070165267E+02  0.24168866918E+03  0.37048036503E+03  0.26306235923E+03 0.  0.
         25    1    3    3    0    0  0.49026015518E+02 -0.85070165267E+02  0.14004299555E+03  0.21189627632E+03  0.12509000000E+03 0.  0.
         25    1    4    4    0    0 -0.42191331582E+02  0.75914791394E+02  0.10580267043E+03  0.18543159705E+03  0.12509000000E+03 0.  0.
         25    1    4    4    0    0 -0.68346839362E+01  0.91553738725E+01  0.13588599875E+03  0.18504876798E+03  0.12509000000E+03 0.  0.
<mgrwt>
<rscale>  2 0.43982211E+03</rscale>
<asrwt>0</asrwt>
<pdfrwt beam="1">  1       21 0.70890315E-01 0.43982211E+03</pdfrwt>
<pdfrwt beam="2">  1       21 0.14753307E-01 0.43982211E+03</pdfrwt>
<totfact> 0.67519894E+04</totfact>
</mgrwt>
</event>
<event>
 7    0  0.4752811E-002  0.4474845E+03  0.7546771E-02  0.1028475E+00
         21   -1    0    0  502  501  0.00000000000E+00  0.00000000000E+00  0.39408336317E+02  0.39408336317E+02  0.00000000000E+00 0. -1.
         21   -1    0    0  501  502 -0.00000000000E+00 -0.00000000000E+00 -0.12703048611E+04  0.12703048611E+04  0.00000000000E+00 0. -1.
      99926    2    1    2    0    0  0.00000000000E+00  0.00000000000E+00 -0.12308965247E+04  0.13097131974E+04  0.44748453019E+03 0.  0.
      99925    2    3    3    0    0 -0.10456890829E+03 -0.81048925674E+01 -0.82382743129E+03  0.87113241712E+03  0.26302035235E+03 0.  0.
         25    1    4    4    0    0 -0.88141153258E+02  0.19575752052E+01 -0.38139406969E+03  0.41095211339E+03  0.12509000000E+03 0.  0.
         25    1    3    3    0    0  0.10456890829E+03  0.81048925674E+01 -0.40706909344E+03  0.43858078025E+03  0.12509000000E+03 0.  0.
         25    1    4    4    0    0 -0.16427755030E+02 -0.10062467773E+02 -0.44243336160E+03  0.46018030374E+03  0.12509000000E+03 0.  0.
<mgrwt>
<rscale>  2 0.44748453E+03</rscale>
<asrwt>0</asrwt>
<pdfrwt beam="1">  1       21 0.57953434E-02 0.44748453E+03</pdfrwt>
<pdfrwt beam="2">  1       21 0.18680954E+00 0.44748453E+03</pdfrwt>
<totfact> 0.30582596E+04</totfact>
</mgrwt>
</event>
<event>
 7    0  0.4752811E-002  0.4604716E+03  0.7546771E-02  0.1024645E+00
         21   -1    0    0  502  501  0.00000000000E+00  0.00000000000E+00  0.55642822188E+03  0.55642822188E+03  0.00000000000E+00 0.  1.
         21   -1    0    0  501  502 -0.00000000000E+00 -0.00000000000E+00 -0.95265693787E+02  0.95265693787E+02  0.00000000000E+00 0.  1.
      99926    2    1    2    0    0 -0.35527136788E-14  0.14210854715E-13  0.46116252809E+03  0.65169391566E+03  0.46047158696E+03 0.  0.
      99925    2    3    3    0    0  0.10552020062E+02  0.11764932531E+03  0.29911422039E+03  0.41534698634E+03  0.26285184677E+03 0.  0.
         25    1    4    4    0    0 -0.33529862616E+02  0.47441849759E+02  0.13582187272E+03  0.19357187297E+03  0.12509000000E+03 0.  0.
         25    1    4    4    0    0  0.44081882678E+02  0.70207475547E+02  0.16329234768E+03  0.22177511338E+03  0.12509000000E+03 0.  0.
         25    1    3    3    0    0 -0.10552020062E+02 -0.11764932531E+03  0.16204830769E+03  0.23634692932E+03  0.12509000000E+03 0.  0.
<mgrwt>
<rscale>  2 0.46047159E+03</rscale>
<asrwt>0</asrwt>
<pdfrwt beam="1">  1       21 0.81827678E-01 0.46047159E+03</pdfrwt>
<pdfrwt beam="2">  1       21 0.14009661E-01 0.46047159E+03</pdfrwt>
<totfact> 0.53267237E+04</totfact>
</mgrwt>
</event>
<event>
 7    0  0.4752811E-002  0.3907714E+03  0.7546771E-02  0.1047023E+00
         21   -1    0    0  502  501  0.00000000000E+00  0.00000000000E+00  0.19364799332E+03  0.19364799332E+03  0.00000000000E+00 0.  1.
         21   -1    0    0  501  502 -0.00000000000E+00 -0.00000000000E+00 -0.19713896271E+03  0.19713896271E+03  0.00000000000E+00 0.  1.
      99926    2    1    2    0    0 -0.29143354396E-15 -0.17763568394E-14 -0.34909693894E+01  0.39078695603E+03  0.39077136300E+03 0.  0.
      99925    2    3    3    0    0 -0.47990977860E-01  0.11634822903E+02 -0.19506062422E+02  0.26414035043E+03  0.26316205434E+03 0.  0.
         25    1    4    4    0    0 -0.10106728081E+02 -0.90881374039E+01 -0.46446965995E+02  0.13412519877E+03  0.12509000000E+03 0.  0.
         25    1    4    4    0    0  0.10058737103E+02  0.20722960306E+02  0.26940903573E+02  0.13001515166E+03  0.12509000000E+03 0.  0.
         25    1    3    3    0    0  0.47990977860E-01 -0.11634822903E+02  0.16015093033E+02  0.12664660561E+03  0.12509000000E+03 0.  0.
<mgrwt>
<rscale>  2 0.39077136E+03</rscale>
<asrwt>0</asrwt>
<pdfrwt beam="1">  1       21 0.28477646E-01 0.39077136E+03</pdfrwt>
<pdfrwt beam="2">  1       21 0.28991024E-01 0.39077136E+03</pdfrwt>
<totfact> 0.12729369E+05</totfact>
</mgrwt>
</event>
<event>
 7    0  0.4752811E-002  0.4550403E+03  0.7546771E-02  0.1026230E+00
         21   -1    0    0  502  501  0.00000000000E+00  0.00000000000E+00  0.77707939601E+03  0.77707939601E+03  0.00000000000E+00 0.  1.
         21   -1    0    0  501  502 -0.00000000000E+00 -0.00000000000E+00 -0.66615366251E+02  0.66615366251E+02  0.00000000000E+00 0.  1.
      99926    2    1    2    0    0  0.35527136788E-14  0.14210854715E-13  0.71046402975E+03  0.84369476226E+03  0.45504034358E+03 0.  0.
      99925    2    3    3    0    0 -0.29401910397E+02 -0.10408910467E+03  0.38333579646E+03  0.47714407932E+03  0.26271871942E+03 0.  0.
         25    1    3    3    0    0  0.29401910397E+02  0.10408910467E+03  0.32712823330E+03  0.36655068294E+03  0.12509000000E+03 0.  0.
         25    1    4    4    0    0 -0.48334791425E+02 -0.64421078240E+02  0.16941839427E+03  0.22546935003E+03  0.12509000000E+03 0.  0.
         25    1    4    4    0    0  0.18932881028E+02 -0.39668026425E+02  0.21391740218E+03  0.25167472929E+03  0.12509000000E+03 0.  0.
<mgrwt>
<rscale>  2 0.45504034E+03</rscale>
<asrwt>0</asrwt>
<pdfrwt beam="1">  1       21 0.11427638E+00 0.45504034E+03</pdfrwt>
<pdfrwt beam="2">  1       21 0.97963779E-02 0.45504034E+03</pdfrwt>
<totfact> 0.45708296E+04</totfact>
</mgrwt>
</event>
<event>
 7    0  0.4752811E-002  0.4815778E+03  0.7546771E-02  0.1018702E+00
         21   -1    0    0  502  501  0.00000000000E+00  0.00000000000E+00  0.54417933304E+02  0.54417933304E+02  0.00000000000E+00 0. -1.
         21   -1    0    0  501  502 -0.00000000000E+00 -0.00000000000E+00 -0.10654446123E+04  0.10654446123E+04  0.00000000000E+00 0. -1.
      99926    2    1    2    0    0  0.00000000000E+00 -0.14210854715E-13 -0.10110266790E+04  0.11198625456E+04  0.48157779788E+03 0.  0.
      99925    2    3    3    0    0  0.69676710118E+02 -0.11621707437E+03 -0.66109946198E+03  0.72431505463E+03  0.26309417976E+03 0.  0.
         25    1    3    3    0    0 -0.69676710118E+02  0.11621707437E+03 -0.34992721704E+03  0.39554749100E+03  0.12509000000E+03 0.  0.
         25    1    4    4    0    0  0.30886402339E+02 -0.88550723801E+02 -0.42595740518E+03  0.45374268001E+03  0.12509000000E+03 0.  0.
         25    1    4    4    0    0  0.38790307778E+02 -0.27666350572E+02 -0.23514205680E+03  0.27057237462E+03  0.12509000000E+03 0.  0.
<mgrwt>
<rscale>  2 0.48157780E+03</rscale>
<asrwt>0</asrwt>
<pdfrwt beam="1">  1       21 0.80026380E-02 0.48157780E+03</pdfrwt>
<pdfrwt beam="2">  1       21 0.15668302E+00 0.48157780E+03</pdfrwt>
<totfact> 0.28438761E+04</totfact>
</mgrwt>
</event>
<event>
 7    0  0.4752811E-002  0.4593836E+03  0.7546771E-02  0.1024960E+00
         21   -1    0    0  502  501  0.00000000000E+00  0.00000000000E+00  0.30052226498E+03  0.30052226498E+03  0.00000000000E+00 0. -1.
         21   -1    0    0  501  502 -0.00000000000E+00 -0.00000000000E+00 -0.17555543845E+03  0.17555543845E+03  0.00000000000E+00 0. -1.
      99926    2    1    2    0    0  0.00000000000E+00  0.71054273576E-14  0.12496682653E+03  0.47607770342E+03  0.45938357825E+03 0.  0.
      99925    2    3    3    0    0  0.24975065323E+02  0.49480213911E+02 -0.28725633559E+02  0.27030859533E+03  0.26300100614E+03 0.  0.
         25    1    3    3    0    0 -0.24975065323E+02 -0.49480213911E+02  0.15369246009E+03  0.20576910809E+03  0.12509000000E+03 0.  0.
         25    1    4    4    0    0 -0.26192640263E+02  0.34963474444E+02 -0.21084248672E+02  0.13416613802E+03  0.12509000000E+03 0.  0.
         25    1    4    4    0    0  0.51167705586E+02  0.14516739467E+02 -0.76413848875E+01  0.13614245731E+03  0.12509000000E+03 0.  0.
<mgrwt>
<rscale>  2 0.45938358E+03</rscale>
<asrwt>0</asrwt>
<pdfrwt beam="1">  1       21 0.44194451E-01 0.45938358E+03</pdfrwt>
<pdfrwt beam="2">  1       21 0.25816976E-01 0.45938358E+03</pdfrwt>
<totfact> 0.64706535E+04</totfact>
</mgrwt>
</event>
<event>
 7    0  0.4752811E-002  0.4553527E+03  0.7546771E-02  0.1026138E+00
         21   -1    0    0  502  501  0.00000000000E+00  0.00000000000E+00  0.75459626960E+03  0.75459626960E+03  0.00000000000E+00 0.  1.
         21   -1    0    0  501  502 -0.00000000000E+00 -0.00000000000E+00 -0.68694379254E+02  0.68694379254E+02  0.00000000000E+00 0.  1.
      99926    2    1    2    0    0  0.00000000000E+00 -0.88817841970E-15  0.68590189035E+03  0.82329064886E+03  0.45535270869E+03 0.  0.
      99925    2    3    3    0    0 -0.84781419894E+02  0.18791942178E+01  0.29483946895E+03  0.40404281516E+03  0.26292368379E+03 0.  0.
         25    1    4    4    0    0 -0.65660986713E+02 -0.19106857940E+02  0.11509940438E+03  0.18322613947E+03  0.12509000000E+03 0.  0.
         25    1    4    4    0    0 -0.19120433181E+02  0.20986052158E+02  0.17974006457E+03  0.22081667569E+03  0.12509000000E+03 0.  0.
         25    1    3    3    0    0  0.84781419894E+02 -0.18791942178E+01  0.39106242140E+03  0.41924783370E+03  0.12509000000E+03 0.  0.
<mgrwt>
<rscale>  2 0.45535271E+03</rscale>
<asrwt>0</asrwt>
<pdfrwt beam="1">  1       21 0.11097003E+00 0.45535271E+03</pdfrwt>
<pdfrwt beam="2">  1       21 0.10102115E-01 0.45535271E+03</pdfrwt>
<totfact> 0.46529915E+04</totfact>
</mgrwt>
</event>
<event>
 7    0  0.4752811E-002  0.4550734E+03  0.7546771E-02  0.1026220E+00
         21   -1    0    0  502  501  0.00000000000E+00  0.00000000000E+00  0.29523122202E+03  0.29523122202E+03  0.00000000000E+00 0. -1.
         21   -1    0    0  501  502 -0.00000000000E+00 -0.00000000000E+00 -0.17536406178E+03  0.17536406178E+03  0.00000000000E+00 0. -1.
      99926    2    1    2    0    0  0.00000000000E+00  0.00000000000E+00  0.11986716024E+03  0.47059528380E+03  0.45507338423E+03 0.  0.
      99925    2    3    3    0    0 -0.10638929775E+03  0.26985618309E+01  0.11425005533E+03  0.30626322704E+03  0.26347319442E+03 0.  0.
         25    1    4    4    0    0 -0.69593122146E+02 -0.61732335775E+01  0.18973771559E+02  0.14452966329E+03  0.12509000000E+03 0.  0.
         25    1    3    3    0    0  0.10638929775E+03 -0.26985618309E+01  0.56171049052E+01  0.16433205676E+03  0.12509000000E+03 0.  0.
         25    1    4    4    0    0 -0.36796175609E+02  0.88717954085E+01  0.95276283773E+02  0.16173356375E+03  0.12509000000E+03 0.  0.
<mgrwt>
<rscale>  2 0.45507338E+03</rscale>
<asrwt>0</asrwt>
<pdfrwt beam="1">  1       21 0.43416356E-01 0.45507338E+03</pdfrwt>
<pdfrwt beam="2">  1       21 0.25788833E-01 0.45507338E+03</pdfrwt>
<totfact> 0.67352242E+04</totfact>
</mgrwt>
</event>
<event>
 7    0  0.4752811E-002  0.4559808E+03  0.7546771E-02  0.1025953E+00
         21   -1    0    0  502  501  0.00000000000E+00  0.00000000000E+00  0.87350892179E+03  0.87350892179E+03  0.00000000000E+00 0.  1.
         21   -1    0    0  501  502 -0.00000000000E+00 -0.00000000000E+00 -0.59506693292E+02  0.59506693292E+02  0.00000000000E+00 0.  1.
      99926    2    1    2    0    0  0.00000000000E+00 -0.35527136788E-14  0.81400222849E+03  0.93301561508E+03  0.45598082195E+03 0.  0.
      99925    2    3    3    0    0 -0.48309690572E+02 -0.28784913014E+02  0.30873468759E+03  0.40946505075E+03  0.26302494756E+03 0.  0.
         25    1    3    3    0    0  0.48309690572E+02  0.28784913014E+02  0.50526754090E+03  0.52355056433E+03  0.12509000000E+03 0.  0.
         25    1    4    4    0    0 -0.39632095927E+02  0.22449796641E+02  0.14200427771E+03  0.19464690952E+03  0.12509000000E+03 0.  0.
         25    1    4    4    0    0 -0.86775946446E+01 -0.51234709655E+02  0.16673040988E+03  0.21481814123E+03  0.12509000000E+03 0.  0.
<mgrwt>
<rscale>  2 0.45598082E+03</rscale>
<asrwt>0</asrwt>
<pdfrwt beam="1">  1       21 0.12845719E+00 0.45598082E+03</pdfrwt>
<pdfrwt beam="2">  1       21 0.87509849E-02 0.45598082E+03</pdfrwt>
<totfact> 0.41516926E+04</totfact>
</mgrwt>
</event>
<event>
 7    0  0.4752811E-002  0.4566874E+03  0.7546771E-02  0.1025746E+00
         21   -1    0    0  502  501  0.00000000000E+00  0.00000000000E+00  0.11233526099E+03  0.11233526099E+03  0.00000000000E+00 0.  1.
         21   -1    0    0  501  502 -0.00000000000E+00 -0.00000000000E+00 -0.46415383586E+03  0.46415383586E+03  0.00000000000E+00 0.  1.
      99926    2    1    2    0    0  0.35527136788E-14  0.00000000000E+00 -0.35181857487E+03  0.57648909685E+03  0.45668738669E+03 0.  0.
      99925    2    3    3    0    0 -0.19857238374E+02 -0.49664781995E+02 -0.93200116724E+02  0.28427014558E+03  0.26317741815E+03 0.  0.
         25    1    3    3    0    0  0.19857238374E+02  0.49664781995E+02 -0.25861845815E+03  0.29221895127E+03  0.12509000000E+03 0.  0.
         25    1    4    4    0    0  0.24883515138E+02 -0.14947671175E+02 -0.24496322378E+02  0.13072949212E+03  0.12509000000E+03 0.  0.
         25    1    4    4    0    0 -0.44740753512E+02 -0.34717110821E+02 -0.68703794346E+02  0.15354065346E+03  0.12509000000E+03 0.  0.
<mgrwt>
<rscale>  2 0.45668739E+03</rscale>
<asrwt>0</asrwt>
<pdfrwt beam="1">  1       21 0.16519891E-01 0.45668739E+03</pdfrwt>
<pdfrwt beam="2">  1       21 0.68257916E-01 0.45668739E+03</pdfrwt>
<totfact> 0.59353451E+04</totfact>
</mgrwt>
</event>
<event>
 7    0  0.4752811E-002  0.4543403E+03  0.7546771E-02  0.1026436E+00
         21   -1    0    0  502  501  0.00000000000E+00  0.00000000000E+00  0.30563692733E+02  0.30563692733E+02  0.00000000000E+00 0. -1.
         21   -1    0    0  501  502 -0.00000000000E+00 -0.00000000000E+00 -0.16884829104E+04  0.16884829104E+04  0.00000000000E+00 0. -1.
      99926    2    1    2    0    0  0.35527136788E-14  0.14210854715E-13 -0.16579192177E+04  0.17190466031E+04  0.45434028155E+03 0.  0.
      99925    2    3    3    0    0  0.18960814001E+02 -0.11071822867E+03 -0.10651747440E+04  0.11029203516E+04  0.26309319292E+03 0.  0.
         25    1    3    3    0    0 -0.18960814001E+02  0.11071822867E+03 -0.59274447370E+03  0.61612625153E+03  0.12509000000E+03 0.  0.
         25    1    4    4    0    0 -0.57086315652E+01 -0.15454329859E+02 -0.51075172063E+03  0.52610479281E+03  0.12509000000E+03 0.  0.
         25    1    4    4    0    0  0.24669445567E+02 -0.95263898813E+02 -0.55442302334E+03  0.57681555880E+03  0.12509000000E+03 0.  0.
<mgrwt>
<rscale>  2 0.45434028E+03</rscale>
<asrwt>0</asrwt>
<pdfrwt beam="1">  1       21 0.44946611E-02 0.45434028E+03</pdfrwt>
<pdfrwt beam="2">  1       21 0.24830629E+00 0.45434028E+03</pdfrwt>
<totfact> 0.18965020E+04</totfact>
</mgrwt>
</event>
<event>
 7    0  0.4752811E-002  0.4526051E+03  0.7546771E-02  0.1026948E+00
         21   -1    0    0  502  501  0.00000000000E+00  0.00000000000E+00  0.36138477708E+04  0.36138477708E+04  0.00000000000E+00 0. -1.
         21   -1    0    0  501  502 -0.00000000000E+00 -0.00000000000E+00 -0.14171279840E+02  0.14171279840E+02  0.00000000000E+00 0. -1.
      99926    2    1    2    0    0  0.00000000000E+00  0.00000000000E+00  0.35996764910E+04  0.36280190507E+04  0.45260511734E+03 0.  0.
      99925    2    3    3    0    0 -0.74340318335E+02 -0.67969498773E+02  0.18987482188E+04  0.19195253191E+04  0.26303291894E+03 0.  0.
         25    1    3    3    0    0  0.74340318335E+02  0.67969498773E+02  0.17009282722E+04  0.17084937316E+04  0.12509000000E+03 0.  0.
         25    1    4    4    0    0 -0.60226318406E+02 -0.38395837516E+02  0.76654972623E+03  0.77996630738E+03  0.12509000000E+03 0.  0.
         25    1    4    4    0    0 -0.14113999929E+02 -0.29573661257E+02  0.11321984926E+04  0.11395590117E+04  0.12509000000E+03 0.  0.
<mgrwt>
<rscale>  2 0.45260512E+03</rscale>
<asrwt>0</asrwt>
<pdfrwt beam="1">  1       21 0.53144756E+00 0.45260512E+03</pdfrwt>
<pdfrwt beam="2">  1       21 0.20840142E-02 0.45260512E+03</pdfrwt>
<totfact> 0.10145788E+03</totfact>
</mgrwt>
</event>
<event>
 7    0  0.4752811E-002  0.4508240E+03  0.7546771E-02  0.1027477E+00
         21   -1    0    0  502  501  0.00000000000E+00  0.00000000000E+00  0.19937495176E+03  0.19937495176E+03  0.00000000000E+00 0.  1.
         21   -1    0    0  501  502 -0.00000000000E+00 -0.00000000000E+00 -0.25484931391E+03  0.25484931391E+03  0.00000000000E+00 0.  1.
      99926    2    1    2    0    0  0.00000000000E+00  0.00000000000E+00 -0.55474362150E+02  0.45422426567E+03  0.45082399966E+03 0.  0.
      99925    2    3    3    0    0  0.10155778697E+03 -0.28289574265E+02 -0.63934323995E+02  0.29041534296E+03  0.26294332001E+03 0.  0.
         25    1    4    4    0    0  0.47320951958E+02 -0.25224379836E+02 -0.71675295470E+02  0.15381936781E+03  0.12509000000E+03 0.  0.
         25    1    3    3    0    0 -0.10155778697E+03  0.28289574265E+02  0.84599618448E+01  0.16380892271E+03  0.12509000000E+03 0.  0.
         25    1    4    4    0    0  0.54236835009E+02 -0.30651944286E+01  0.77409714753E+01  0.13659597515E+03  0.12509000000E+03 0.  0.
<mgrwt>
<rscale>  2 0.45082400E+03</rscale>
<asrwt>0</asrwt>
<pdfrwt beam="1">  1       21 0.29319846E-01 0.45082400E+03</pdfrwt>
<pdfrwt beam="2">  1       21 0.37477840E-01 0.45082400E+03</pdfrwt>
<totfact> 0.70936658E+04</totfact>
</mgrwt>
</event>
<event>
 7    0  0.4752811E-002  0.4539429E+03  0.7546771E-02  0.1026553E+00
         21   -1    0    0  502  501  0.00000000000E+00  0.00000000000E+00  0.11026030529E+04  0.11026030529E+04  0.00000000000E+00 0. -1.
         21   -1    0    0  501  502 -0.00000000000E+00 -0.00000000000E+00 -0.46722198811E+02  0.46722198811E+02  0.00000000000E+00 0. -1.
      99926    2    1    2    0    0 -0.71054273576E-14  0.00000000000E+00  0.10558808541E+04  0.11493252517E+04  0.45394289970E+03 0.  0.
      99925    2    3    3    0    0 -0.62968111235E+02 -0.17561403373E+02  0.43403289428E+03  0.51166093630E+03  0.26294291111E+03 0.  0.
         25    1    4    4    0    0 -0.11047566861E+02  0.25602397303E+02  0.22335896290E+03  0.25751556436E+03  0.12509000000E+03 0.  0.
         25    1    4    4    0    0 -0.51920544374E+02 -0.43163800677E+02  0.21067393137E+03  0.25414537194E+03  0.12509000000E+03 0.  0.
         25    1    3    3    0    0  0.62968111235E+02  0.17561403373E+02  0.62184795979E+03  0.63766431539E+03  0.12509000000E+03 0.  0.
<mgrwt>
<rscale>  2 0.45394290E+03</rscale>
<asrwt>0</asrwt>
<pdfrwt beam="1">  1       21 0.16214749E+00 0.45394290E+03</pdfrwt>
<pdfrwt beam="2">  1       21 0.68709123E-02 0.45394290E+03</pdfrwt>
<totfact> 0.34084856E+04</totfact>
</mgrwt>
</event>
<event>
 7    0  0.4752811E-002  0.4565485E+03  0.7546771E-02  0.1025787E+00
         21   -1    0    0  502  501  0.00000000000E+00  0.00000000000E+00  0.81832824711E+03  0.81832824711E+03  0.00000000000E+00 0.  1.
         21   -1    0    0  501  502 -0.00000000000E+00 -0.00000000000E+00 -0.63677551272E+02  0.63677551272E+02  0.00000000000E+00 0.  1.
      99926    2    1    2    0    0  0.00000000000E+00  0.00000000000E+00  0.75465069584E+03  0.88200579838E+03  0.45654852497E+03 0.  0.
      99925    2    3    3    0    0 -0.27132454077E+02  0.44994827171E+02  0.27889163880E+03  0.38727870898E+03  0.26352143689E+03 0.  0.
         25    1    4    4    0    0  0.87518420320E+01 -0.11666384339E+02  0.14640220941E+03  0.19311606428E+03  0.12509000000E+03 0.  0.
         25    1    3    3    0    0  0.27132454077E+02 -0.44994827171E+02  0.47575905703E+03  0.49472708940E+03  0.12509000000E+03 0.  0.
         25    1    4    4    0    0 -0.35884296109E+02  0.56661211510E+02  0.13248942940E+03  0.19416264470E+03  0.12509000000E+03 0.  0.
<mgrwt>
<rscale>  2 0.45654852E+03</rscale>
<asrwt>0</asrwt>
<pdfrwt beam="1">  1       21 0.12034238E+00 0.45654852E+03</pdfrwt>
<pdfrwt beam="2">  1       21 0.93643463E-02 0.45654852E+03</pdfrwt>
<totfact> 0.43491025E+04</totfact>
</mgrwt>
</event>
<event>
 6    0  0.4752811E-002  0.4535413E+03  0.7546771E-02  0.1026671E+00
         21   -1    0    0  502  501  0.00000000000E+00  0.00000000000E+00  0.18544020701E+03  0.18544020701E+03  0.00000000000E+00 0. -1.
         21   -1    0    0  501  502 -0.00000000000E+00 -0.00000000000E+00 -0.27731274145E+03  0.27731274145E+03  0.00000000000E+00 0. -1.
      99926    2    1    2    0    0  0.00000000000E+00  0.71054273576E-14 -0.91872534435E+02  0.46275294846E+03  0.45354131975E+03 0.  0.
         25    1    3    3    0    0  0.10800689980E+02  0.53144986495E+02 -0.12873489250E+03  0.18751326657E+03  0.12509000000E+03 0.  0.
         25    1    3    3    0    0  0.30774539611E+01 -0.60189028763E+02  0.52022408304E+02  0.14827686594E+03  0.12509000000E+03 0.  0.
         25    1    3    3    0    0 -0.13878143941E+02  0.70440422677E+01 -0.15160050243E+02  0.12696281595E+03  0.12509000000E+03 0.  0.
<mgrwt>
<rscale>  2 0.45354132E+03</rscale>
<asrwt>0</asrwt>
<pdfrwt beam="1">  1       21 0.27270619E-01 0.45354132E+03</pdfrwt>
<pdfrwt beam="2">  1       21 0.40781285E-01 0.45354132E+03</pdfrwt>
<totfact> 0.68771355E+04</totfact>
</mgrwt>
</event>
<event>
 7    0  0.4752811E-002  0.4504641E+03  0.7546771E-02  0.1027584E+00
         21   -1    0    0  502  501  0.00000000000E+00  0.00000000000E+00  0.81564685654E+03  0.81564685654E+03  0.00000000000E+00 0.  1.
         21   -1    0    0  501  502 -0.00000000000E+00 -0.00000000000E+00 -0.62195401841E+02  0.62195401841E+02  0.00000000000E+00 0.  1.
      99926    2    1    2    0    0  0.14210854715E-13  0.17763568394E-14  0.75345145470E+03  0.87784225838E+03  0.45046413399E+03 0.  0.
      99925    2    3    3    0    0  0.69931244074E+02  0.13340410463E+02  0.63634879550E+03  0.69229203246E+03  0.26317318104E+03 0.  0.
         25    1    4    4    0    0  0.82226099445E+01  0.35589928896E+02  0.33610935329E+03  0.36048753074E+03  0.12509000000E+03 0.  0.
         25    1    3    3    0    0 -0.69931244074E+02 -0.13340410463E+02  0.11710265919E+03  0.18555022592E+03  0.12509000000E+03 0.  0.
         25    1    4    4    0    0  0.61708634130E+02 -0.22249518433E+02  0.30023944222E+03  0.33180450172E+03  0.12509000000E+03 0.  0.
<mgrwt>
<rscale>  2 0.45046413E+03</rscale>
<asrwt>0</asrwt>
<pdfrwt beam="1">  1       21 0.11994806E+00 0.45046413E+03</pdfrwt>
<pdfrwt beam="2">  1       21 0.91463831E-02 0.45046413E+03</pdfrwt>
<totfact> 0.45811540E+04</totfact>
</mgrwt>
</event>
<event>
 7    0  0.4752811E-002  0.4556566E+03  0.7546771E-02  0.1026048E+00
         21   -1    0    0  502  501  0.00000000000E+00  0.00000000000E+00  0.69652253301E+02  0.69652253301E+02  0.00000000000E+00 0.  1.
         21   -1    0    0  501  502 -0.00000000000E+00 -0.00000000000E+00 -0.74521258537E+03  0.74521258537E+03  0.00000000000E+00 0.  1.
      99926    2    1    2    0    0 -0.71054273576E-14  0.00000000000E+00 -0.67556033207E+03  0.81486483867E+03  0.45565660649E+03 0.  0.
      99925    2    3    3    0    0 -0.52359502768E+02 -0.57584539776E+02 -0.57385851849E+03  0.63584455005E+03  0.26253989380E+03 0.  0.
         25    1    4    4    0    0 -0.33397284112E+02 -0.37021575592E+02 -0.38260097087E+03  0.40560693616E+03  0.12509000000E+03 0.  0.
         25    1    4    4    0    0 -0.18962218657E+02 -0.20562964185E+02 -0.19125754761E+03  0.23023761389E+03  0.12509000000E+03 0.  0.
         25    1    3    3    0    0  0.52359502768E+02  0.57584539776E+02 -0.10170181358E+03  0.17902028862E+03  0.12509000000E+03 0.  0.
<mgrwt>
<rscale>  2 0.45565661E+03</rscale>
<asrwt>0</asrwt>
<pdfrwt beam="1">  1       21 0.10242979E-01 0.45565661E+03</pdfrwt>
<pdfrwt beam="2">  1       21 0.10959008E+00 0.45565661E+03</pdfrwt>
<totfact> 0.46812548E+04</totfact>
</mgrwt>
</event>
<event>
 7    0  0.4752811E-002  0.4540632E+03  0.7546771E-02  0.1026517E+00
         21   -1    0    0  502  501  0.00000000000E+00  0.00000000000E+00  0.30158891413E+03  0.30158891413E+03  0.00000000000E+00 0. -1.
         21   -1    0    0  501  502 -0.00000000000E+00 -0.00000000000E+00 -0.17090600926E+03  0.17090600926E+03  0.00000000000E+00 0. -1.
      99926    2    1    2    0    0 -0.14210854715E-13 -0.88817841970E-15  0.13068290487E+03  0.47249492339E+03  0.45406324560E+03 0.  0.
      99925    2    3    3    0    0 -0.10958240915E+03 -0.77533578582E+01  0.10601047950E+03  0.30419561969E+03  0.26311277871E+03 0.  0.
         25    1    4    4    0    0 -0.69451307101E+02 -0.57091167218E+01  0.14163572358E+02  0.14388951648E+03  0.12509000000E+03 0.  0.
         25    1    4    4    0    0 -0.40131102047E+02 -0.20442411364E+01  0.91846907140E+02  0.16030610320E+03  0.12509000000E+03 0.  0.
         25    1    3    3    0    0  0.10958240915E+03  0.77533578582E+01  0.24672425371E+02  0.16829930370E+03  0.12509000000E+03 0.  0.
<mgrwt>
<rscale>  2 0.45406325E+03</rscale>
<asrwt>0</asrwt>
<pdfrwt beam="1">  1       21 0.44351311E-01 0.45406325E+03</pdfrwt>
<pdfrwt beam="2">  1       21 0.25133237E-01 0.45406325E+03</pdfrwt>
<totfact> 0.67752860E+04</totfact>
</mgrwt>
</event>
<event>
 7    0  0.4752811E-002  0.4626435E+03  0.7546771E-02  0.1024017E+00
         21   -1    0    0  502  501  0.00000000000E+00  0.00000000000E+00  0.60298289057E+02  0.60298289057E+02  0.00000000000E+00 0.  1.
         21   -1    0    0  501  502 -0.00000000000E+00 -0.00000000000E+00 -0.88741730667E+03  0.88741730667E+03  0.00000000000E+00 0.  1.
      99926    2    1    2    0    0  0.00000000000E+00  0.71054273576E-14 -0.82711901761E+03  0.94771559573E+03  0.46264347081E+03 0.  0.
      99925    2    3    3    0    0  0.10544359723E+03 -0.51865271367E+02 -0.46501608845E+03  0.54699824150E+03  0.26298052231E+03 0.  0.
         25    1    4    4    0    0  0.88755539600E+02 -0.39002454627E+02 -0.21893744469E+03  0.27014783002E+03  0.12509000000E+03 0.  0.
         25    1    4    4    0    0  0.16688057633E+02 -0.12862816739E+02 -0.24607864375E+03  0.27685041148E+03  0.12509000000E+03 0.  0.
         25    1    3    3    0    0 -0.10544359723E+03  0.51865271367E+02 -0.36210292916E+03  0.40071735423E+03  0.12509000000E+03 0.  0.
<mgrwt>
<rscale>  2 0.46264347E+03</rscale>
<asrwt>0</asrwt>
<pdfrwt beam="1">  1       21 0.88673966E-02 0.46264347E+03</pdfrwt>
<pdfrwt beam="2">  1       21 0.13050253E+00 0.46264347E+03</pdfrwt>
<totfact> 0.38858254E+04</totfact>
</mgrwt>
</event>
<event>
 7    0  0.4752811E-002  0.4520604E+03  0.7546771E-02  0.1027109E+00
         21   -1    0    0  502  501  0.00000000000E+00  0.00000000000E+00  0.74391142316E+03  0.74391142316E+03  0.00000000000E+00 0.  1.
         21   -1    0    0  501  502 -0.00000000000E+00 -0.00000000000E+00 -0.68677075336E+02  0.68677075336E+02  0.00000000000E+00 0.  1.
      99926    2    1    2    0    0  0.00000000000E+00  0.00000000000E+00  0.67523434782E+03  0.81258849849E+03  0.45206044220E+03 0.  0.
      99925    2    3    3    0    0  0.29105220191E+02  0.40986779970E+02  0.60242969358E+03  0.65937278209E+03  0.26329432214E+03 0.  0.
         25    1    4    4    0    0 -0.19083017548E+02  0.42141315888E+02  0.27795513778E+03  0.30829631652E+03  0.12509000000E+03 0.  0.
         25    1    4    4    0    0  0.48188237739E+02 -0.11545359184E+01  0.32447455581E+03  0.35107646557E+03  0.12509000000E+03 0.  0.
         25    1    3    3    0    0 -0.29105220191E+02 -0.40986779970E+02  0.72804654236E+02  0.15321571640E+03  0.12509000000E+03 0.  0.
<mgrwt>
<rscale>  2 0.45206044E+03</rscale>
<asrwt>0</asrwt>
<pdfrwt beam="1">  1       21 0.10939873E+00 0.45206044E+03</pdfrwt>
<pdfrwt beam="2">  1       21 0.10099570E-01 0.45206044E+03</pdfrwt>
<totfact> 0.48265692E+04</totfact>
</mgrwt>
</event>
<event>
 7    0  0.4752811E-002  0.4587457E+03  0.7546771E-02  0.1025146E+00
         21   -1    0    0  502  501  0.00000000000E+00  0.00000000000E+00  0.33342852028E+03  0.33342852028E+03  0.00000000000E+00 0. -1.
         21   -1    0    0  501  502 -0.00000000000E+00 -0.00000000000E+00 -0.15779063427E+03  0.15779063427E+03  0.00000000000E+00 0. -1.
      99926    2    1    2    0    0  0.00000000000E+00 -0.14210854715E-13  0.17563788601E+03  0.49121915454E+03  0.45874567114E+03 0.  0.
      99925    2    3    3    0    0 -0.65542755557E+02  0.72230396684E+02  0.17866237957E+03  0.33256941873E+03  0.26300016995E+03 0.  0.
         25    1    3    3    0    0  0.65542755557E+02 -0.72230396684E+02 -0.30244935583E+01  0.15864973581E+03  0.12509000000E+03 0.  0.
         25    1    4    4    0    0 -0.55621919785E+02  0.70857178076E+02  0.11140083082E+03  0.19018988105E+03  0.12509000000E+03 0.  0.
         25    1    4    4    0    0 -0.99208357715E+01  0.13732186078E+01  0.67261548749E+02  0.14237953769E+03  0.12509000000E+03 0.  0.
<mgrwt>
<rscale>  2 0.45874567E+03</rscale>
<asrwt>0</asrwt>
<pdfrwt beam="1">  1       21 0.49033606E-01 0.45874567E+03</pdfrwt>
<pdfrwt beam="2">  1       21 0.23204505E-01 0.45874567E+03</pdfrwt>
<totfact> 0.63968642E+04</totfact>
</mgrwt>
</event>
<event>
 7    0  0.4752811E-002  0.4532207E+03  0.7546771E-02  0.1026766E+00
         21   -1    0    0  502  501  0.00000000000E+00  0.00000000000E+00  0.15108808346E+03  0.15108808346E+03  0.00000000000E+00 0.  1.
         21   -1    0    0  501  502 -0.00000000000E+00 -0.00000000000E+00 -0.33988286184E+03  0.33988286184E+03  0.00000000000E+00 0.  1.
      99926    2    1    2    0    0  0.00000000000E+00  0.00000000000E+00 -0.18879477839E+03  0.49097094530E+03  0.45322069765E+03 0.  0.
      99925    2    3    3    0    0  0.62698026503E+02 -0.64924872151E+02 -0.48126047031E+02  0.28220916328E+03  0.26302017771E+03 0.  0.
         25    1    4    4    0    0  0.39379167940E+01 -0.39057145562E+02  0.67443620339E+01  0.13127818679E+03  0.12509000000E+03 0.  0.
         25    1    4    4    0    0  0.58760109709E+02 -0.25867726590E+02 -0.54870409065E+02  0.15093097649E+03  0.12509000000E+03 0.  0.
         25    1    3    3    0    0 -0.62698026503E+02  0.64924872151E+02 -0.14066873135E+03  0.20876178202E+03  0.12509000000E+03 0.  0.
<mgrwt>
<rscale>  2 0.45322070E+03</rscale>
<asrwt>0</asrwt>
<pdfrwt beam="1">  1       21 0.22218836E-01 0.45322070E+03</pdfrwt>
<pdfrwt beam="2">  1       21 0.49982773E-01 0.45322070E+03</pdfrwt>
<totfact> 0.66849032E+04</totfact>
</mgrwt>
</event>
<event>
 7    0  0.4752811E-002  0.4546311E+03  0.7546771E-02  0.1026350E+00
         21   -1    0    0  502  501  0.00000000000E+00  0.00000000000E+00  0.35589281460E+03  0.35589281460E+03  0.00000000000E+00 0. -1.
         21   -1    0    0  501  502 -0.00000000000E+00 -0.00000000000E+00 -0.14519077549E+03  0.14519077549E+03  0.00000000000E+00 0. -1.
      99926    2    1    2    0    0  0.00000000000E+00  0.00000000000E+00  0.21070203911E+03  0.50108359009E+03  0.45463107568E+03 0.  0.
      99925    2    3    3    0    0 -0.91182490171E+02  0.46802810268E+02  0.18468179840E+03  0.33728703766E+03  0.26296469259E+03 0.  0.
         25    1    4    4    0    0 -0.13297519097E+02 -0.19536076790E+00  0.64200666714E+02  0.14123064783E+03  0.12509000000E+03 0.  0.
         25    1    4    4    0    0 -0.77884971074E+02  0.46998171036E+02  0.12048113168E+03  0.19605638983E+03  0.12509000000E+03 0.  0.
         25    1    3    3    0    0  0.91182490171E+02 -0.46802810268E+02  0.26020240717E+02  0.16379655244E+03  0.12509000000E+03 0.  0.
<mgrwt>
<rscale>  2 0.45463108E+03</rscale>
<asrwt>0</asrwt>
<pdfrwt beam="1">  1       21 0.52337178E-01 0.45463108E+03</pdfrwt>
<pdfrwt beam="2">  1       21 0.21351585E-01 0.45463108E+03</pdfrwt>
<totfact> 0.65385875E+04</totfact>
</mgrwt>
</event>
<event>
 7    0  0.4752811E-002  0.4595967E+03  0.7546771E-02  0.1024898E+00
         21   -1    0    0  502  501  0.00000000000E+00  0.00000000000E+00  0.69549973027E+02  0.69549973027E+02  0.00000000000E+00 0. -1.
         21   -1    0    0  501  502 -0.00000000000E+00 -0.00000000000E+00 -0.75927121709E+03  0.75927121709E+03  0.00000000000E+00 0. -1.
      99926    2    1    2    0    0  0.14210854715E-13  0.00000000000E+00 -0.68972124407E+03  0.82882119012E+03  0.45959674789E+03 0.  0.
      99925    2    3    3    0    0 -0.73428252027E+02 -0.38262898478E+02 -0.58248888308E+03  0.64442475594E+03  0.26293385016E+03 0.  0.
         25    1    4    4    0    0 -0.64955111118E+02 -0.25397191388E+02 -0.24003801139E+03  0.27951733184E+03  0.12509000000E+03 0.  0.
         25    1    4    4    0    0 -0.84731409094E+01 -0.12865707090E+02 -0.34245087170E+03  0.36490742410E+03  0.12509000000E+03 0.  0.
         25    1    3    3    0    0  0.73428252027E+02  0.38262898478E+02 -0.10723236099E+03  0.18439643418E+03  0.12509000000E+03 0.  0.
<mgrwt>
<rscale>  2 0.45959675E+03</rscale>
<asrwt>0</asrwt>
<pdfrwt beam="1">  1       21 0.10227936E-01 0.45959675E+03</pdfrwt>
<pdfrwt beam="2">  1       21 0.11165754E+00 0.45959675E+03</pdfrwt>
<totfact> 0.44765617E+04</totfact>
</mgrwt>
</event>
<event>
 7    0  0.4752811E-002  0.4742067E+03  0.7546771E-02  0.1020740E+00
         21   -1    0    0  502  501  0.00000000000E+00  0.00000000000E+00  0.23080129103E+02  0.23080129103E+02  0.00000000000E+00 0.  1.
         21   -1    0    0  501  502 -0.00000000000E+00 -0.00000000000E+00 -0.24357750069E+04  0.24357750069E+04  0.00000000000E+00 0.  1.
      99926    2    1    2    0    0  0.13322676296E-14  0.00000000000E+00 -0.24126948778E+04  0.24588551360E+04  0.47420671284E+03 0.  0.
      99925    2    3    3    0    0 -0.10122133112E+01 -0.11582812496E+03 -0.11835739769E+04  0.12179671974E+04  0.26302006765E+03 0.  0.
         25    1    4    4    0    0 -0.40640940071E+02 -0.58635151758E+02 -0.56805280436E+03  0.58602155564E+03  0.12509000000E+03 0.  0.
         25    1    3    3    0    0  0.10122133112E+01  0.11582812496E+03 -0.12291209008E+04  0.12408879386E+04  0.12509000000E+03 0.  0.
         25    1    4    4    0    0  0.39628726760E+02 -0.57192973201E+02 -0.61552117259E+03  0.63194564178E+03  0.12509000000E+03 0.  0.
<mgrwt>
<rscale>  2 0.47420671E+03</rscale>
<asrwt>0</asrwt>
<pdfrwt beam="1">  1       21 0.33941380E-02 0.47420671E+03</pdfrwt>
<pdfrwt beam="2">  1       21 0.35820207E+00 0.47420671E+03</pdfrwt>
<totfact> 0.65312119E+03</totfact>
</mgrwt>
</event>
<event>
 6    0  0.4752811E-002  0.4574440E+03  0.7546771E-02  0.1025525E+00
         21   -1    0    0  502  501  0.00000000000E+00  0.00000000000E+00  0.43585039000E+03  0.43585039000E+03  0.00000000000E+00 0.  1.
         21   -1    0    0  501  502 -0.00000000000E+00 -0.00000000000E+00 -0.12002686634E+03  0.12002686634E+03  0.00000000000E+00 0.  1.
      99926    2    1    2    0    0  0.00000000000E+00 -0.35527136788E-14  0.31582352367E+03  0.55587725634E+03  0.45744401408E+03 0.  0.
         25    1    3    3    0    0 -0.10366049536E+03 -0.18855444677E+02  0.88628239333E+02  0.18602015751E+03  0.12509000000E+03 0.  0.
         25    1    3    3    0    0  0.17050419280E+02 -0.31409171669E+02  0.12067438354E+03  0.17744595742E+03  0.12509000000E+03 0.  0.
         25    1    3    3    0    0  0.86610076079E+02  0.50264616346E+02  0.10652090079E+03  0.19241114141E+03  0.12509000000E+03 0.  0.
<mgrwt>
<rscale>  2 0.45744401E+03</rscale>
<asrwt>0</asrwt>
<pdfrwt beam="1">  1       21 0.64095645E-01 0.45744401E+03</pdfrwt>
<pdfrwt beam="2">  1       21 0.17651010E-01 0.45744401E+03</pdfrwt>
<totfact> 0.60305371E+04</totfact>
</mgrwt>
</event>
<event>
 7    0  0.4752811E-002  0.4577126E+03  0.7546771E-02  0.1025447E+00
         21   -1    0    0  502  501  0.00000000000E+00  0.00000000000E+00  0.48545432859E+02  0.48545432859E+02  0.00000000000E+00 0. -1.
         21   -1    0    0  501  502 -0.00000000000E+00 -0.00000000000E+00 -0.10788903626E+04  0.10788903626E+04  0.00000000000E+00 0. -1.
      99926    2    1    2    0    0 -0.44408920985E-15 -0.14210854715E-13 -0.10303449297E+04  0.11274357954E+04  0.45771257207E+03 0.  0.
      99925    2    3    3    0    0 -0.36776693834E+01  0.72824442432E+02 -0.86800799810E+03  0.90990944729E+03  0.26302165849E+03 0.  0.
         25    1    4    4    0    0  0.11942353974E+02  0.64623981722E+02 -0.36816852383E+03  0.39435320319E+03  0.12509000000E+03 0.  0.
         25    1    4    4    0    0 -0.15620023358E+02  0.82004607096E+01 -0.49983947428E+03  0.51555624410E+03  0.12509000000E+03 0.  0.
         25    1    3    3    0    0  0.36776693834E+01 -0.72824442432E+02 -0.16233693159E+03  0.21752634812E+03  0.12509000000E+03 0.  0.
<mgrwt>
<rscale>  2 0.45771257E+03</rscale>
<asrwt>0</asrwt>
<pdfrwt beam="1">  1       21 0.71390346E-02 0.45771257E+03</pdfrwt>
<pdfrwt beam="2">  1       21 0.15866034E+00 0.45771257E+03</pdfrwt>
<totfact> 0.33823815E+04</totfact>
</mgrwt>
</event>
<event>
 7    0  0.4752811E-002  0.4230980E+03  0.7546771E-02  0.1036063E+00
         21   -1    0    0  502  501  0.00000000000E+00  0.00000000000E+00  0.44267865037E+03  0.44267865037E+03  0.00000000000E+00 0.  1.
         21   -1    0    0  501  502 -0.00000000000E+00 -0.00000000000E+00 -0.10109584558E+03  0.10109584558E+03  0.00000000000E+00 0.  1.
      99926    2    1    2    0    0 -0.88817841970E-15  0.00000000000E+00  0.34158280479E+03  0.54377449594E+03  0.42309796727E+03 0.  0.
      99925    2    3    3    0    0  0.79544131139E+01 -0.30801379211E+02  0.12805992853E+03  0.29427194197E+03  0.26302971864E+03 0.  0.
         25    1    4    4    0    0  0.42771047794E+01 -0.56266146515E+02  0.65098521240E+02  0.15188646561E+03  0.12509000000E+03 0.  0.
         25    1    4    4    0    0  0.36773083345E+01  0.25464767304E+02  0.62961407286E+02  0.14238547636E+03  0.12509000000E+03 0.  0.
         25    1    3    3    0    0 -0.79544131139E+01  0.30801379211E+02  0.21352287626E+03  0.24950255397E+03  0.12509000000E+03 0.  0.
<mgrwt>
<rscale>  2 0.42309797E+03</rscale>
<asrwt>0</asrwt>
<pdfrwt beam="1">  1       21 0.65099801E-01 0.42309797E+03</pdfrwt>
<pdfrwt beam="2">  1       21 0.14867036E-01 0.42309797E+03</pdfrwt>
<totfact> 0.80833370E+04</totfact>
</mgrwt>
</event>
<event>
 7    0  0.4752811E-002  0.4236004E+03  0.7546771E-02  0.1035901E+00
         21   -1    0    0  502  501  0.00000000000E+00  0.00000000000E+00  0.28957638045E+03  0.28957638045E+03  0.00000000000E+00 0. -1.
         21   -1    0    0  501  502 -0.00000000000E+00 -0.00000000000E+00 -0.15491361676E+03  0.15491361676E+03  0.00000000000E+00 0. -1.
      99926    2    1    2    0    0  0.00000000000E+00  0.71054273576E-14  0.13466276369E+03  0.44448999721E+03  0.42360039860E+03 0.  0.
      99925    2    3    3    0    0  0.51292237049E+02 -0.49894770454E+02  0.49420476367E+02  0.27705601814E+03  0.26305374356E+03 0.  0.
         25    1    4    4    0    0  0.39969175920E+02 -0.63386362645E+02  0.34590639899E+02  0.14986456039E+03  0.12509000000E+03 0.  0.
         25    1    3    3    0    0 -0.51292237049E+02  0.49894770454E+02  0.85242287323E+02  0.16743397907E+03  0.12509000000E+03 0.  0.
         25    1    4    4    0    0  0.11323061129E+02  0.13491592191E+02  0.14829836468E+02  0.12719145774E+03  0.12509000000E+03 0.  0.
<mgrwt>
<rscale>  2 0.42360040E+03</rscale>
<asrwt>0</asrwt>
<pdfrwt beam="1">  1       21 0.42584762E-01 0.42360040E+03</pdfrwt>
<pdfrwt beam="2">  1       21 0.22781414E-01 0.42360040E+03</pdfrwt>
<totfact> 0.89735854E+04</totfact>
</mgrwt>
</event>
<event>
 7    0  0.4752811E-002  0.3944530E+03  0.7546771E-02  0.1045718E+00
         21   -1    0    0  502  501  0.00000000000E+00  0.00000000000E+00  0.87282887298E+03  0.87282887298E+03  0.00000000000E+00 0.  1.
         21   -1    0    0  501  502 -0.00000000000E+00 -0.00000000000E+00 -0.44565772635E+02  0.44565772635E+02  0.00000000000E+00 0.  1.
      99926    2    1    2    0    0  0.00000000000E+00  0.35527136788E-14  0.82826310034E+03  0.91739464562E+03  0.39445300406E+03 0.  0.
      99925    2    3    3    0    0 -0.14802747847E+02 -0.22862572430E+02  0.51337204038E+03  0.57747449866E+03  0.26302875545E+03 0.  0.
         25    1    3    3    0    0  0.14802747847E+02  0.22862572430E+02  0.31489105997E+03  0.33992014696E+03  0.12509000000E+03 0.  0.
         25    1    4    4    0    0 -0.15559247759E+02  0.36139683502E+01  0.17462142215E+03  0.21539568271E+03  0.12509000000E+03 0.  0.
         25    1    4    4    0    0  0.75649991209E+00 -0.26476540780E+02  0.33875061823E+03  0.36207881594E+03  0.12509000000E+03 0.  0.
<mgrwt>
<rscale>  2 0.39445300E+03</rscale>
<asrwt>0</asrwt>
<pdfrwt beam="1">  1       21 0.12835718E+00 0.39445300E+03</pdfrwt>
<pdfrwt beam="2">  1       21 0.65537906E-02 0.39445300E+03</pdfrwt>
<totfact> 0.70367243E+04</totfact>
</mgrwt>
</event>
<event>
 7    0  0.4752811E-002  0.4565205E+03  0.7546771E-02  0.1025795E+00
         21   -1    0    0  502  501  0.00000000000E+00  0.00000000000E+00  0.13269697626E+03  0.13269697626E+03  0.00000000000E+00 0. -1.
         21   -1    0    0  501  502 -0.00000000000E+00 -0.00000000000E+00 -0.39264448355E+03  0.39264448355E+03  0.00000000000E+00 0. -1.
      99926    2    1    2    0    0  0.14210854715E-13  0.00000000000E+00 -0.25994750728E+03  0.52534145981E+03  0.45652047364E+03 0.  0.
      99925    2    3    3    0    0  0.10613643703E+03 -0.38579647710E+02 -0.14051120333E+03  0.31878427333E+03  0.26291953557E+03 0.  0.
         25    1    4    4    0    0  0.87962071745E+02 -0.11293724535E+02 -0.51335204157E+02  0.16170245999E+03  0.12509000000E+03 0.  0.
         25    1    4    4    0    0  0.18174365281E+02 -0.27285923175E+02 -0.89175999170E+02  0.15708181335E+03  0.12509000000E+03 0.  0.
         25    1    3    3    0    0 -0.10613643703E+03  0.38579647710E+02 -0.11943630396E+03  0.20655718648E+03  0.12509000000E+03 0.  0.
<mgrwt>
<rscale>  2 0.45652047E+03</rscale>
<asrwt>0</asrwt>
<pdfrwt beam="1">  1       21 0.19514261E-01 0.45652047E+03</pdfrwt>
<pdfrwt beam="2">  1       21 0.57741836E-01 0.45652047E+03</pdfrwt>
<totfact> 0.62763042E+04</totfact>
</mgrwt>
</event>
<event>
 7    0  0.4752811E-002  0.4560124E+03  0.7546771E-02  0.1025944E+00
         21   -1    0    0  502  501  0.00000000000E+00  0.00000000000E+00  0.13600390350E+03  0.13600390350E+03  0.00000000000E+00 0.  1.
         21   -1    0    0  501  502 -0.00000000000E+00 -0.00000000000E+00 -0.38224505186E+03  0.38224505186E+03  0.00000000000E+00 0.  1.
      99926    2    1    2    0    0  0.00000000000E+00  0.00000000000E+00 -0.24624114837E+03  0.51824895536E+03  0.45601236450E+03 0.  0.
      99925    2    3    3    0    0  0.10127030854E+03  0.35658692382E+02 -0.11204121893E+03  0.30568285530E+03  0.26336582077E+03 0.  0.
         25    1    4    4    0    0  0.57890544986E+02  0.51275260070E+02 -0.33085353202E+02  0.15074022751E+03  0.12509000000E+03 0.  0.
         25    1    4    4    0    0  0.43379763552E+02 -0.15616567688E+02 -0.78955865727E+02  0.15494262779E+03  0.12509000000E+03 0.  0.
         25    1    3    3    0    0 -0.10127030854E+03 -0.35658692382E+02 -0.13419992944E+03  0.21256610006E+03  0.12509000000E+03 0.  0.
<mgrwt>
<rscale>  2 0.45601236E+03</rscale>
<asrwt>0</asrwt>
<pdfrwt beam="1">  1       21 0.20000574E-01 0.45601236E+03</pdfrwt>
<pdfrwt beam="2">  1       21 0.56212506E-01 0.45601236E+03</pdfrwt>
<totfact> 0.63495171E+04</totfact>
</mgrwt>
</event>
<event>
 7    0  0.4752811E-002  0.4386989E+03  0.7546771E-02  0.1031147E+00
         21   -1    0    0  502  501  0.00000000000E+00  0.00000000000E+00  0.80734283507E+03  0.80734283507E+03  0.00000000000E+00 0. -1.
         21   -1    0    0  501  502 -0.00000000000E+00 -0.00000000000E+00 -0.59595719767E+02  0.59595719767E+02  0.00000000000E+00 0. -1.
      99926    2    1    2    0    0  0.00000000000E+00  0.71054273576E-14  0.74774711530E+03  0.86693855484E+03  0.43869888240E+03 0.  0.
      99925    2    3    3    0    0 -0.59640355297E+02  0.57122729288E+02  0.37731550428E+03  0.46732991539E+03  0.26307847092E+03 0.  0.
         25    1    3    3    0    0  0.59640355297E+02 -0.57122729288E+02  0.37043161102E+03  0.39960863945E+03  0.12509000000E+03 0.  0.
         25    1    4    4    0    0 -0.58632972086E+02  0.14585001704E+01  0.20564370789E+03  0.24774340624E+03  0.12509000000E+03 0.  0.
         25    1    4    4    0    0 -0.10073832109E+01  0.55664229117E+02  0.17167179639E+03  0.21958650915E+03  0.12509000000E+03 0.  0.
<mgrwt>
<rscale>  2 0.43869888E+03</rscale>
<asrwt>0</asrwt>
<pdfrwt beam="1">  1       21 0.11872688E+00 0.43869888E+03</pdfrwt>
<pdfrwt beam="2">  1       21 0.87640769E-02 0.43869888E+03</pdfrwt>
<totfact> 0.50886792E+04</totfact>
</mgrwt>
</event>
<event>
 7    0  0.4752811E-002  0.4576221E+03  0.7546771E-02  0.1025473E+00
         21   -1    0    0  502  501  0.00000000000E+00  0.00000000000E+00  0.53748788159E+02  0.53748788159E+02  0.00000000000E+00 0. -1.
         21   -1    0    0  501  502 -0.00000000000E+00 -0.00000000000E+00 -0.97405908004E+03  0.97405908004E+03  0.00000000000E+00 0. -1.
      99926    2    1    2    0    0 -0.35527136788E-14  0.00000000000E+00 -0.92031029188E+03  0.10278078682E+04  0.45762209364E+03 0.  0.
      99925    2    3    3    0    0  0.30698392204E+02 -0.77223663286E+02 -0.39731315709E+03  0.48367608586E+03  0.26301886962E+03 0.  0.
         25    1    3    3    0    0 -0.30698392204E+02  0.77223663286E+02 -0.52299713480E+03  0.54413178235E+03  0.12509000000E+03 0.  0.
         25    1    4    4    0    0 -0.16538672979E+02 -0.49453260181E+02 -0.23763699012E+03  0.27356534836E+03  0.12509000000E+03 0.  0.
         25    1    4    4    0    0  0.47237065183E+02 -0.27770403105E+02 -0.15967616696E+03  0.21011073750E+03  0.12509000000E+03 0.  0.
<mgrwt>
<rscale>  2 0.45762209E+03</rscale>
<asrwt>0</asrwt>
<pdfrwt beam="1">  1       21 0.79042332E-02 0.45762209E+03</pdfrwt>
<pdfrwt beam="2">  1       21 0.14324399E+00 0.45762209E+03</pdfrwt>
<totfact> 0.37332267E+04</totfact>
</mgrwt>
</event>
<event>
 7    0  0.4752811E-002  0.4490545E+03  0.7546771E-02  0.1028004E+00
         21   -1    0    0  502  501  0.00000000000E+00  0.00000000000E+00  0.23263401916E+03  0.23263401916E+03  0.00000000000E+00 0.  1.
         21   -1    0    0  501  502 -0.00000000000E+00 -0.00000000000E+00 -0.21670296442E+03  0.21670296442E+03  0.00000000000E+00 0.  1.
      99926    2    1    2    0    0 -0.14210854715E-13  0.00000000000E+00  0.15931054735E+02  0.44933698357E+03  0.44905448033E+03 0.  0.
      99925    2    3    3    0    0 -0.71146485548E+02  0.10169038310E+02  0.90082113337E+02  0.28712995741E+03  0.26298972138E+03 0.  0.
         25    1    4    4    0    0 -0.64835055078E+02  0.19965838750E+02  0.74240255443E+02  0.16050340405E+03  0.12509000000E+03 0.  0.
         25    1    4    4    0    0 -0.63114304694E+01 -0.97968004398E+01  0.15841857893E+02  0.12662655336E+03  0.12509000000E+03 0.  0.
         25    1    3    3    0    0  0.71146485548E+02 -0.10169038310E+02 -0.74151058601E+02  0.16220702617E+03  0.12509000000E+03 0.  0.
<mgrwt>
<rscale>  2 0.44905448E+03</rscale>
<asrwt>0</asrwt>
<pdfrwt beam="1">  1       21 0.34210885E-01 0.44905448E+03</pdfrwt>
<pdfrwt beam="2">  1       21 0.31868083E-01 0.44905448E+03</pdfrwt>
<totfact> 0.72333681E+04</totfact>
</mgrwt>
</event>
<event>
 7    0  0.4752811E-002  0.4074209E+03  0.7546771E-02  0.1041240E+00
         21   -1    0    0  502  501  0.00000000000E+00  0.00000000000E+00  0.42508893062E+03  0.42508893062E+03  0.00000000000E+00 0.  1.
         21   -1    0    0  501  502 -0.00000000000E+00 -0.00000000000E+00 -0.97621785394E+02  0.97621785394E+02  0.00000000000E+00 0.  1.
      99926    2    1    2    0    0  0.71054273576E-14  0.17763568394E-14  0.32746714522E+03  0.52271071601E+03  0.40742086524E+03 0.  0.
      99925    2    3    3    0    0  0.28761759426E+02  0.90865103106E+01  0.28065974327E+03  0.38578648714E+03  0.26296676347E+03 0.  0.
         25    1    3    3    0    0 -0.28761759426E+02 -0.90865103106E+01  0.46807401950E+02  0.13692422887E+03  0.12509000000E+03 0.  0.
         25    1    4    4    0    0 -0.83026826369E+01 -0.22190456234E+02  0.10678188962E+03  0.16616627497E+03  0.12509000000E+03 0.  0.
         25    1    4    4    0    0  0.37064442063E+02  0.31276966545E+02  0.17387785365E+03  0.21962021217E+03  0.12509000000E+03 0.  0.
<mgrwt>
<rscale>  2 0.40742087E+03</rscale>
<asrwt>0</asrwt>
<pdfrwt beam="1">  1       21 0.62513077E-01 0.40742087E+03</pdfrwt>
<pdfrwt beam="2">  1       21 0.14356145E-01 0.40742087E+03</pdfrwt>
<totfact> 0.94626541E+04</totfact>
</mgrwt>
</event>
<event>
 7    0  0.4752811E-002  0.4569371E+03  0.7546771E-02  0.1025673E+00
         21   -1    0    0  502  501  0.00000000000E+00  0.00000000000E+00  0.25692403724E+03  0.25692403724E+03  0.00000000000E+00 0. -1.
         21   -1    0    0  501  502 -0.00000000000E+00 -0.00000000000E+00 -0.20316463130E+03  0.20316463130E+03  0.00000000000E+00 0. -1.
      99926    2    1    2    0    0  0.00000000000E+00  0.00000000000E+00  0.53759405937E+02  0.46008866854E+03  0.45693709544E+03 0.  0.
      99925    2    3    3    0    0 -0.68881864378E+02 -0.90079307828E+02  0.52680879891E+02  0.29124654033E+03  0.26304045166E+03 0.  0.
         25    1    4    4    0    0 -0.16844476896E+02 -0.47570252121E+02  0.63009351712E+02  0.14887696864E+03  0.12509000000E+03 0.  0.
         25    1    3    3    0    0  0.68881864378E+02  0.90079307828E+02  0.10785260456E+01  0.16884212821E+03  0.12509000000E+03 0.  0.
         25    1    4    4    0    0 -0.52037387482E+02 -0.42509055707E+02 -0.10328471821E+02  0.14236957169E+03  0.12509000000E+03 0.  0.
<mgrwt>
<rscale>  2 0.45693710E+03</rscale>
<asrwt>0</asrwt>
<pdfrwt beam="1">  1       21 0.37782947E-01 0.45693710E+03</pdfrwt>
<pdfrwt beam="2">  1       21 0.29877152E-01 0.45693710E+03</pdfrwt>
<totfact> 0.67130974E+04</totfact>
</mgrwt>
</event>
<event>
 7    0  0.4752811E-002  0.4862762E+03  0.7546771E-02  0.1017424E+00
         21   -1    0    0  502  501  0.00000000000E+00  0.00000000000E+00  0.55505249882E+03  0.55505249882E+03  0.00000000000E+00 0. -1.
         21   -1    0    0  501  502 -0.00000000000E+00 -0.00000000000E+00 -0.10650546737E+03  0.10650546737E+03  0.00000000000E+00 0. -1.
      99926    2    1    2    0    0 -0.35527136788E-14  0.88817841970E-15  0.44854703145E+03  0.66155796619E+03  0.48627615941E+03 0.  0.
      99925    2    3    3    0    0  0.30095870287E+02 -0.62227840888E+01  0.46150862263E+03  0.53209756531E+03  0.26304586253E+03 0.  0.
         25    1    4    4    0    0  0.95652133135E+01 -0.29688820521E+02  0.29151051478E+03  0.31874567871E+03  0.12509000000E+03 0.  0.
         25    1    3    3    0    0 -0.30095870287E+02  0.62227840888E+01 -0.12961591187E+02  0.12946040088E+03  0.12509000000E+03 0.  0.
         25    1    4    4    0    0  0.20530656973E+02  0.23466036432E+02  0.16999810785E+03  0.21335188660E+03  0.12509000000E+03 0.  0.
<mgrwt>
<rscale>  2 0.48627616E+03</rscale>
<asrwt>0</asrwt>
<pdfrwt beam="1">  1       21 0.81625366E-01 0.48627616E+03</pdfrwt>
<pdfrwt beam="2">  1       21 0.15662569E-01 0.48627616E+03</pdfrwt>
<totfact> 0.43321634E+04</totfact>
</mgrwt>
</event>
<event>
 7    0  0.4752811E-002  0.4577149E+03  0.7546771E-02  0.1025446E+00
         21   -1    0    0  502  501  0.00000000000E+00  0.00000000000E+00  0.39180456162E+02  0.39180456162E+02  0.00000000000E+00 0. -1.
         21   -1    0    0  501  502 -0.00000000000E+00 -0.00000000000E+00 -0.13367822298E+04  0.13367822298E+04  0.00000000000E+00 0. -1.
      99926    2    1    2    0    0  0.00000000000E+00  0.00000000000E+00 -0.12976017736E+04  0.13759626859E+04  0.45771492242E+03 0.  0.
      99925    2    3    3    0    0  0.83597226305E+02  0.78988600530E+02 -0.85115225072E+03  0.89826782533E+03  0.26305367676E+03 0.  0.
         25    1    4    4    0    0  0.58079101443E+02  0.37114738879E+02 -0.32071371747E+03  0.35107760188E+03  0.12509000000E+03 0.  0.
         25    1    4    4    0    0  0.25518124862E+02  0.41873861651E+02 -0.53043853325E+03  0.54719022345E+03  0.12509000000E+03 0.  0.
         25    1    3    3    0    0 -0.83597226305E+02 -0.78988600530E+02 -0.44644952290E+03  0.47769486061E+03  0.12509000000E+03 0.  0.
<mgrwt>
<rscale>  2 0.45771492E+03</rscale>
<asrwt>0</asrwt>
<pdfrwt beam="1">  1       21 0.57618318E-02 0.45771492E+03</pdfrwt>
<pdfrwt beam="2">  1       21 0.19658562E+00 0.45771492E+03</pdfrwt>
<totfact> 0.26417816E+04</totfact>
</mgrwt>
</event>
<event>
 7    0  0.4752811E-002  0.4576468E+03  0.7546771E-02  0.1025466E+00
         21   -1    0    0  502  501  0.00000000000E+00  0.00000000000E+00  0.47763580277E+03  0.47763580277E+03  0.00000000000E+00 0.  1.
         21   -1    0    0  501  502 -0.00000000000E+00 -0.00000000000E+00 -0.10962357830E+03  0.10962357830E+03  0.00000000000E+00 0.  1.
      99926    2    1    2    0    0  0.00000000000E+00  0.00000000000E+00  0.36801222447E+03  0.58725938106E+03  0.45764678879E+03 0.  0.
      99925    2    3    3    0    0 -0.93416356239E+02  0.63494635697E+02  0.26325195743E+03  0.38881441130E+03  0.26290087289E+03 0.  0.
         25    1    3    3    0    0  0.93416356239E+02 -0.63494635697E+02  0.10476026704E+03  0.19844496977E+03  0.12509000000E+03 0.  0.
         25    1    4    4    0    0 -0.16543545995E+02  0.36167897205E+02  0.85496453938E+02  0.15664915397E+03  0.12509000000E+03 0.  0.
         25    1    4    4    0    0 -0.76872810244E+02  0.27326738492E+02  0.17775550349E+03  0.23216525733E+03  0.12509000000E+03 0.  0.
<mgrwt>
<rscale>  2 0.45764679E+03</rscale>
<asrwt>0</asrwt>
<pdfrwt beam="1">  1       21 0.70240559E-01 0.45764679E+03</pdfrwt>
<pdfrwt beam="2">  1       21 0.16121115E-01 0.45764679E+03</pdfrwt>
<totfact> 0.58241367E+04</totfact>
</mgrwt>
</event>
<event>
 7    0  0.4752811E-002  0.4536421E+03  0.7546771E-02  0.1026641E+00
         21   -1    0    0  502  501  0.00000000000E+00  0.00000000000E+00  0.47645348459E+03  0.47645348459E+03  0.00000000000E+00 0. -1.
         21   -1    0    0  501  502 -0.00000000000E+00 -0.00000000000E+00 -0.10798070391E+03  0.10798070391E+03  0.00000000000E+00 0. -1.
      99926    2    1    2    0    0  0.00000000000E+00  0.14210854715E-13  0.36847278068E+03  0.58443418850E+03  0.45364207321E+03 0.  0.
      99925    2    3    3    0    0  0.84894758911E+02 -0.69573642219E+02  0.20410240318E+03  0.35052664078E+03  0.26298958749E+03 0.  0.
         25    1    4    4    0    0  0.11753478393E+02 -0.50328794927E+01  0.10165184812E+03  0.16169131225E+03  0.12509000000E+03 0.  0.
         25    1    4    4    0    0  0.73141280518E+02 -0.64540762727E+02  0.10245055506E+03  0.18883532853E+03  0.12509000000E+03 0.  0.
         25    1    3    3    0    0 -0.84894758911E+02  0.69573642219E+02  0.16437037749E+03  0.23390754772E+03  0.12509000000E+03 0.  0.
<mgrwt>
<rscale>  2 0.45364207E+03</rscale>
<asrwt>0</asrwt>
<pdfrwt beam="1">  1       21 0.70066688E-01 0.45364207E+03</pdfrwt>
<pdfrwt beam="2">  1       21 0.15879516E-01 0.45364207E+03</pdfrwt>
<totfact> 0.60291326E+04</totfact>
</mgrwt>
</event>
<event>
 7    0  0.4752811E-002  0.4563134E+03  0.7546771E-02  0.1025856E+00
         21   -1    0    0  502  501  0.00000000000E+00  0.00000000000E+00  0.25132236593E+03  0.25132236593E+03  0.00000000000E+00 0. -1.
         21   -1    0    0  501  502 -0.00000000000E+00 -0.00000000000E+00 -0.20712630135E+03  0.20712630135E+03  0.00000000000E+00 0. -1.
      99926    2    1    2    0    0 -0.71054273576E-14  0.00000000000E+00  0.44196064580E+02  0.45844866729E+03  0.45631336647E+03 0.  0.
      99925    2    3    3    0    0  0.47457399233E+02  0.99909561688E+02  0.56886073575E+02  0.29098921044E+03  0.26306761482E+03 0.  0.
         25    1    4    4    0    0  0.45099519000E+02  0.24393784674E+02  0.51768818701E+02  0.14476374558E+03  0.12509000000E+03 0.  0.
         25    1    4    4    0    0  0.23578802328E+01  0.75515777014E+02  0.51172548739E+01  0.14622546486E+03  0.12509000000E+03 0.  0.
         25    1    3    3    0    0 -0.47457399233E+02 -0.99909561688E+02 -0.12690008994E+02  0.16745945685E+03  0.12509000000E+03 0.  0.
<mgrwt>
<rscale>  2 0.45631337E+03</rscale>
<asrwt>0</asrwt>
<pdfrwt beam="1">  1       21 0.36959172E-01 0.45631337E+03</pdfrwt>
<pdfrwt beam="2">  1       21 0.30459750E-01 0.45631337E+03</pdfrwt>
<totfact> 0.67582912E+04</totfact>
</mgrwt>
</event>
<event>
 7    0  0.4752811E-002  0.4520291E+03  0.7546771E-02  0.1027119E+00
         21   -1    0    0  502  501  0.00000000000E+00  0.00000000000E+00  0.16570705478E+03  0.16570705478E+03  0.00000000000E+00 0.  1.
         21   -1    0    0  501  502 -0.00000000000E+00 -0.00000000000E+00 -0.30827042064E+03  0.30827042064E+03  0.00000000000E+00 0.  1.
      99926    2    1    2    0    0  0.00000000000E+00  0.00000000000E+00 -0.14256336586E+03  0.47397747541E+03  0.45202912950E+03 0.  0.
      99925    2    3    3    0    0  0.18636090460E+02 -0.42905502296E+02  0.15096456497E+02  0.26735629141E+03  0.26279896796E+03 0.  0.
         25    1    3    3    0    0 -0.18636090460E+02  0.42905502296E+02 -0.15765982236E+03  0.20662118401E+03  0.12509000000E+03 0.  0.
         25    1    4    4    0    0 -0.90910360278E+01 -0.13470907307E+00 -0.21870860644E+02  0.12731263774E+03  0.12509000000E+03 0.  0.
         25    1    4    4    0    0  0.27727126488E+02 -0.42770793223E+02  0.36967317142E+02  0.14004365367E+03  0.12509000000E+03 0.  0.
<mgrwt>
<rscale>  2 0.45202913E+03</rscale>
<asrwt>0</asrwt>
<pdfrwt beam="1">  1       21 0.24368685E-01 0.45202913E+03</pdfrwt>
<pdfrwt beam="2">  1       21 0.45333885E-01 0.45202913E+03</pdfrwt>
<totfact> 0.68747812E+04</totfact>
</mgrwt>
</event>
<event>
 7    0  0.4752811E-002  0.4398085E+03  0.7546771E-02  0.1030806E+00
         21   -1    0    0  502  501  0.00000000000E+00  0.00000000000E+00  0.32992672880E+03  0.32992672880E+03  0.00000000000E+00 0. -1.
         21   -1    0    0  501  502 -0.00000000000E+00 -0.00000000000E+00 -0.14657157558E+03  0.14657157558E+03  0.00000000000E+00 0. -1.
      99926    2    1    2    0    0  0.00000000000E+00  0.00000000000E+00  0.18335515322E+03  0.47649830438E+03  0.43980850590E+03 0.  0.
      99925    2    3    3    0    0 -0.95148928379E+02 -0.20099982766E+02  0.13129825803E+03  0.30972073899E+03  0.26311665801E+03 0.  0.
         25    1    4    4    0    0 -0.25716729065E+02 -0.44163965772E+02  0.70585025030E+02  0.15245182808E+03  0.12509000000E+03 0.  0.
         25    1    3    3    0    0  0.95148928379E+02  0.20099982766E+02  0.52056895194E+02  0.16677756539E+03  0.12509000000E+03 0.  0.
         25    1    4    4    0    0 -0.69432199314E+02  0.24063983006E+02  0.60713232995E+02  0.15726891091E+03  0.12509000000E+03 0.  0.
<mgrwt>
<rscale>  2 0.43980851E+03</rscale>
<asrwt>0</asrwt>
<pdfrwt beam="1">  1       21 0.48518636E-01 0.43980851E+03</pdfrwt>
<pdfrwt beam="2">  1       21 0.21554644E-01 0.43980851E+03</pdfrwt>
<totfact> 0.75678694E+04</totfact>
</mgrwt>
</event>
<event>
 7    0  0.4752811E-002  0.4596718E+03  0.7546771E-02  0.1024876E+00
         21   -1    0    0  502  501  0.00000000000E+00  0.00000000000E+00  0.28456424449E+02  0.28456424449E+02  0.00000000000E+00 0.  1.
         21   -1    0    0  501  502 -0.00000000000E+00 -0.00000000000E+00 -0.18563312631E+04  0.18563312631E+04  0.00000000000E+00 0.  1.
      99926    2    1    2    0    0  0.71054273576E-14  0.00000000000E+00 -0.18278748386E+04  0.18847876875E+04  0.45967184095E+03 0.  0.
      99925    2    3    3    0    0  0.30899086083E+02 -0.45954327140E+02 -0.15703175842E+04  0.15931546971E+04  0.26301714756E+03 0.  0.
         25    1    3    3    0    0 -0.30899086083E+02  0.45954327140E+02 -0.25755725445E+03  0.29163299046E+03  0.12509000000E+03 0.  0.
         25    1    4    4    0    0 -0.14461006649E+02  0.40474125649E+01 -0.68279822023E+03  0.69432443419E+03  0.12509000000E+03 0.  0.
         25    1    4    4    0    0  0.45360092732E+02 -0.50001739705E+02 -0.88751936395E+03  0.89883026288E+03  0.12509000000E+03 0.  0.
<mgrwt>
<rscale>  2 0.45967184E+03</rscale>
<asrwt>0</asrwt>
<pdfrwt beam="1">  1       21 0.41847680E-02 0.45967184E+03</pdfrwt>
<pdfrwt beam="2">  1       21 0.27298991E+00 0.45967184E+03</pdfrwt>
<totfact> 0.15127468E+04</totfact>
</mgrwt>
</event>
<event>
 7    0  0.4752811E-002  0.4545231E+03  0.7546771E-02  0.1026382E+00
         21   -1    0    0  502  501  0.00000000000E+00  0.00000000000E+00  0.87303673436E+02  0.87303673436E+02  0.00000000000E+00 0. -1.
         21   -1    0    0  501  502 -0.00000000000E+00 -0.00000000000E+00 -0.59158801341E+03  0.59158801341E+03  0.00000000000E+00 0. -1.
      99926    2    1    2    0    0  0.00000000000E+00  0.14210854715E-13 -0.50428433998E+03  0.67889168685E+03  0.45452307634E+03 0.  0.
      99925    2    3    3    0    0 -0.65614617470E+02  0.65383715801E+02 -0.41316342348E+03  0.49852861457E+03  0.26314721494E+03 0.  0.
         25    1    4    4    0    0 -0.32805206856E+02  0.73569420550E+02 -0.23723631241E+03  0.28003074343E+03  0.12509000000E+03 0.  0.
         25    1    4    4    0    0 -0.32809410615E+02 -0.81857047496E+01 -0.17592711107E+03  0.21849787115E+03  0.12509000000E+03 0.  0.
         25    1    3    3    0    0  0.65614617470E+02 -0.65383715801E+02 -0.91120916500E+02  0.18036307228E+03  0.12509000000E+03 0.  0.
<mgrwt>
<rscale>  2 0.45452308E+03</rscale>
<asrwt>0</asrwt>
<pdfrwt beam="1">  1       21 0.12838776E-01 0.45452308E+03</pdfrwt>
<pdfrwt beam="2">  1       21 0.86998237E-01 0.45452308E+03</pdfrwt>
<totfact> 0.54268046E+04</totfact>
</mgrwt>
</event>
<event>
 7    0  0.4752811E-002  0.4590676E+03  0.7546771E-02  0.1025052E+00
         21   -1    0    0  502  501  0.00000000000E+00  0.00000000000E+00  0.21128451787E+02  0.21128451787E+02  0.00000000000E+00 0. -1.
         21   -1    0    0  501  502 -0.00000000000E+00 -0.00000000000E+00 -0.24935938059E+04  0.24935938059E+04  0.00000000000E+00 0. -1.
      99926    2    1    2    0    0  0.00000000000E+00  0.00000000000E+00 -0.24724653541E+04  0.25147222577E+04  0.45906764864E+03 0.  0.
      99925    2    3    3    0    0 -0.73905186502E+02  0.41968537444E+02 -0.19902562074E+04  0.20093545658E+04  0.26298795655E+03 0.  0.
         25    1    4    4    0    0 -0.46110731250E+02  0.16595829050E+02 -0.72236217569E+03  0.73474910143E+03  0.12509000000E+03 0.  0.
         25    1    4    4    0    0 -0.27794455252E+02  0.25372708394E+02 -0.12678940318E+04  0.12746054644E+04  0.12509000000E+03 0.  0.
         25    1    3    3    0    0  0.73905186502E+02 -0.41968537444E+02 -0.48220914670E+03  0.50536769187E+03  0.12509000000E+03 0.  0.
<mgrwt>
<rscale>  2 0.45906765E+03</rscale>
<asrwt>0</asrwt>
<pdfrwt beam="1">  1       21 0.31071274E-02 0.45906765E+03</pdfrwt>
<pdfrwt beam="2">  1       21 0.36670472E+00 0.45906765E+03</pdfrwt>
<totfact> 0.67658223E+03</totfact>
</mgrwt>
</event>
<event>
 7    0  0.4752811E-002  0.4547815E+03  0.7546771E-02  0.1026306E+00
         21   -1    0    0  502  501  0.00000000000E+00  0.00000000000E+00  0.10991934019E+04  0.10991934019E+04  0.00000000000E+00 0.  1.
         21   -1    0    0  501  502 -0.00000000000E+00 -0.00000000000E+00 -0.47040441285E+02  0.47040441285E+02  0.00000000000E+00 0.  1.
      99926    2    1    2    0    0  0.14210854715E-13  0.00000000000E+00  0.10521529606E+04  0.11462338432E+04  0.45478145382E+03 0.  0.
      99925    2    3    3    0    0 -0.65980194308E+02  0.18711400333E+02  0.43526782756E+03  0.51306855827E+03  0.26282648502E+03 0.  0.
         25    1    3    3    0    0  0.65980194308E+02 -0.18711400333E+02  0.61688513306E+03  0.63316528492E+03  0.12509000000E+03 0.  0.
         25    1    4    4    0    0 -0.52468800247E+02  0.25393588415E+02  0.16667947830E+03  0.21639631679E+03  0.12509000000E+03 0.  0.
         25    1    4    4    0    0 -0.13511394060E+02 -0.66821880813E+01  0.26858834926E+03  0.29667224148E+03  0.12509000000E+03 0.  0.
<mgrwt>
<rscale>  2 0.45478145E+03</rscale>
<asrwt>0</asrwt>
<pdfrwt beam="1">  1       21 0.16164607E+00 0.45478145E+03</pdfrwt>
<pdfrwt beam="2">  1       21 0.69177126E-02 0.45478145E+03</pdfrwt>
<totfact> 0.33966181E+04</totfact>
</mgrwt>
</event>
<event>
 7    0  0.4752811E-002  0.4581920E+03  0.7546771E-02  0.1025307E+00
         21   -1    0    0  502  501  0.00000000000E+00  0.00000000000E+00  0.12117367309E+03  0.12117367309E+03  0.00000000000E+00 0.  1.
         21   -1    0    0  501  502 -0.00000000000E+00 -0.00000000000E+00 -0.43313852614E+03  0.43313852614E+03  0.00000000000E+00 0.  1.
      99926    2    1    2    0    0 -0.71054273576E-14  0.00000000000E+00 -0.31196485305E+03  0.55431219924E+03  0.45819203909E+03 0.  0.
      99925    2    3    3    0    0  0.58214408545E+02 -0.10007049763E+03 -0.20403553461E+03  0.35257160407E+03  0.26319805234E+03 0.  0.
         25    1    3    3    0    0 -0.58214408545E+02  0.10007049763E+03 -0.10792931844E+03  0.20174059517E+03  0.12509000000E+03 0.  0.
         25    1    4    4    0    0 -0.78616479681E+01 -0.64547151822E+02 -0.88063634784E+02  0.16622530550E+03  0.12509000000E+03 0.  0.
         25    1    4    4    0    0  0.66076056513E+02 -0.35523345812E+02 -0.11597189982E+03  0.18634629857E+03  0.12509000000E+03 0.  0.
<mgrwt>
<rscale>  2 0.45819204E+03</rscale>
<asrwt>0</asrwt>
<pdfrwt beam="1">  1       21 0.17819658E-01 0.45819204E+03</pdfrwt>
<pdfrwt beam="2">  1       21 0.63696841E-01 0.45819204E+03</pdfrwt>
<totfact> 0.60051573E+04</totfact>
</mgrwt>
</event>
<event>
 7    0  0.4752811E-002  0.4525426E+03  0.7546771E-02  0.1026967E+00
         21   -1    0    0  502  501  0.00000000000E+00  0.00000000000E+00  0.15742863384E+03  0.15742863384E+03  0.00000000000E+00 0. -1.
         21   -1    0    0  501  502 -0.00000000000E+00 -0.00000000000E+00 -0.32521849233E+03  0.32521849233E+03  0.00000000000E+00 0. -1.
      99926    2    1    2    0    0  0.35527136788E-14  0.00000000000E+00 -0.16778985848E+03  0.48264712617E+03  0.45254260771E+03 0.  0.
      99925    2    3    3    0    0  0.23139813748E+02 -0.10089394348E+03 -0.14799226385E+03  0.31907912299E+03  0.26304892655E+03 0.  0.
         25    1    3    3    0    0 -0.23139813748E+02  0.10089394348E+03 -0.19797594627E+02  0.16356800318E+03  0.12509000000E+03 0.  0.
         25    1    4    4    0    0  0.34061737710E+02 -0.31132989784E+02 -0.10323289542E+03  0.16862385308E+03  0.12509000000E+03 0.  0.
         25    1    4    4    0    0 -0.10921923962E+02 -0.69760953693E+02 -0.44759368431E+02  0.15045526992E+03  0.12509000000E+03 0.  0.
<mgrwt>
<rscale>  2 0.45254261E+03</rscale>
<asrwt>0</asrwt>
<pdfrwt beam="1">  1       21 0.23151270E-01 0.45254261E+03</pdfrwt>
<pdfrwt beam="2">  1       21 0.47826249E-01 0.45254261E+03</pdfrwt>
<totfact> 0.67821301E+04</totfact>
</mgrwt>
</event>
<event>
 7    0  0.4752811E-002  0.4564598E+03  0.7546771E-02  0.1025813E+00
         21   -1    0    0  502  501  0.00000000000E+00  0.00000000000E+00  0.69339009949E+03  0.69339009949E+03  0.00000000000E+00 0.  1.
         21   -1    0    0  501  502 -0.00000000000E+00 -0.00000000000E+00 -0.75122062082E+02  0.75122062082E+02  0.00000000000E+00 0.  1.
      99926    2    1    2    0    0 -0.71054273576E-14  0.14210854715E-13  0.61826803740E+03  0.76851216157E+03  0.45645983000E+03 0.  0.
      99925    2    3    3    0    0 -0.37729834710E+02  0.10720697208E+03  0.41244839124E+03  0.50219259763E+03  0.26299592085E+03 0.  0.
         25    1    4    4    0    0 -0.20150911642E+02  0.11187193924E+02  0.20024577517E+03  0.23722793073E+03  0.12509000000E+03 0.  0.
         25    1    4    4    0    0 -0.17578923068E+02  0.96019778159E+02  0.21220261607E+03  0.26496466689E+03  0.12509000000E+03 0.  0.
         25    1    3    3    0    0  0.37729834710E+02 -0.10720697208E+03  0.20581964617E+03  0.26631956394E+03  0.12509000000E+03 0.  0.
<mgrwt>
<rscale>  2 0.45645983E+03</rscale>
<asrwt>0</asrwt>
<pdfrwt beam="1">  1       21 0.10196913E+00 0.45645983E+03</pdfrwt>
<pdfrwt beam="2">  1       21 0.11047362E-01 0.45645983E+03</pdfrwt>
<totfact> 0.48764214E+04</totfact>
</mgrwt>
</event>
<event>
 7    0  0.4752811E-002  0.4518032E+03  0.7546771E-02  0.1027186E+00
         21   -1    0    0  502  501  0.00000000000E+00  0.00000000000E+00  0.65494396270E+03  0.65494396270E+03  0.00000000000E+00 0.  1.
         21   -1    0    0  501  502 -0.00000000000E+00 -0.00000000000E+00 -0.77917386360E+02  0.77917386360E+02  0.00000000000E+00 0.  1.
      99926    2    1    2    0    0  0.00000000000E+00  0.00000000000E+00  0.57702657634E+03  0.73286134906E+03  0.45180315088E+03 0.  0.
      99925    2    3    3    0    0 -0.43105652891E+02  0.10020520754E+03  0.38879639493E+03  0.48190858413E+03  0.26300963067E+03 0.  0.
         25    1    3    3    0    0  0.43105652891E+02 -0.10020520754E+03  0.18823018142E+03  0.25095276493E+03  0.12509000000E+03 0.  0.
         25    1    4    4    0    0 -0.61277521687E+02  0.45241813335E+02  0.18685671751E+03  0.23741250455E+03  0.12509000000E+03 0.  0.
         25    1    4    4    0    0  0.18171868797E+02  0.54963394200E+02  0.20193967742E+03  0.24449607959E+03  0.12509000000E+03 0.  0.
<mgrwt>
<rscale>  2 0.45180315E+03</rscale>
<asrwt>0</asrwt>
<pdfrwt beam="1">  1       21 0.96315286E-01 0.45180315E+03</pdfrwt>
<pdfrwt beam="2">  1       21 0.11458440E-01 0.45180315E+03</pdfrwt>
<totfact> 0.52461184E+04</totfact>
</mgrwt>
</event>
<event>
 7    0  0.4752811E-002  0.4551904E+03  0.7546771E-02  0.1026185E+00
         21   -1    0    0  502  501  0.00000000000E+00  0.00000000000E+00  0.97123925349E+03  0.97123925349E+03  0.00000000000E+00 0.  1.
         21   -1    0    0  501  502 -0.00000000000E+00 -0.00000000000E+00 -0.53333491640E+02  0.53333491640E+02  0.00000000000E+00 0.  1.
      99926    2    1    2    0    0 -0.35527136788E-14  0.00000000000E+00  0.91790576185E+03  0.10245727451E+04  0.45519042436E+03 0.  0.
      99925    2    3    3    0    0 -0.22375866000E+02  0.10758310296E+03  0.64031020594E+03  0.70087287768E+03  0.26296544911E+03 0.  0.
         25    1    3    3    0    0  0.22375866000E+02 -0.10758310296E+03  0.27759555592E+03  0.32369986745E+03  0.12509000000E+03 0.  0.
         25    1    4    4    0    0 -0.31335855396E+02  0.92375611619E+02  0.35028602361E+03  0.38452957740E+03  0.12509000000E+03 0.  0.
         25    1    4    4    0    0  0.89599893956E+01  0.15207491344E+02  0.29002418233E+03  0.31634330029E+03  0.12509000000E+03 0.  0.
<mgrwt>
<rscale>  2 0.45519042E+03</rscale>
<asrwt>0</asrwt>
<pdfrwt beam="1">  1       21 0.14282929E+00 0.45519042E+03</pdfrwt>
<pdfrwt beam="2">  1       21 0.78431611E-02 0.45519042E+03</pdfrwt>
<totfact> 0.38167671E+04</totfact>
</mgrwt>
</event>
<event>
 7    0  0.4752811E-002  0.4502680E+03  0.7546771E-02  0.1027642E+00
         21   -1    0    0  502  501  0.00000000000E+00  0.00000000000E+00  0.15642937229E+04  0.15642937229E+04  0.00000000000E+00 0. -1.
         21   -1    0    0  501  502 -0.00000000000E+00 -0.00000000000E+00 -0.32401403153E+02  0.32401403153E+02  0.00000000000E+00 0. -1.
      99926    2    1    2    0    0  0.00000000000E+00  0.00000000000E+00  0.15318923198E+04  0.15966951261E+04  0.45026797162E+03 0.  0.
      99925    2    3    3    0    0 -0.55070476221E+02 -0.58418483930E+02  0.12280713969E+04  0.12584642317E+04  0.26292088171E+03 0.  0.
         25    1    4    4    0    0 -0.32724675525E+02  0.11569354505E+02  0.57248555338E+03  0.58701956635E+03  0.12509000000E+03 0.  0.
         25    1    4    4    0    0 -0.22345800696E+02 -0.69987838435E+02  0.65558584354E+03  0.67144466540E+03  0.12509000000E+03 0.  0.
         25    1    3    3    0    0  0.55070476221E+02  0.58418483930E+02  0.30382092284E+03  0.33823089432E+03  0.12509000000E+03 0.  0.
<mgrwt>
<rscale>  2 0.45026797E+03</rscale>
<asrwt>0</asrwt>
<pdfrwt beam="1">  1       21 0.23004314E+00 0.45026797E+03</pdfrwt>
<pdfrwt beam="2">  1       21 0.47649133E-02 0.45026797E+03</pdfrwt>
<totfact> 0.22313271E+04</totfact>
</mgrwt>
</event>
<event>
 7    0  0.4752811E-002  0.4577996E+03  0.7546771E-02  0.1025421E+00
         21   -1    0    0  502  501  0.00000000000E+00  0.00000000000E+00  0.45188779063E+03  0.45188779063E+03  0.00000000000E+00 0.  1.
         21   -1    0    0  501  502 -0.00000000000E+00 -0.00000000000E+00 -0.11594718540E+03  0.11594718540E+03  0.00000000000E+00 0.  1.
      99926    2    1    2    0    0  0.14210854715E-13  0.00000000000E+00  0.33594060523E+03  0.56783497604E+03  0.45779959564E+03 0.  0.
      99925    2    3    3    0    0  0.73177107176E+02 -0.79370221237E+02  0.26304448744E+03  0.38723632399E+03  0.26287838863E+03 0.  0.
         25    1    4    4    0    0  0.73984309740E+02 -0.33636216174E+02  0.11703694681E+03  0.18960545389E+03  0.12509000000E+03 0.  0.
         25    1    3    3    0    0 -0.73177107176E+02  0.79370221237E+02  0.72896117792E+02  0.18059865205E+03  0.12509000000E+03 0.  0.
         25    1    4    4    0    0 -0.80720256448E+00 -0.45734005063E+02  0.14600754063E+03  0.19763087010E+03  0.12509000000E+03 0.  0.
<mgrwt>
<rscale>  2 0.45779960E+03</rscale>
<asrwt>0</asrwt>
<pdfrwt beam="1">  1       21 0.66454086E-01 0.45779960E+03</pdfrwt>
<pdfrwt beam="2">  1       21 0.17051057E-01 0.45779960E+03</pdfrwt>
<totfact> 0.59377533E+04</totfact>
</mgrwt>
</event>
<event>
 7    0  0.4752811E-002  0.4576358E+03  0.7546771E-02  0.1025469E+00
         21   -1    0    0  502  501  0.00000000000E+00  0.00000000000E+00  0.42294776800E+03  0.42294776800E+03  0.00000000000E+00 0. -1.
         21   -1    0    0  501  502 -0.00000000000E+00 -0.00000000000E+00 -0.12379220112E+03  0.12379220112E+03  0.00000000000E+00 0. -1.
      99926    2    1    2    0    0  0.00000000000E+00 -0.35527136788E-14  0.29915556688E+03  0.54673996912E+03  0.45763581660E+03 0.  0.
      99925    2    3    3    0    0 -0.80614556217E+02  0.20886638951E+02  0.91795891684E+02  0.29065306715E+03  0.26290257007E+03 0.  0.
         25    1    3    3    0    0  0.80614556217E+02 -0.20886638951E+02  0.20735967520E+03  0.25608690197E+03  0.12509000000E+03 0.  0.
         25    1    4    4    0    0 -0.38763013011E+02  0.50818983487E+02  0.44152449960E+02  0.14724838606E+03  0.12509000000E+03 0.  0.
         25    1    4    4    0    0 -0.41851543206E+02 -0.29932344536E+02  0.47643441724E+02  0.14340468109E+03  0.12509000000E+03 0.  0.
<mgrwt>
<rscale>  2 0.45763582E+03</rscale>
<asrwt>0</asrwt>
<pdfrwt beam="1">  1       21 0.62198201E-01 0.45763582E+03</pdfrwt>
<pdfrwt beam="2">  1       21 0.18204735E-01 0.45763582E+03</pdfrwt>
<totfact> 0.60804348E+04</totfact>
</mgrwt>
</event>
<event>
 7    0  0.4752811E-002  0.4680437E+03  0.7546771E-02  0.1022474E+00
         21   -1    0    0  502  501  0.00000000000E+00  0.00000000000E+00  0.67388686702E+03  0.67388686702E+03  0.00000000000E+00 0.  1.
         21   -1    0    0  501  502 -0.00000000000E+00 -0.00000000000E+00 -0.81269154063E+02  0.81269154063E+02  0.00000000000E+00 0.  1.
      99926    2    1    2    0    0 -0.35527136788E-14  0.00000000000E+00  0.59261771296E+03  0.75515602109E+03  0.46804365445E+03 0.  0.
      99925    2    3    3    0    0  0.26187069942E+02  0.54732730697E+02  0.54513526051E+03  0.60824269347E+03  0.26287884560E+03 0.  0.
         25    1    3    3    0    0 -0.26187069942E+02 -0.54732730697E+02  0.47482452450E+02  0.14691332762E+03  0.12509000000E+03 0.  0.
         25    1    4    4    0    0  0.48761472496E+02  0.11205856213E+02  0.25090854270E+03  0.28479090104E+03  0.12509000000E+03 0.  0.
         25    1    4    4    0    0 -0.22574402554E+02  0.43526874484E+02  0.29422671781E+03  0.32345179243E+03  0.12509000000E+03 0.  0.
<mgrwt>
<rscale>  2 0.46804365E+03</rscale>
<asrwt>0</asrwt>
<pdfrwt beam="1">  1       21 0.99101007E-01 0.46804365E+03</pdfrwt>
<pdfrwt beam="2">  1       21 0.11951347E-01 0.46804365E+03</pdfrwt>
<totfact> 0.45194629E+04</totfact>
</mgrwt>
</event>
<event>
 7    0  0.4752811E-002  0.4526319E+03  0.7546771E-02  0.1026940E+00
         21   -1    0    0  502  501  0.00000000000E+00  0.00000000000E+00  0.13439262746E+04  0.13439262746E+04  0.00000000000E+00 0. -1.
         21   -1    0    0  501  502 -0.00000000000E+00 -0.00000000000E+00 -0.38111405548E+02  0.38111405548E+02  0.00000000000E+00 0. -1.
      99926    2    1    2    0    0  0.00000000000E+00  0.00000000000E+00  0.13058148690E+04  0.13820376801E+04  0.45263194442E+03 0.  0.
      99925    2    3    3    0    0  0.80150700115E+02  0.76199650219E+02  0.84975155880E+03  0.89637136210E+03  0.26300833770E+03 0.  0.
         25    1    3    3    0    0 -0.80150700115E+02 -0.76199650219E+02  0.45606331024E+03  0.48566631803E+03  0.12509000000E+03 0.  0.
         25    1    4    4    0    0  0.55285217265E+02  0.10093783362E+01  0.43448318251E+03  0.45550040403E+03  0.12509000000E+03 0.  0.
         25    1    4    4    0    0  0.24865482850E+02  0.75190271883E+02  0.41526837629E+03  0.44087095807E+03  0.12509000000E+03 0.  0.
<mgrwt>
<rscale>  2 0.45263194E+03</rscale>
<asrwt>0</asrwt>
<pdfrwt beam="1">  1       21 0.19763619E+00 0.45263194E+03</pdfrwt>
<pdfrwt beam="2">  1       21 0.56046194E-02 0.45263194E+03</pdfrwt>
<totfact> 0.27313874E+04</totfact>
</mgrwt>
</event>
<event>
 7    0  0.4752811E-002  0.4948931E+03  0.7546771E-02  0.1015121E+00
         21   -1    0    0  502  501  0.00000000000E+00  0.00000000000E+00  0.14584139190E+03  0.14584139190E+03  0.00000000000E+00 0. -1.
         21   -1    0    0  501  502 -0.00000000000E+00 -0.00000000000E+00 -0.41983819086E+03  0.41983819086E+03  0.00000000000E+00 0. -1.
      99926    2    1    2    0    0  0.44408920985E-15  0.00000000000E+00 -0.27399679896E+03  0.56567958276E+03  0.49489306371E+03 0.  0.
      99925    2    3    3    0    0 -0.26755903562E+01  0.14135218983E+03 -0.11902428667E+03  0.32144283692E+03  0.26300402323E+03 0.  0.
         25    1    3    3    0    0  0.26755903562E+01 -0.14135218983E+03 -0.15497251229E+03  0.24423674584E+03  0.12509000000E+03 0.  0.
         25    1    4    4    0    0 -0.16521363139E+02  0.38946605686E+02 -0.80589024174E+02  0.15469936151E+03  0.12509000000E+03 0.  0.
         25    1    4    4    0    0  0.13845772783E+02  0.10240558414E+03 -0.38435262499E+02  0.16674347541E+03  0.12509000000E+03 0.  0.
<mgrwt>
<rscale>  2 0.49489306E+03</rscale>
<asrwt>0</asrwt>
<pdfrwt beam="1">  1       21 0.21447264E-01 0.49489306E+03</pdfrwt>
<pdfrwt beam="2">  1       21 0.61740910E-01 0.49489306E+03</pdfrwt>
<totfact> 0.44894098E+04</totfact>
</mgrwt>
</event>
<event>
 7    0  0.4752811E-002  0.4614618E+03  0.7546771E-02  0.1024358E+00
         21   -1    0    0  502  501  0.00000000000E+00  0.00000000000E+00  0.16586395012E+04  0.16586395012E+04  0.00000000000E+00 0. -1.
         21   -1    0    0  501  502 -0.00000000000E+00 -0.00000000000E+00 -0.32096632975E+02  0.32096632975E+02  0.00000000000E+00 0. -1.
      99926    2    1    2    0    0  0.00000000000E+00  0.00000000000E+00  0.16265428683E+04  0.16907361342E+04  0.46146177874E+03 0.  0.
      99925    2    3    3    0    0 -0.62913890821E+02 -0.87792531051E+02  0.83426000828E+03  0.88139978603E+03  0.26307819224E+03 0.  0.
         25    1    4    4    0    0 -0.62847546647E+02 -0.43760937220E+02  0.52038517629E+03  0.54065985014E+03  0.12509000000E+03 0.  0.
         25    1    3    3    0    0  0.62913890821E+02  0.87792531051E+02  0.79228285999E+03  0.80933634819E+03  0.12509000000E+03 0.  0.
         25    1    4    4    0    0 -0.66344173714E-01 -0.44031593831E+02  0.31387483198E+03  0.34073993589E+03  0.12509000000E+03 0.  0.
<mgrwt>
<rscale>  2 0.46146178E+03</rscale>
<asrwt>0</asrwt>
<pdfrwt beam="1">  1       21 0.24391752E+00 0.46146178E+03</pdfrwt>
<pdfrwt beam="2">  1       21 0.47200942E-02 0.46146178E+03</pdfrwt>
<totfact> 0.18508873E+04</totfact>
</mgrwt>
</event>
<event>
 7    0  0.4752811E-002  0.4577804E+03  0.7546771E-02  0.1025427E+00
         21   -1    0    0  502  501  0.00000000000E+00  0.00000000000E+00  0.54455318352E+03  0.54455318352E+03  0.00000000000E+00 0.  1.
         21   -1    0    0  501  502 -0.00000000000E+00 -0.00000000000E+00 -0.96208642569E+02  0.96208642569E+02  0.00000000000E+00 0.  1.
      99926    2    1    2    0    0  0.00000000000E+00  0.00000000000E+00  0.44834454095E+03  0.64076182609E+03  0.45778039535E+03 0.  0.
      99925    2    3    3    0    0 -0.75223546669E+02  0.77725894599E+02  0.33906903748E+03  0.44254845514E+03  0.26302362309E+03 0.  0.
         25    1    4    4    0    0 -0.65107535865E+02  0.10139982463E+02  0.15609417275E+03  0.21060557765E+03  0.12509000000E+03 0.  0.
         25    1    3    3    0    0  0.75223546669E+02 -0.77725894599E+02  0.10927550347E+03  0.19821337095E+03  0.12509000000E+03 0.  0.
         25    1    4    4    0    0 -0.10116010805E+02  0.67585912136E+02  0.18297486473E+03  0.23194287749E+03  0.12509000000E+03 0.  0.
<mgrwt>
<rscale>  2 0.45778040E+03</rscale>
<asrwt>0</asrwt>
<pdfrwt beam="1">  1       21 0.80081349E-01 0.45778040E+03</pdfrwt>
<pdfrwt beam="2">  1       21 0.14148330E-01 0.45778040E+03</pdfrwt>
<totfact> 0.55019670E+04</totfact>
</mgrwt>
</event>
<event>
 7    0  0.4752811E-002  0.4513771E+03  0.7546771E-02  0.1027312E+00
         21   -1    0    0  502  501  0.00000000000E+00  0.00000000000E+00  0.20737053864E+03  0.20737053864E+03  0.00000000000E+00 0. -1.
         21   -1    0    0  501  502 -0.00000000000E+00 -0.00000000000E+00 -0.24562467616E+03  0.24562467616E+03  0.00000000000E+00 0. -1.
      99926    2    1    2    0    0  0.17763568394E-14  0.00000000000E+00 -0.38254137520E+02  0.45299521481E+03  0.45137709911E+03 0.  0.
      99925    2    3    3    0    0  0.13083878677E+02  0.92568365703E+02 -0.81739933893E+02  0.29088842039E+03  0.26304860029E+03 0.  0.
         25    1    3    3    0    0 -0.13083878677E+02 -0.92568365703E+02  0.43485796373E+02  0.16210679442E+03  0.12509000000E+03 0.  0.
         25    1    4    4    0    0  0.46907065159E+02  0.46412964685E+02 -0.36172997503E+02  0.14598092307E+03  0.12509000000E+03 0.  0.
         25    1    4    4    0    0 -0.33823186482E+02  0.46155401017E+02 -0.45566936389E+02  0.14490749732E+03  0.12509000000E+03 0.  0.
<mgrwt>
<rscale>  2 0.45137710E+03</rscale>
<asrwt>0</asrwt>
<pdfrwt beam="1">  1       21 0.30495668E-01 0.45137710E+03</pdfrwt>
<pdfrwt beam="2">  1       21 0.36121276E-01 0.45137710E+03</pdfrwt>
<totfact> 0.70715022E+04</totfact>
</mgrwt>
</event>
<event>
 7    0  0.4752811E-002  0.4450126E+03  0.7546771E-02  0.1029220E+00
         21   -1    0    0  502  501  0.00000000000E+00  0.00000000000E+00  0.42000761105E+03  0.42000761105E+03  0.00000000000E+00 0. -1.
         21   -1    0    0  501  502 -0.00000000000E+00 -0.00000000000E+00 -0.11787658149E+03  0.11787658149E+03  0.00000000000E+00 0. -1.
      99926    2    1    2    0    0  0.00000000000E+00  0.71054273576E-14  0.30213102956E+03  0.53788419254E+03  0.44501263529E+03 0.  0.
      99925    2    3    3    0    0 -0.79871693188E+02 -0.39536964638E+02  0.25544910472E+03  0.37735578648E+03  0.26305985164E+03 0.  0.
         25    1    3    3    0    0  0.79871693188E+02  0.39536964638E+02  0.46681924840E+02  0.16052840606E+03  0.12509000000E+03 0.  0.
         25    1    4    4    0    0 -0.23532516663E+02  0.10325062101E+02  0.15156690478E+03  0.19819288830E+03  0.12509000000E+03 0.  0.
         25    1    4    4    0    0 -0.56339176525E+02 -0.49862026739E+02  0.10388219993E+03  0.17916289818E+03  0.12509000000E+03 0.  0.
<mgrwt>
<rscale>  2 0.44501264E+03</rscale>
<asrwt>0</asrwt>
<pdfrwt beam="1">  1       21 0.61765825E-01 0.44501264E+03</pdfrwt>
<pdfrwt beam="2">  1       21 0.17334791E-01 0.44501264E+03</pdfrwt>
<totfact> 0.67882905E+04</totfact>
</mgrwt>
</event>
<event>
 7    0  0.4752811E-002  0.4538757E+03  0.7546771E-02  0.1026573E+00
         21   -1    0    0  502  501  0.00000000000E+00  0.00000000000E+00  0.99222719497E+02  0.99222719497E+02  0.00000000000E+00 0.  1.
         21   -1    0    0  501  502 -0.00000000000E+00 -0.00000000000E+00 -0.51904221091E+03  0.51904221091E+03  0.00000000000E+00 0.  1.
      99926    2    1    2    0    0  0.71054273576E-14  0.00000000000E+00 -0.41981949141E+03  0.61826493041E+03  0.45387566447E+03 0.  0.
      99925    2    3    3    0    0 -0.41270885535E+02 -0.89266510097E+02 -0.33787875557E+03  0.43928563521E+03  0.26294109610E+03 0.  0.
         25    1    3    3    0    0  0.41270885535E+02  0.89266510097E+02 -0.81940735843E+02  0.17897929519E+03  0.12509000000E+03 0.  0.
         25    1    4    4    0    0 -0.60170732894E+02 -0.46728038658E+02 -0.16021042757E+03  0.21706891969E+03  0.12509000000E+03 0.  0.
         25    1    4    4    0    0  0.18899847359E+02 -0.42538471439E+02 -0.17766832800E+03  0.22221671552E+03  0.12509000000E+03 0.  0.
<mgrwt>
<rscale>  2 0.45387566E+03</rscale>
<asrwt>0</asrwt>
<pdfrwt beam="1">  1       21 0.14591576E-01 0.45387566E+03</pdfrwt>
<pdfrwt beam="2">  1       21 0.76329738E-01 0.45387566E+03</pdfrwt>
<totfact> 0.58081847E+04</totfact>
</mgrwt>
</event>
<event>
 7    0  0.4752811E-002  0.4699177E+03  0.7546771E-02  0.1021943E+00
         21   -1    0    0  502  501  0.00000000000E+00  0.00000000000E+00  0.75467153636E+02  0.75467153636E+02  0.00000000000E+00 0. -1.
         21   -1    0    0  501  502 -0.00000000000E+00 -0.00000000000E+00 -0.73151890557E+03  0.73151890557E+03  0.00000000000E+00 0. -1.
      99926    2    1    2    0    0  0.00000000000E+00  0.00000000000E+00 -0.65605175193E+03  0.80698605920E+03  0.46991765080E+03 0.  0.
      99925    2    3    3    0    0 -0.83613447073E+02  0.90345429716E+02 -0.45865947725E+03  0.54285593331E+03  0.26300293355E+03 0.  0.
         25    1    4    4    0    0 -0.10118765577E+01  0.45142835566E+02 -0.19035980514E+03  0.23221383036E+03  0.12509000000E+03 0.  0.
         25    1    3    3    0    0  0.83613447073E+02 -0.90345429716E+02 -0.19739227468E+03  0.26413012590E+03  0.12509000000E+03 0.  0.
         25    1    4    4    0    0 -0.82601570516E+02  0.45202594150E+02 -0.26829967211E+03  0.31064210295E+03  0.12509000000E+03 0.  0.
<mgrwt>
<rscale>  2 0.46991765E+03</rscale>
<asrwt>0</asrwt>
<pdfrwt beam="1">  1       21 0.11098110E-01 0.46991765E+03</pdfrwt>
<pdfrwt beam="2">  1       21 0.10757631E+00 0.46991765E+03</pdfrwt>
<totfact> 0.42260119E+04</totfact>
</mgrwt>
</event>
<event>
 7    0  0.4752811E-002  0.4479408E+03  0.7546771E-02  0.1028338E+00
         21   -1    0    0  502  501  0.00000000000E+00  0.00000000000E+00  0.27557249924E+03  0.27557249924E+03  0.00000000000E+00 0. -1.
         21   -1    0    0  501  502 -0.00000000000E+00 -0.00000000000E+00 -0.18203101287E+03  0.18203101287E+03  0.00000000000E+00 0. -1.
      99926    2    1    2    0    0 -0.71054273576E-14 -0.88817841970E-15  0.93541486366E+02  0.45760351210E+03  0.44794080482E+03 0.  0.
      99925    2    3    3    0    0 -0.63340674112E+02  0.40055638332E+01 -0.28598758666E+02  0.27160933721E+03  0.26253696411E+03 0.  0.
         25    1    4    4    0    0 -0.22689204918E+02 -0.28580162381E+02  0.10073963719E+02  0.13069284046E+03  0.12509000000E+03 0.  0.
         25    1    3    3    0    0  0.63340674112E+02 -0.40055638332E+01  0.12214024503E+03  0.18599417490E+03  0.12509000000E+03 0.  0.
         25    1    4    4    0    0 -0.40651469194E+02  0.32585726214E+02 -0.38672722385E+02  0.14091649675E+03  0.12509000000E+03 0.  0.
<mgrwt>
<rscale>  2 0.44794080E+03</rscale>
<asrwt>0</asrwt>
<pdfrwt beam="1">  1       21 0.40525368E-01 0.44794080E+03</pdfrwt>
<pdfrwt beam="2">  1       21 0.26769266E-01 0.44794080E+03</pdfrwt>
<totfact> 0.72335769E+04</totfact>
</mgrwt>
</event>
<event>
 7    0  0.4752811E-002  0.4785860E+03  0.7546771E-02  0.1019524E+00
         21   -1    0    0  502  501  0.00000000000E+00  0.00000000000E+00  0.30129089052E+02  0.30129089052E+02  0.00000000000E+00 0. -1.
         21   -1    0    0  501  502 -0.00000000000E+00 -0.00000000000E+00 -0.19005268161E+04  0.19005268161E+04  0.00000000000E+00 0. -1.
      99926    2    1    2    0    0  0.00000000000E+00  0.00000000000E+00 -0.18703977270E+04  0.19306559051E+04  0.47858600768E+03 0.  0.
      99925    2    3    3    0    0 -0.13373289057E+03  0.20916697507E+01 -0.11230034232E+04  0.11611530692E+04  0.26315565803E+03 0.  0.
         25    1    3    3    0    0  0.13373289057E+03 -0.20916697507E+01 -0.74739430380E+03  0.76950283597E+03  0.12509000000E+03 0.  0.
         25    1    4    4    0    0 -0.25179583687E+02 -0.15103870640E+01 -0.42397416016E+03  0.44276166194E+03  0.12509000000E+03 0.  0.
         25    1    4    4    0    0 -0.10855330689E+03  0.36020568147E+01 -0.69902926308E+03  0.71839140724E+03  0.12509000000E+03 0.  0.
<mgrwt>
<rscale>  2 0.47858601E+03</rscale>
<asrwt>0</asrwt>
<pdfrwt beam="1">  1       21 0.44307492E-02 0.47858601E+03</pdfrwt>
<pdfrwt beam="2">  1       21 0.27948918E+00 0.47858601E+03</pdfrwt>
<totfact> 0.12437500E+04</totfact>
</mgrwt>
</event>
<event>
 7    0  0.4752811E-002  0.4734038E+03  0.7546771E-02  0.1020964E+00
         21   -1    0    0  502  501  0.00000000000E+00  0.00000000000E+00  0.15159054938E+03  0.15159054938E+03  0.00000000000E+00 0. -1.
         21   -1    0    0  501  502 -0.00000000000E+00 -0.00000000000E+00 -0.36959953471E+03  0.36959953471E+03  0.00000000000E+00 0. -1.
      99926    2    1    2    0    0  0.00000000000E+00  0.14210854715E-13 -0.21800898533E+03  0.52119008409E+03  0.47340382981E+03 0.  0.
      99925    2    3    3    0    0 -0.79931939179E+02 -0.93205945505E+02 -0.89188627378E+02  0.30366156665E+03  0.26301952899E+03 0.  0.
         25    1    3    3    0    0  0.79931939179E+02  0.93205945505E+02 -0.12882035795E+03  0.21752851744E+03  0.12509000000E+03 0.  0.
         25    1    4    4    0    0 -0.64776354030E+02 -0.75876210455E+02 -0.27680039815E+02  0.16237877958E+03  0.12509000000E+03 0.  0.
         25    1    4    4    0    0 -0.15155585149E+02 -0.17329735051E+02 -0.61508587563E+02  0.14128278707E+03  0.12509000000E+03 0.  0.
<mgrwt>
<rscale>  2 0.47340383E+03</rscale>
<asrwt>0</asrwt>
<pdfrwt beam="1">  1       21 0.22292728E-01 0.47340383E+03</pdfrwt>
<pdfrwt beam="2">  1       21 0.54352873E-01 0.47340383E+03</pdfrwt>
<totfact> 0.55280287E+04</totfact>
</mgrwt>
</event>
<event>
 7    0  0.4752811E-002  0.4560303E+03  0.7546771E-02  0.1025939E+00
         21   -1    0    0  502  501  0.00000000000E+00  0.00000000000E+00  0.16829257680E+03  0.16829257680E+03  0.00000000000E+00 0.  1.
         21   -1    0    0  501  502 -0.00000000000E+00 -0.00000000000E+00 -0.30893165409E+03  0.30893165409E+03  0.00000000000E+00 0.  1.
      99926    2    1    2    0    0  0.00000000000E+00  0.00000000000E+00 -0.14063907729E+03  0.47722423090E+03  0.45603028024E+03 0.  0.
      99925    2    3    3    0    0 -0.82097366528E+02  0.74053120622E+02 -0.58966416842E+02  0.29137005734E+03  0.26305062200E+03 0.  0.
         25    1    4    4    0    0 -0.38927734827E+02  0.54050125742E+01 -0.17184883420E+00  0.13111872609E+03  0.12509000000E+03 0.  0.
         25    1    3    3    0    0  0.82097366528E+02 -0.74053120622E+02 -0.81672660449E+02  0.18585417356E+03  0.12509000000E+03 0.  0.
         25    1    4    4    0    0 -0.43169631701E+02  0.68648108048E+02 -0.58794568008E+02  0.16025133125E+03  0.12509000000E+03 0.  0.
<mgrwt>
<rscale>  2 0.45603028E+03</rscale>
<asrwt>0</asrwt>
<pdfrwt beam="1">  1       21 0.24748909E-01 0.45603028E+03</pdfrwt>
<pdfrwt beam="2">  1       21 0.45431125E-01 0.45603028E+03</pdfrwt>
<totfact> 0.66358455E+04</totfact>
</mgrwt>
</event>
<event>
 7    0  0.4752811E-002  0.4536004E+03  0.7546771E-02  0.1026654E+00
         21   -1    0    0  502  501  0.00000000000E+00  0.00000000000E+00  0.24035281329E+03  0.24035281329E+03  0.00000000000E+00 0. -1.
         21   -1    0    0  501  502 -0.00000000000E+00 -0.00000000000E+00 -0.21401180484E+03  0.21401180484E+03  0.00000000000E+00 0. -1.
      99926    2    1    2    0    0  0.00000000000E+00  0.00000000000E+00  0.26341008451E+02  0.45436461812E+03  0.45360043813E+03 0.  0.
      99925    2    3    3    0    0 -0.49663750855E+02 -0.73118222426E+02 -0.52126730952E+02  0.28226738739E+03  0.26295421522E+03 0.  0.
         25    1    3    3    0    0  0.49663750855E+02  0.73118222426E+02  0.78467739403E+02  0.17209723074E+03  0.12509000000E+03 0.  0.
         25    1    4    4    0    0 -0.45021315868E+02 -0.53985732219E+02  0.44865989922E+01  0.14355840566E+03  0.12509000000E+03 0.  0.
         25    1    4    4    0    0 -0.46424349873E+01 -0.19132490207E+02 -0.56613329944E+02  0.13870898173E+03  0.12509000000E+03 0.  0.
<mgrwt>
<rscale>  2 0.45360044E+03</rscale>
<asrwt>0</asrwt>
<pdfrwt beam="1">  1       21 0.35346002E-01 0.45360044E+03</pdfrwt>
<pdfrwt beam="2">  1       21 0.31472324E-01 0.45360044E+03</pdfrwt>
<totfact> 0.69363743E+04</totfact>
</mgrwt>
</event>
<event>
 7    0  0.4752811E-002  0.4550880E+03  0.7546771E-02  0.1026216E+00
         21   -1    0    0  502  501  0.00000000000E+00  0.00000000000E+00  0.11302616033E+03  0.11302616033E+03  0.00000000000E+00 0.  1.
         21   -1    0    0  501  502 -0.00000000000E+00 -0.00000000000E+00 -0.45809098953E+03  0.45809098953E+03  0.00000000000E+00 0.  1.
      99926    2    1    2    0    0  0.00000000000E+00  0.00000000000E+00 -0.34506482920E+03  0.57111714985E+03  0.45508797227E+03 0.  0.
      99925    2    3    3    0    0 -0.59328833452E+02  0.61888562941E+02 -0.30997277244E+03  0.41546026677E+03  0.26300952248E+03 0.  0.
         25    1    3    3    0    0  0.59328833452E+02 -0.61888562941E+02 -0.35092056764E+02  0.15565688308E+03  0.12509000000E+03 0.  0.
         25    1    4    4    0    0 -0.16821808283E+02  0.70541742099E+01 -0.98993266007E+02  0.16056123263E+03  0.12509000000E+03 0.  0.
         25    1    4    4    0    0 -0.42507025169E+02  0.54834388731E+02 -0.21097950643E+03  0.25489903415E+03  0.12509000000E+03 0.  0.
<mgrwt>
<rscale>  2 0.45508797E+03</rscale>
<asrwt>0</asrwt>
<pdfrwt beam="1">  1       21 0.16621494E-01 0.45508797E+03</pdfrwt>
<pdfrwt beam="2">  1       21 0.67366322E-01 0.45508797E+03</pdfrwt>
<totfact> 0.60450200E+04</totfact>
</mgrwt>
</event>
<event>
 7    0  0.4752811E-002  0.4544068E+03  0.7546771E-02  0.1026416E+00
         21   -1    0    0  502  501  0.00000000000E+00  0.00000000000E+00  0.51710600990E+03  0.51710600990E+03  0.00000000000E+00 0.  1.
         21   -1    0    0  501  502 -0.00000000000E+00 -0.00000000000E+00 -0.99827459090E+02  0.99827459090E+02  0.00000000000E+00 0.  1.
      99926    2    1    2    0    0  0.00000000000E+00  0.71054273576E-14  0.41727855081E+03  0.61693346899E+03  0.45440677393E+03 0.  0.
      99925    2    3    3    0    0  0.88529867307E+02  0.61446178389E+02  0.21831633979E+03  0.35838629775E+03  0.26299342948E+03 0.  0.
         25    1    4    4    0    0  0.44036966987E+02 -0.60701150753E+01  0.79251980247E+02  0.15461075393E+03  0.12509000000E+03 0.  0.
         25    1    4    4    0    0  0.44492900320E+02  0.67516293464E+02  0.13906435955E+03  0.20377554382E+03  0.12509000000E+03 0.  0.
         25    1    3    3    0    0 -0.88529867307E+02 -0.61446178389E+02  0.19896221102E+03  0.25854717124E+03  0.12509000000E+03 0.  0.
<mgrwt>
<rscale>  2 0.45440677E+03</rscale>
<asrwt>0</asrwt>
<pdfrwt beam="1">  1       21 0.76045000E-01 0.45440677E+03</pdfrwt>
<pdfrwt beam="2">  1       21 0.14680509E-01 0.45440677E+03</pdfrwt>
<totfact> 0.57918756E+04</totfact>
</mgrwt>
</event>
<event>
 6    0  0.4752811E-002  0.4580020E+03  0.7546771E-02  0.1025362E+00
         21   -1    0    0  502  501  0.00000000000E+00  0.00000000000E+00  0.34835715798E+02  0.34835715798E+02  0.00000000000E+00 0. -1.
         21   -1    0    0  501  502 -0.00000000000E+00 -0.00000000000E+00 -0.15053935269E+04  0.15053935269E+04  0.00000000000E+00 0. -1.
      99926    2    1    2    0    0  0.00000000000E+00  0.00000000000E+00 -0.14705578111E+04  0.15402292427E+04  0.45800201338E+03 0.  0.
         25    1    3    3    0    0 -0.98703372549E+02  0.48404046503E+02 -0.41110820711E+03  0.44355695634E+03  0.12509000000E+03 0.  0.
         25    1    3    3    0    0  0.86949952270E+02 -0.39214847700E+02 -0.58326747206E+03  0.60410806198E+03  0.12509000000E+03 0.  0.
         25    1    3    3    0    0  0.11753420279E+02 -0.91891988032E+01 -0.47618213189E+03  0.49256422434E+03  0.12509000000E+03 0.  0.
<mgrwt>
<rscale>  2 0.45800201E+03</rscale>
<asrwt>0</asrwt>
<pdfrwt beam="1">  1       21 0.51229001E-02 0.45800201E+03</pdfrwt>
<pdfrwt beam="2">  1       21 0.22138137E+00 0.45800201E+03</pdfrwt>
<totfact> 0.22286040E+04</totfact>
</mgrwt>
</event>
<event>
 7    0  0.4752811E-002  0.4600260E+03  0.7546771E-02  0.1024774E+00
         21   -1    0    0  502  501  0.00000000000E+00  0.00000000000E+00  0.38643186157E+03  0.38643186157E+03  0.00000000000E+00 0. -1.
         21   -1    0    0  501  502 -0.00000000000E+00 -0.00000000000E+00 -0.13690896526E+03  0.13690896526E+03  0.00000000000E+00 0. -1.
      99926    2    1    2    0    0 -0.71054273576E-14  0.00000000000E+00  0.24952289631E+03  0.52334082683E+03  0.46002602670E+03 0.  0.
      99925    2    3    3    0    0  0.39426245011E+02  0.10242465771E+03  0.20504143902E+03  0.35108709699E+03  0.26301125195E+03 0.  0.
         25    1    3    3    0    0 -0.39426245011E+02 -0.10242465771E+03  0.44481457289E+02  0.17225372985E+03  0.12509000000E+03 0.  0.
         25    1    4    4    0    0  0.42550175851E+02  0.23544203699E+02  0.72841631621E+02  0.15270317086E+03  0.12509000000E+03 0.  0.
         25    1    4    4    0    0 -0.31239308399E+01  0.78880454013E+02  0.13219980740E+03  0.19838392613E+03  0.12509000000E+03 0.  0.
<mgrwt>
<rscale>  2 0.46002603E+03</rscale>
<asrwt>0</asrwt>
<pdfrwt beam="1">  1       21 0.56828215E-01 0.46002603E+03</pdfrwt>
<pdfrwt beam="2">  1       21 0.20133671E-01 0.46002603E+03</pdfrwt>
<totfact> 0.61183855E+04</totfact>
</mgrwt>
</event>
<event>
 7    0  0.4752811E-002  0.4398273E+03  0.7546771E-02  0.1030800E+00
         21   -1    0    0  502  501  0.00000000000E+00  0.00000000000E+00  0.19868183316E+03  0.19868183316E+03  0.00000000000E+00 0.  1.
         21   -1    0    0  501  502 -0.00000000000E+00 -0.00000000000E+00 -0.24341434737E+03  0.24341434737E+03  0.00000000000E+00 0.  1.
      99926    2    1    2    0    0  0.00000000000E+00  0.14210854715E-13 -0.44732514215E+02  0.44209618053E+03  0.43982727862E+03 0.  0.
      99925    2    3    3    0    0 -0.42322769151E+02  0.65528517314E+02 -0.88606967511E+02  0.28828565059E+03  0.26300611832E+03 0.  0.
         25    1    4    4    0    0 -0.29287181109E+02  0.19212222521E+01 -0.15217129219E+02  0.12938508103E+03  0.12509000000E+03 0.  0.
         25    1    3    3    0    0  0.42322769151E+02 -0.65528517314E+02  0.43874453297E+02  0.15381052995E+03  0.12509000000E+03 0.  0.
         25    1    4    4    0    0 -0.13035588042E+02  0.63607295062E+02 -0.73389838292E+02  0.15890056956E+03  0.12509000000E+03 0.  0.
<mgrwt>
<rscale>  2 0.43982728E+03</rscale>
<asrwt>0</asrwt>
<pdfrwt beam="1">  1       21 0.29217917E-01 0.43982728E+03</pdfrwt>
<pdfrwt beam="2">  1       21 0.35796227E-01 0.43982728E+03</pdfrwt>
<totfact> 0.78593571E+04</totfact>
</mgrwt>
</event>
<event>
 7    0  0.4752811E-002  0.4622699E+03  0.7546771E-02  0.1024125E+00
         21   -1    0    0  502  501  0.00000000000E+00  0.00000000000E+00  0.33457872980E+03  0.33457872980E+03  0.00000000000E+00 0. -1.
         21   -1    0    0  501  502 -0.00000000000E+00 -0.00000000000E+00 -0.15967351900E+03  0.15967351900E+03  0.00000000000E+00 0. -1.
      99926    2    1    2    0    0  0.00000000000E+00  0.00000000000E+00  0.17490521080E+03  0.49425224880E+03  0.46226989160E+03 0.  0.
      99925    2    3    3    0    0  0.51641071035E+02  0.20178183576E+02 -0.42205988317E+01  0.26884700688E+03  0.26303410490E+03 0.  0.
         25    1    4    4    0    0  0.58509166045E+02 -0.14063554503E+02 -0.63380798483E+01  0.13895605576E+03  0.12509000000E+03 0.  0.
         25    1    3    3    0    0 -0.51641071035E+02 -0.20178183576E+02  0.17912580963E+03  0.22540524192E+03  0.12509000000E+03 0.  0.
         25    1    4    4    0    0 -0.68680950101E+01  0.34241738080E+02  0.21174810166E+01  0.12989095112E+03  0.12509000000E+03 0.  0.
<mgrwt>
<rscale>  2 0.46226989E+03</rscale>
<asrwt>0</asrwt>
<pdfrwt beam="1">  1       21 0.49202754E-01 0.46226989E+03</pdfrwt>
<pdfrwt beam="2">  1       21 0.23481400E-01 0.46226989E+03</pdfrwt>
<totfact> 0.62019037E+04</totfact>
</mgrwt>
</event>
<event>
 7    0  0.4752811E-002  0.4513553E+03  0.7546771E-02  0.1027319E+00
         21   -1    0    0  502  501  0.00000000000E+00  0.00000000000E+00  0.11327047514E+03  0.11327047514E+03  0.00000000000E+00 0. -1.
         21   -1    0    0  501  502 -0.00000000000E+00 -0.00000000000E+00 -0.44963535624E+03  0.44963535624E+03  0.00000000000E+00 0. -1.
      99926    2    1    2    0    0  0.00000000000E+00  0.00000000000E+00 -0.33636488110E+03  0.56290583137E+03  0.45135533868E+03 0.  0.
      99925    2    3    3    0    0 -0.93203714125E+02 -0.50120187633E+02 -0.17675606095E+03  0.33416700847E+03  0.26310818864E+03 0.  0.
         25    1    3    3    0    0  0.93203714125E+02  0.50120187633E+02 -0.15960882015E+03  0.22873882291E+03  0.12509000000E+03 0.  0.
         25    1    4    4    0    0 -0.19049828669E+02 -0.54853666951E+02 -0.79943259461E+02  0.15940593961E+03  0.12509000000E+03 0.  0.
         25    1    4    4    0    0 -0.74153885456E+02  0.47334793182E+01 -0.96812801489E+02  0.17476106885E+03  0.12509000000E+03 0.  0.
<mgrwt>
<rscale>  2 0.45135534E+03</rscale>
<asrwt>0</asrwt>
<pdfrwt beam="1">  1       21 0.16657423E-01 0.45135534E+03</pdfrwt>
<pdfrwt beam="2">  1       21 0.66122848E-01 0.45135534E+03</pdfrwt>
<totfact> 0.62812838E+04</totfact>
</mgrwt>
</event>
<event>
 7    0  0.4752811E-002  0.4499552E+03  0.7546771E-02  0.1027735E+00
         21   -1    0    0  502  501  0.00000000000E+00  0.00000000000E+00  0.53112581695E+03  0.53112581695E+03  0.00000000000E+00 0. -1.
         21   -1    0    0  501  502 -0.00000000000E+00 -0.00000000000E+00 -0.95297434614E+02  0.95297434614E+02  0.00000000000E+00 0. -1.
      99926    2    1    2    0    0 -0.44408920985E-15 -0.71054273576E-14  0.43582838234E+03  0.62642325157E+03  0.44995523250E+03 0.  0.
      99925    2    3    3    0    0  0.39810610408E+01 -0.56044187738E+02  0.40451837136E+03  0.48576542308E+03  0.26301356176E+03 0.  0.
         25    1    3    3    0    0 -0.39810610408E+01  0.56044187738E+02  0.31310010979E+02  0.14065782848E+03  0.12509000000E+03 0.  0.
         25    1    4    4    0    0  0.11754315121E+02 -0.65786761974E+02  0.23915998681E+03  0.27804868165E+03  0.12509000000E+03 0.  0.
         25    1    4    4    0    0 -0.77732540805E+01  0.97425742361E+01  0.16535838455E+03  0.20771674143E+03  0.12509000000E+03 0.  0.
<mgrwt>
<rscale>  2 0.44995523E+03</rscale>
<asrwt>0</asrwt>
<pdfrwt beam="1">  1       21 0.78106737E-01 0.44995523E+03</pdfrwt>
<pdfrwt beam="2">  1       21 0.14014329E-01 0.44995523E+03</pdfrwt>
<totfact> 0.59411680E+04</totfact>
</mgrwt>
</event>
<event>
 7    0  0.4752811E-002  0.4481396E+03  0.7546771E-02  0.1028278E+00
         21   -1    0    0  502  501  0.00000000000E+00  0.00000000000E+00  0.12443242882E+04  0.12443242882E+04  0.00000000000E+00 0. -1.
         21   -1    0    0  501  502 -0.00000000000E+00 -0.00000000000E+00 -0.40349033970E+02  0.40349033970E+02  0.00000000000E+00 0. -1.
      99926    2    1    2    0    0  0.00000000000E+00  0.00000000000E+00  0.12039752542E+04  0.12846733222E+04  0.44813963437E+03 0.  0.
      99925    2    3    3    0    0  0.81871141093E+02 -0.34109233494E+02  0.59218512013E+03  0.65395864830E+03  0.26289232326E+03 0.  0.
         25    1    4    4    0    0  0.48787191648E+02 -0.55919604805E+02  0.33581983270E+03  0.36596401518E+03  0.12509000000E+03 0.  0.
         25    1    4    4    0    0  0.33083949445E+02  0.21810371311E+02  0.25636528744E+03  0.28799463313E+03  0.12509000000E+03 0.  0.
         25    1    3    3    0    0 -0.81871141093E+02  0.34109233494E+02  0.61179013408E+03  0.63071467386E+03  0.12509000000E+03 0.  0.
<mgrwt>
<rscale>  2 0.44813963E+03</rscale>
<asrwt>0</asrwt>
<pdfrwt beam="1">  1       21 0.18298884E+00 0.44813963E+03</pdfrwt>
<pdfrwt beam="2">  1       21 0.59336823E-02 0.44813963E+03</pdfrwt>
<totfact> 0.31194790E+04</totfact>
</mgrwt>
</event>
<event>
 7    0  0.4752811E-002  0.4521184E+03  0.7546771E-02  0.1027092E+00
         21   -1    0    0  502  501  0.00000000000E+00  0.00000000000E+00  0.18969941073E+04  0.18969941073E+04  0.00000000000E+00 0. -1.
         21   -1    0    0  501  502 -0.00000000000E+00 -0.00000000000E+00 -0.26938810024E+02  0.26938810024E+02  0.00000000000E+00 0. -1.
      99926    2    1    2    0    0 -0.14210854715E-13  0.71054273576E-14  0.18700552973E+04  0.19239329174E+04  0.45211840871E+03 0.  0.
      99925    2    3    3    0    0 -0.80245446276E+02  0.57003434343E+02  0.13938759550E+04  0.14218542410E+04  0.26285087286E+03 0.  0.
         25    1    3    3    0    0  0.80245446276E+02 -0.57003434343E+02  0.47617934229E+03  0.50207867640E+03  0.12509000000E+03 0.  0.
         25    1    4    4    0    0 -0.47419015296E+02  0.68894708846E+02  0.78246321176E+03  0.79680062109E+03  0.12509000000E+03 0.  0.
         25    1    4    4    0    0 -0.32826430980E+02 -0.11891274503E+02  0.61141274327E+03  0.62505361987E+03  0.12509000000E+03 0.  0.
<mgrwt>
<rscale>  2 0.45211841E+03</rscale>
<asrwt>0</asrwt>
<pdfrwt beam="1">  1       21 0.27896963E+00 0.45211841E+03</pdfrwt>
<pdfrwt beam="2">  1       21 0.39615910E-02 0.45211841E+03</pdfrwt>
<totfact> 0.15331724E+04</totfact>
</mgrwt>
</event>
<event>
 7    0  0.4752811E-002  0.4548609E+03  0.7546771E-02  0.1026282E+00
         21   -1    0    0  502  501  0.00000000000E+00  0.00000000000E+00  0.69643739035E+03  0.69643739035E+03  0.00000000000E+00 0. -1.
         21   -1    0    0  501  502 -0.00000000000E+00 -0.00000000000E+00 -0.74270300626E+02  0.74270300626E+02  0.00000000000E+00 0. -1.
      99926    2    1    2    0    0  0.00000000000E+00  0.88817841970E-15  0.62216708973E+03  0.77070769098E+03  0.45486092094E+03 0.  0.
      99925    2    3    3    0    0 -0.85309503059E+02  0.71658074321E+01  0.51661121956E+03  0.58599545550E+03  0.26301038304E+03 0.  0.
         25    1    4    4    0    0 -0.53799502749E+02  0.99001875743E+01  0.18311556643E+03  0.22841019894E+03  0.12509000000E+03 0.  0.
         25    1    4    4    0    0 -0.31510000310E+02 -0.27343801422E+01  0.33349565313E+03  0.35758525657E+03  0.12509000000E+03 0.  0.
         25    1    3    3    0    0  0.85309503059E+02 -0.71658074321E+01  0.10555587017E+03  0.18471223548E+03  0.12509000000E+03 0.  0.
<mgrwt>
<rscale>  2 0.45486092E+03</rscale>
<asrwt>0</asrwt>
<pdfrwt beam="1">  1       21 0.10241726E+00 0.45486092E+03</pdfrwt>
<pdfrwt beam="2">  1       21 0.10922103E-01 0.45486092E+03</pdfrwt>
<totfact> 0.49268007E+04</totfact>
</mgrwt>
</event>
<event>
 7    0  0.4752811E-002  0.4766447E+03  0.7546771E-02  0.1020061E+00
         21   -1    0    0  502  501  0.00000000000E+00  0.00000000000E+00  0.15105455747E+04  0.15105455747E+04  0.00000000000E+00 0. -1.
         21   -1    0    0  501  502 -0.00000000000E+00 -0.00000000000E+00 -0.37600678069E+02  0.37600678069E+02  0.00000000000E+00 0. -1.
      99926    2    1    2    0    0 -0.17763568394E-14  0.00000000000E+00  0.14729448967E+04  0.15481462528E+04  0.47664468051E+03 0.  0.
      99925    2    3    3    0    0 -0.13942611463E+02 -0.13098605847E+03  0.95873502573E+03  0.10027921996E+04  0.26280715743E+03 0.  0.
         25    1    4    4    0    0  0.10382796715E+02 -0.10541095878E+03  0.54676992633E+03  0.57081006748E+03  0.12509000000E+03 0.  0.
         25    1    4    4    0    0 -0.24325408178E+02 -0.25575099686E+02  0.41196509940E+03  0.43198213207E+03  0.12509000000E+03 0.  0.
         25    1    3    3    0    0  0.13942611463E+02  0.13098605847E+03  0.51420987095E+03  0.54535405326E+03  0.12509000000E+03 0.  0.
<mgrwt>
<rscale>  2 0.47664468E+03</rscale>
<asrwt>0</asrwt>
<pdfrwt beam="1">  1       21 0.22213901E+00 0.47664468E+03</pdfrwt>
<pdfrwt beam="2">  1       21 0.55295125E-02 0.47664468E+03</pdfrwt>
<totfact> 0.19189377E+04</totfact>
</mgrwt>
</event>
<event>
 7    0  0.4752811E-002  0.4605189E+03  0.7546771E-02  0.1024631E+00
         21   -1    0    0  502  501  0.00000000000E+00  0.00000000000E+00  0.30187516911E+03  0.30187516911E+03  0.00000000000E+00 0. -1.
         21   -1    0    0  501  502 -0.00000000000E+00 -0.00000000000E+00 -0.17563355253E+03  0.17563355253E+03  0.00000000000E+00 0. -1.
      99926    2    1    2    0    0  0.00000000000E+00  0.00000000000E+00  0.12624161658E+03  0.47750872163E+03  0.46051887418E+03 0.  0.
      99925    2    3    3    0    0  0.92860870211E+02  0.67717274175E+01  0.32171827678E+01  0.27888466236E+03  0.26286366642E+03 0.  0.
         25    1    3    3    0    0 -0.92860870211E+02 -0.67717274175E+01  0.12302443381E+03  0.19862405928E+03  0.12509000000E+03 0.  0.
         25    1    4    4    0    0  0.10364004135E+02  0.63392892347E+01  0.22915920361E+02  0.12775072084E+03  0.12509000000E+03 0.  0.
         25    1    4    4    0    0  0.82496866076E+02  0.43243818281E+00 -0.19698737594E+02  0.15113394152E+03  0.12509000000E+03 0.  0.
<mgrwt>
<rscale>  2 0.46051887E+03</rscale>
<asrwt>0</asrwt>
<pdfrwt beam="1">  1       21 0.44393407E-01 0.46051887E+03</pdfrwt>
<pdfrwt beam="2">  1       21 0.25828464E-01 0.46051887E+03</pdfrwt>
<totfact> 0.64031383E+04</totfact>
</mgrwt>
</event>
<event>
 7    0  0.4752811E-002  0.4695293E+03  0.7546771E-02  0.1022053E+00
         21   -1    0    0  502  501  0.00000000000E+00  0.00000000000E+00  0.19417656793E+03  0.19417656793E+03  0.00000000000E+00 0. -1.
         21   -1    0    0  501  502 -0.00000000000E+00 -0.00000000000E+00 -0.28383676965E+03  0.28383676965E+03  0.00000000000E+00 0. -1.
      99926    2    1    2    0    0  0.14210854715E-13  0.00000000000E+00 -0.89660201717E+02  0.47801333758E+03  0.46952933788E+03 0.  0.
      99925    2    3    3    0    0  0.12262972734E+03  0.84960752422E+01 -0.25734451228E+02  0.29134721051E+03  0.26288914350E+03 0.  0.
         25    1    3    3    0    0 -0.12262972734E+03 -0.84960752422E+01 -0.63925750489E+02  0.18666612708E+03  0.12509000000E+03 0.  0.
         25    1    4    4    0    0  0.49765846081E+02 -0.14143066967E+02 -0.46988125656E+02  0.14329011771E+03  0.12509000000E+03 0.  0.
         25    1    4    4    0    0  0.72863881258E+02  0.22639142209E+02  0.21253674428E+02  0.14805709280E+03  0.12509000000E+03 0.  0.
<mgrwt>
<rscale>  2 0.46952934E+03</rscale>
<asrwt>0</asrwt>
<pdfrwt beam="1">  1       21 0.28555378E-01 0.46952934E+03</pdfrwt>
<pdfrwt beam="2">  1       21 0.41740701E-01 0.46952934E+03</pdfrwt>
<totfact> 0.59660796E+04</totfact>
</mgrwt>
</event>
<event>
 7    0  0.4752811E-002  0.4566206E+03  0.7546771E-02  0.1025766E+00
         21   -1    0    0  502  501  0.00000000000E+00  0.00000000000E+00  0.28379662571E+03  0.28379662571E+03  0.00000000000E+00 0.  1.
         21   -1    0    0  501  502 -0.00000000000E+00 -0.00000000000E+00 -0.18367235953E+03  0.18367235953E+03  0.00000000000E+00 0.  1.
      99926    2    1    2    0    0 -0.71054273576E-14  0.00000000000E+00  0.10012426618E+03  0.46746898525E+03  0.45662061220E+03 0.  0.
      99925    2    3    3    0    0  0.58707156490E+02 -0.94659986851E+02  0.89169687845E+02  0.29961620981E+03  0.26346080661E+03 0.  0.
         25    1    4    4    0    0  0.69536700092E+02 -0.63937759597E+02  0.50902481057E+02  0.16480886032E+03  0.12509000000E+03 0.  0.
         25    1    4    4    0    0 -0.10829543602E+02 -0.30722227254E+02  0.38267206788E+02  0.13480734949E+03  0.12509000000E+03 0.  0.
         25    1    3    3    0    0 -0.58707156490E+02  0.94659986851E+02  0.10954578336E+02  0.16785277543E+03  0.12509000000E+03 0.  0.
<mgrwt>
<rscale>  2 0.45662061E+03</rscale>
<asrwt>0</asrwt>
<pdfrwt beam="1">  1       21 0.41734798E-01 0.45662061E+03</pdfrwt>
<pdfrwt beam="2">  1       21 0.27010641E-01 0.45662061E+03</pdfrwt>
<totfact> 0.66762519E+04</totfact>
</mgrwt>
</event>
<event>
 7    0  0.4752811E-002  0.4544862E+03  0.7546771E-02  0.1026393E+00
         21   -1    0    0  502  501  0.00000000000E+00  0.00000000000E+00  0.10687137317E+03  0.10687137317E+03  0.00000000000E+00 0.  1.
         21   -1    0    0  501  502 -0.00000000000E+00 -0.00000000000E+00 -0.48319235061E+03  0.48319235061E+03  0.00000000000E+00 0.  1.
      99926    2    1    2    0    0  0.00000000000E+00  0.00000000000E+00 -0.37632097744E+03  0.59006372378E+03  0.45448621548E+03 0.  0.
      99925    2    3    3    0    0  0.10109696765E+03 -0.32066843534E+02 -0.28632066441E+03  0.40299035911E+03  0.26300727622E+03 0.  0.
         25    1    4    4    0    0  0.15548943468E+02 -0.24155292338E+02 -0.16289402612E+03  0.20738182090E+03  0.12509000000E+03 0.  0.
         25    1    4    4    0    0  0.85548024184E+02 -0.79115511955E+01 -0.12342663829E+03  0.19560853821E+03  0.12509000000E+03 0.  0.
         25    1    3    3    0    0 -0.10109696765E+03  0.32066843534E+02 -0.90000313035E+02  0.18707336467E+03  0.12509000000E+03 0.  0.
<mgrwt>
<rscale>  2 0.45448622E+03</rscale>
<asrwt>0</asrwt>
<pdfrwt beam="1">  1       21 0.15716378E-01 0.45448622E+03</pdfrwt>
<pdfrwt beam="2">  1       21 0.71057698E-01 0.45448622E+03</pdfrwt>
<totfact> 0.59535462E+04</totfact>
</mgrwt>
</event>
<event>
 7    0  0.4752811E-002  0.4548969E+03  0.7546771E-02  0.1026272E+00
         21   -1    0    0  502  501  0.00000000000E+00  0.00000000000E+00  0.12758370871E+03  0.12758370871E+03  0.00000000000E+00 0. -1.
         21   -1    0    0  501  502 -0.00000000000E+00 -0.00000000000E+00 -0.40548118118E+03  0.40548118118E+03  0.00000000000E+00 0. -1.
      99926    2    1    2    0    0 -0.14210854715E-13  0.00000000000E+00 -0.27789747247E+03  0.53306488989E+03  0.45489688022E+03 0.  0.
      99925    2    3    3    0    0 -0.10700919606E+03 -0.13205575721E+02 -0.13546302530E+03  0.31498133914E+03  0.26313049520E+03 0.  0.
         25    1    4    4    0    0 -0.96539714479E+02 -0.16605025144E+01 -0.68301453685E+02  0.17214897739E+03  0.12509000000E+03 0.  0.
         25    1    3    3    0    0  0.10700919606E+03  0.13205575721E+02 -0.14243444716E+03  0.21808355076E+03  0.12509000000E+03 0.  0.
         25    1    4    4    0    0 -0.10469481585E+02 -0.11545073207E+02 -0.67161571620E+02  0.14283236175E+03  0.12509000000E+03 0.  0.
<mgrwt>
<rscale>  2 0.45489688E+03</rscale>
<asrwt>0</asrwt>
<pdfrwt beam="1">  1       21 0.18762310E-01 0.45489688E+03</pdfrwt>
<pdfrwt beam="2">  1       21 0.59629585E-01 0.45489688E+03</pdfrwt>
<totfact> 0.63050984E+04</totfact>
</mgrwt>
</event>
<event>
 7    0  0.4752811E-002  0.4442136E+03  0.7546771E-02  0.1029462E+00
         21   -1    0    0  502  501  0.00000000000E+00  0.00000000000E+00  0.44764093146E+02  0.44764093146E+02  0.00000000000E+00 0. -1.
         21   -1    0    0  501  502 -0.00000000000E+00 -0.00000000000E+00 -0.11020311116E+04  0.11020311116E+04  0.00000000000E+00 0. -1.
      99926    2    1    2    0    0  0.00000000000E+00  0.00000000000E+00 -0.10572670184E+04  0.11467952047E+04  0.44421356723E+03 0.  0.
      99925    2    3    3    0    0  0.91144625365E+01  0.95873637702E+02 -0.76397903687E+03  0.81371837265E+03  0.26305663530E+03 0.  0.
         25    1    4    4    0    0  0.42596296441E+02  0.35824565569E+02 -0.39783046204E+03  0.42073082677E+03  0.12509000000E+03 0.  0.
         25    1    4    4    0    0 -0.33481833904E+02  0.60049072133E+02 -0.36614857483E+03  0.39298754587E+03  0.12509000000E+03 0.  0.
         25    1    3    3    0    0 -0.91144625365E+01 -0.95873637702E+02 -0.29328798154E+03  0.33307683205E+03  0.12509000000E+03 0.  0.
<mgrwt>
<rscale>  2 0.44421357E+03</rscale>
<asrwt>0</asrwt>
<pdfrwt beam="1">  1       21 0.65829550E-02 0.44421357E+03</pdfrwt>
<pdfrwt beam="2">  1       21 0.16206340E+00 0.44421357E+03</pdfrwt>
<totfact> 0.36895032E+04</totfact>
</mgrwt>
</event>
<event>
 7    0  0.4752811E-002  0.4513103E+03  0.7546771E-02  0.1027332E+00
         21   -1    0    0  502  501  0.00000000000E+00  0.00000000000E+00  0.48860894720E+03  0.48860894720E+03  0.00000000000E+00 0.  1.
         21   -1    0    0  501  502 -0.00000000000E+00 -0.00000000000E+00 -0.10421471095E+03  0.10421471095E+03  0.00000000000E+00 0.  1.
      99926    2    1    2    0    0  0.00000000000E+00  0.00000000000E+00  0.38439423626E+03  0.59282365815E+03  0.45131027109E+03 0.  0.
      99925    2    3    3    0    0  0.10457913050E+03  0.26143605747E+02  0.21683056546E+03  0.35756768154E+03  0.26309479301E+03 0.  0.
         25    1    3    3    0    0 -0.10457913050E+03 -0.26143605747E+02  0.16756367080E+03  0.23525597661E+03  0.12509000000E+03 0.  0.
         25    1    4    4    0    0  0.73317578542E+02 -0.18757625012E+02  0.93216148625E+02  0.17338994862E+03  0.12509000000E+03 0.  0.
         25    1    4    4    0    0  0.31261551957E+02  0.44901230759E+02  0.12361441683E+03  0.18417773292E+03  0.12509000000E+03 0.  0.
<mgrwt>
<rscale>  2 0.45131027E+03</rscale>
<asrwt>0</asrwt>
<pdfrwt beam="1">  1       21 0.71854256E-01 0.45131027E+03</pdfrwt>
<pdfrwt beam="2">  1       21 0.15325693E-01 0.45131027E+03</pdfrwt>
<totfact> 0.60877997E+04</totfact>
</mgrwt>
</event>
<event>
 7    0  0.4752811E-002  0.4505995E+03  0.7546771E-02  0.1027543E+00
         21   -1    0    0  502  501  0.00000000000E+00  0.00000000000E+00  0.86643817054E+02  0.86643817054E+02  0.00000000000E+00 0.  1.
         21   -1    0    0  501  502 -0.00000000000E+00 -0.00000000000E+00 -0.58584639440E+03  0.58584639440E+03  0.00000000000E+00 0.  1.
      99926    2    1    2    0    0  0.00000000000E+00  0.14210854715E-13 -0.49920257734E+03  0.67249021145E+03  0.45059945769E+03 0.  0.
      99925    2    3    3    0    0  0.20052969112E+02 -0.10282004837E+03 -0.35961486900E+03  0.45776638804E+03  0.26315989075E+03 0.  0.
         25    1    3    3    0    0 -0.20052969112E+02  0.10282004837E+03 -0.13958770835E+03  0.21472382341E+03  0.12509000000E+03 0.  0.
         25    1    4    4    0    0  0.35818876781E+02 -0.21313370698E+02 -0.18978751106E+03  0.23109318285E+03  0.12509000000E+03 0.  0.
         25    1    4    4    0    0 -0.15765907669E+02 -0.81506677674E+02 -0.16982735794E+03  0.22667320520E+03  0.12509000000E+03 0.  0.
<mgrwt>
<rscale>  2 0.45059946E+03</rscale>
<asrwt>0</asrwt>
<pdfrwt beam="1">  1       21 0.12741738E-01 0.45059946E+03</pdfrwt>
<pdfrwt beam="2">  1       21 0.86153881E-01 0.45059946E+03</pdfrwt>
<totfact> 0.56350753E+04</totfact>
</mgrwt>
</event>
<event>
 7    0  0.4752811E-002  0.4770799E+03  0.7546771E-02  0.1019941E+00
         21   -1    0    0  502  501  0.00000000000E+00  0.00000000000E+00  0.11526291735E+03  0.11526291735E+03  0.00000000000E+00 0.  1.
         21   -1    0    0  501  502 -0.00000000000E+00 -0.00000000000E+00 -0.49366528714E+03  0.49366528714E+03  0.00000000000E+00 0.  1.
      99926    2    1    2    0    0 -0.71054273576E-14  0.00000000000E+00 -0.37840236978E+03  0.60892820449E+03  0.47707987252E+03 0.  0.
      99925    2    3    3    0    0  0.61490461957E+02 -0.10184892535E+03 -0.30991147585E+03  0.42320585484E+03  0.26249531844E+03 0.  0.
         25    1    4    4    0    0  0.66347584671E+02 -0.66082668471E+02 -0.14571646074E+03  0.21365794180E+03  0.12509000000E+03 0.  0.
         25    1    4    4    0    0 -0.48571227138E+01 -0.35766256881E+02 -0.16419501511E+03  0.20954791304E+03  0.12509000000E+03 0.  0.
         25    1    3    3    0    0 -0.61490461957E+02  0.10184892535E+03 -0.68490893933E+02  0.18572234965E+03  0.12509000000E+03 0.  0.
<mgrwt>
<rscale>  2 0.47707987E+03</rscale>
<asrwt>0</asrwt>
<pdfrwt beam="1">  1       21 0.16950429E-01 0.47707987E+03</pdfrwt>
<pdfrwt beam="2">  1       21 0.72597836E-01 0.47707987E+03</pdfrwt>
<totfact> 0.49007439E+04</totfact>
</mgrwt>
</event>
<event>
 7    0  0.4752811E-002  0.4291443E+03  0.7546771E-02  0.1034131E+00
         21   -1    0    0  502  501  0.00000000000E+00  0.00000000000E+00  0.45485008587E+03  0.45485008587E+03  0.00000000000E+00 0.  1.
         21   -1    0    0  501  502 -0.00000000000E+00 -0.00000000000E+00 -0.10122282329E+03  0.10122282329E+03  0.00000000000E+00 0.  1.
      99926    2    1    2    0    0  0.00000000000E+00  0.00000000000E+00  0.35362726258E+03  0.55607290916E+03  0.42914431076E+03 0.  0.
      99925    2    3    3    0    0 -0.26991648581E+02 -0.80728077678E+02  0.20659834384E+03  0.34509759623E+03  0.26299031090E+03 0.  0.
         25    1    4    4    0    0 -0.16013587827E+02 -0.58393578598E+02  0.61676275367E+02  0.15204511192E+03  0.12509000000E+03 0.  0.
         25    1    4    4    0    0 -0.10978060754E+02 -0.22334499079E+02  0.14492206847E+03  0.19305248431E+03  0.12509000000E+03 0.  0.
         25    1    3    3    0    0  0.26991648581E+02  0.80728077678E+02  0.14702891874E+03  0.21097531293E+03  0.12509000000E+03 0.  0.
<mgrwt>
<rscale>  2 0.42914431E+03</rscale>
<asrwt>0</asrwt>
<pdfrwt beam="1">  1       21 0.66889718E-01 0.42914431E+03</pdfrwt>
<pdfrwt beam="2">  1       21 0.14885709E-01 0.42914431E+03</pdfrwt>
<totfact> 0.75825831E+04</totfact>
</mgrwt>
</event>
<event>
 7    0  0.4752811E-002  0.4546921E+03  0.7546771E-02  0.1026332E+00
         21   -1    0    0  502  501  0.00000000000E+00  0.00000000000E+00  0.13760158532E+03  0.13760158532E+03  0.00000000000E+00 0. -1.
         21   -1    0    0  501  502 -0.00000000000E+00 -0.00000000000E+00 -0.37562227314E+03  0.37562227314E+03  0.00000000000E+00 0. -1.
      99926    2    1    2    0    0  0.00000000000E+00  0.14210854715E-13 -0.23802068782E+03  0.51322385846E+03  0.45469207280E+03 0.  0.
      99925    2    3    3    0    0 -0.47485714858E+02 -0.10096159169E+03 -0.16933199570E+03  0.33207811428E+03  0.26297226679E+03 0.  0.
         25    1    4    4    0    0 -0.16345804734E+01 -0.84248166905E+02 -0.79144767161E+02  0.17032858759E+03  0.12509000000E+03 0.  0.
         25    1    3    3    0    0  0.47485714858E+02  0.10096159169E+03 -0.68688692115E+02  0.18114574418E+03  0.12509000000E+03 0.  0.
         25    1    4    4    0    0 -0.45851134384E+02 -0.16713424781E+02 -0.90187228541E+02  0.16174952669E+03  0.12509000000E+03 0.  0.
<mgrwt>
<rscale>  2 0.45469207E+03</rscale>
<asrwt>0</asrwt>
<pdfrwt beam="1">  1       21 0.20235528E-01 0.45469207E+03</pdfrwt>
<pdfrwt beam="2">  1       21 0.55238569E-01 0.45469207E+03</pdfrwt>
<totfact> 0.64508764E+04</totfact>
</mgrwt>
</event>
<event>
 7    0  0.4752811E-002  0.4551710E+03  0.7546771E-02  0.1026191E+00
         21   -1    0    0  502  501  0.00000000000E+00  0.00000000000E+00  0.62049311460E+03  0.62049311460E+03  0.00000000000E+00 0.  1.
         21   -1    0    0  501  502 -0.00000000000E+00 -0.00000000000E+00 -0.83474185973E+02  0.83474185973E+02  0.00000000000E+00 0.  1.
      99926    2    1    2    0    0  0.00000000000E+00  0.00000000000E+00  0.53701892862E+03  0.70396730057E+03  0.45517099048E+03 0.  0.
      99925    2    3    3    0    0  0.59262276200E+02  0.24036109385E+02  0.19361697032E+03  0.33293877740E+03  0.26319374303E+03 0.  0.
         25    1    4    4    0    0  0.32880011103E+02  0.58884944666E+01  0.14643579788E+03  0.19546539463E+03  0.12509000000E+03 0.  0.
         25    1    3    3    0    0 -0.59262276200E+02 -0.24036109385E+02  0.34340195831E+03  0.37102852317E+03  0.12509000000E+03 0.  0.
         25    1    4    4    0    0  0.26382265097E+02  0.18147614918E+02  0.47181172440E+02  0.13747338278E+03  0.12509000000E+03 0.  0.
<mgrwt>
<rscale>  2 0.45517099E+03</rscale>
<asrwt>0</asrwt>
<pdfrwt beam="1">  1       21 0.91248985E-01 0.45517099E+03</pdfrwt>
<pdfrwt beam="2">  1       21 0.12275616E-01 0.45517099E+03</pdfrwt>
<totfact> 0.52617251E+04</totfact>
</mgrwt>
</event>
<event>
 7    0  0.4752811E-002  0.4602455E+03  0.7546771E-02  0.1024710E+00
         21   -1    0    0  502  501  0.00000000000E+00  0.00000000000E+00  0.18214067602E+03  0.18214067602E+03  0.00000000000E+00 0.  1.
         21   -1    0    0  501  502 -0.00000000000E+00 -0.00000000000E+00 -0.29074488678E+03  0.29074488678E+03  0.00000000000E+00 0.  1.
      99926    2    1    2    0    0  0.00000000000E+00  0.00000000000E+00 -0.10860421077E+03  0.47288556280E+03  0.46024545724E+03 0.  0.
      99925    2    3    3    0    0  0.18008936097E+02 -0.67044126788E+02  0.30038166796E+02  0.27366595114E+03  0.26300479964E+03 0.  0.
         25    1    4    4    0    0  0.23604446201E+02 -0.17597454968E+02  0.49360130124E+02  0.13766179880E+03  0.12509000000E+03 0.  0.
         25    1    3    3    0    0 -0.18008936097E+02  0.67044126788E+02 -0.13864237756E+03  0.19921961167E+03  0.12509000000E+03 0.  0.
         25    1    4    4    0    0 -0.55955101041E+01 -0.49446671820E+02 -0.19321963328E+02  0.13600415234E+03  0.12509000000E+03 0.  0.
<mgrwt>
<rscale>  2 0.46024546E+03</rscale>
<asrwt>0</asrwt>
<pdfrwt beam="1">  1       21 0.26785394E-01 0.46024546E+03</pdfrwt>
<pdfrwt beam="2">  1       21 0.42756601E-01 0.46024546E+03</pdfrwt>
<totfact> 0.64495989E+04</totfact>
</mgrwt>
</event>
<event>
 7    0  0.4752811E-002  0.4519760E+03  0.7546771E-02  0.1027134E+00
         21   -1    0    0  502  501  0.00000000000E+00  0.00000000000E+00  0.74833267116E+02  0.74833267116E+02  0.00000000000E+00 0. -1.
         21   -1    0    0  501  502 -0.00000000000E+00 -0.00000000000E+00 -0.68245813065E+03  0.68245813065E+03  0.00000000000E+00 0. -1.
      99926    2    1    2    0    0  0.00000000000E+00  0.00000000000E+00 -0.60762486353E+03  0.75729139776E+03  0.45197597983E+03 0.  0.
      99925    2    3    3    0    0 -0.71451423028E+02  0.45310205731E+02 -0.50222360652E+03  0.57313045273E+03  0.26285289480E+03 0.  0.
         25    1    3    3    0    0  0.71451423028E+02 -0.45310205731E+02 -0.10540125701E+03  0.18416094503E+03  0.12509000000E+03 0.  0.
         25    1    4    4    0    0 -0.11062345053E+02  0.49214164490E+02 -0.21054491678E+03  0.25004215553E+03  0.12509000000E+03 0.  0.
         25    1    4    4    0    0 -0.60389077975E+02 -0.39039587592E+01 -0.29167868975E+03  0.32308829720E+03  0.12509000000E+03 0.  0.
<mgrwt>
<rscale>  2 0.45197598E+03</rscale>
<asrwt>0</asrwt>
<pdfrwt beam="1">  1       21 0.11004892E-01 0.45197598E+03</pdfrwt>
<pdfrwt beam="2">  1       21 0.10036149E+00 0.45197598E+03</pdfrwt>
<totfact> 0.51101885E+04</totfact>
</mgrwt>
</event>
<event>
 7    0  0.4752811E-002  0.4561693E+03  0.7546771E-02  0.1025898E+00
         21   -1    0    0  502  501  0.00000000000E+00  0.00000000000E+00  0.34564035320E+03  0.34564035320E+03  0.00000000000E+00 0.  1.
         21   -1    0    0  501  502 -0.00000000000E+00 -0.00000000000E+00 -0.15051077403E+03  0.15051077403E+03  0.00000000000E+00 0.  1.
      99926    2    1    2    0    0  0.14210854715E-13  0.00000000000E+00  0.19512957918E+03  0.49615112723E+03  0.45616925409E+03 0.  0.
      99925    2    3    3    0    0  0.10028371360E+03  0.37870655947E+02  0.79840527946E+02  0.29507879390E+03  0.26307028512E+03 0.  0.
         25    1    4    4    0    0  0.67199029509E+02  0.46509625883E+02  0.70064398880E+02  0.16503146051E+03  0.12509000000E+03 0.  0.
         25    1    4    4    0    0  0.33084684096E+02 -0.86389699356E+01  0.97761290654E+01  0.13004733339E+03  0.12509000000E+03 0.  0.
         25    1    3    3    0    0 -0.10028371360E+03 -0.37870655947E+02  0.11528905123E+03  0.20107233333E+03  0.12509000000E+03 0.  0.
<mgrwt>
<rscale>  2 0.45616925E+03</rscale>
<asrwt>0</asrwt>
<pdfrwt beam="1">  1       21 0.50829464E-01 0.45616925E+03</pdfrwt>
<pdfrwt beam="2">  1       21 0.22133937E-01 0.45616925E+03</pdfrwt>
<totfact> 0.64937056E+04</totfact>
</mgrwt>
</event>
<event>
 7    0  0.4752811E-002  0.4037034E+03  0.7546771E-02  0.1042505E+00
         21   -1    0    0  502  501  0.00000000000E+00  0.00000000000E+00  0.39224820070E+03  0.39224820070E+03  0.00000000000E+00 0.  1.
         21   -1    0    0  501  502 -0.00000000000E+00 -0.00000000000E+00 -0.10387326707E+03  0.10387326707E+03  0.00000000000E+00 0.  1.
      99926    2    1    2    0    0  0.00000000000E+00  0.00000000000E+00  0.28837493362E+03  0.49612146777E+03  0.40370336689E+03 0.  0.
      99925    2    3    3    0    0  0.70325387328E+01 -0.46284658291E+02  0.16329625648E+03  0.31313537603E+03  0.26305202935E+03 0.  0.
         25    1    4    4    0    0  0.87241580392E+01  0.17607238995E+02  0.81451821394E+02  0.15055906850E+03  0.12509000000E+03 0.  0.
         25    1    3    3    0    0 -0.70325387328E+01  0.46284658291E+02  0.12507867714E+03  0.18298609174E+03  0.12509000000E+03 0.  0.
         25    1    4    4    0    0 -0.16916193063E+01 -0.63891897286E+02  0.81844435087E+02  0.16257630753E+03  0.12509000000E+03 0.  0.
<mgrwt>
<rscale>  2 0.40370337E+03</rscale>
<asrwt>0</asrwt>
<pdfrwt beam="1">  1       21 0.57683559E-01 0.40370337E+03</pdfrwt>
<pdfrwt beam="2">  1       21 0.15275481E-01 0.40370337E+03</pdfrwt>
<totfact> 0.10066284E+05</totfact>
</mgrwt>
</event>
<event>
 7    0  0.4752811E-002  0.4541237E+03  0.7546771E-02  0.1026499E+00
         21   -1    0    0  502  501  0.00000000000E+00  0.00000000000E+00  0.12149820522E+03  0.12149820522E+03  0.00000000000E+00 0. -1.
         21   -1    0    0  501  502 -0.00000000000E+00 -0.00000000000E+00 -0.42434442264E+03  0.42434442264E+03  0.00000000000E+00 0. -1.
      99926    2    1    2    0    0  0.00000000000E+00  0.00000000000E+00 -0.30284621742E+03  0.54584262785E+03  0.45412370889E+03 0.  0.
      99925    2    3    3    0    0 -0.30369219877E+02  0.98255523515E+02 -0.24510575904E+03  0.37391849909E+03  0.26298626092E+03 0.  0.
         25    1    3    3    0    0  0.30369219877E+02 -0.98255523515E+02 -0.57740458378E+02  0.17192412876E+03  0.12509000000E+03 0.  0.
         25    1    4    4    0    0 -0.13598909817E+02  0.41704277514E+02 -0.67313708431E+02  0.14867017372E+03  0.12509000000E+03 0.  0.
         25    1    4    4    0    0 -0.16770310060E+02  0.56551246001E+02 -0.17779205061E+03  0.22524832537E+03  0.12509000000E+03 0.  0.
<mgrwt>
<rscale>  2 0.45412371E+03</rscale>
<asrwt>0</asrwt>
<pdfrwt beam="1">  1       21 0.17867383E-01 0.45412371E+03</pdfrwt>
<pdfrwt beam="2">  1       21 0.62403592E-01 0.45412371E+03</pdfrwt>
<totfact> 0.62574830E+04</totfact>
</mgrwt>
</event>
<event>
 7    0  0.4752811E-002  0.5142476E+03  0.7546771E-02  0.1010126E+00
         21   -1    0    0  502  501  0.00000000000E+00  0.00000000000E+00  0.36974269792E+03  0.36974269792E+03  0.00000000000E+00 0.  1.
         21   -1    0    0  501  502 -0.00000000000E+00 -0.00000000000E+00 -0.17880716715E+03  0.17880716715E+03  0.00000000000E+00 0.  1.
      99926    2    1    2    0    0  0.00000000000E+00  0.00000000000E+00  0.19093553077E+03  0.54854986507E+03  0.51424758390E+03 0.  0.
      99925    2    3    3    0    0  0.10912717039E+03 -0.51970439296E+02 -0.19203872993E+01  0.28883737188E+03  0.26232360479E+03 0.  0.
         25    1    4    4    0    0  0.44760366191E+02 -0.35921431559E+02 -0.37890794608E+02  0.14274824007E+03  0.12509000000E+03 0.  0.
         25    1    3    3    0    0 -0.10912717039E+03  0.51970439296E+02  0.19285591807E+03  0.25971249318E+03  0.12509000000E+03 0.  0.
         25    1    4    4    0    0  0.64366804202E+02 -0.16049007737E+02  0.35970407309E+02  0.14608913182E+03  0.12509000000E+03 0.  0.
<mgrwt>
<rscale>  2 0.51424758E+03</rscale>
<asrwt>0</asrwt>
<pdfrwt beam="1">  1       21 0.54373926E-01 0.51424758E+03</pdfrwt>
<pdfrwt beam="2">  1       21 0.26295172E-01 0.51424758E+03</pdfrwt>
<totfact> 0.39746631E+04</totfact>
</mgrwt>
</event>
<event>
 7    0  0.4752811E-002  0.4441205E+03  0.7546771E-02  0.1029490E+00
         21   -1    0    0  502  501  0.00000000000E+00  0.00000000000E+00  0.23821747002E+03  0.23821747002E+03  0.00000000000E+00 0. -1.
         21   -1    0    0  501  502 -0.00000000000E+00 -0.00000000000E+00 -0.20699889320E+03  0.20699889320E+03  0.00000000000E+00 0. -1.
      99926    2    1    2    0    0  0.71054273576E-14  0.00000000000E+00  0.31218576818E+02  0.44521636322E+03  0.44412049102E+03 0.  0.
      99925    2    3    3    0    0  0.50978957003E+02 -0.87629550353E+02  0.39230906646E+01  0.28190578850E+03  0.26301652191E+03 0.  0.
         25    1    4    4    0    0  0.49259807445E+02 -0.24702443019E+02  0.28761106308E+02  0.13968338719E+03  0.12509000000E+03 0.  0.
         25    1    4    4    0    0  0.17191495574E+01 -0.62927107333E+02 -0.24838015643E+02  0.14222240131E+03  0.12509000000E+03 0.  0.
         25    1    3    3    0    0 -0.50978957003E+02  0.87629550353E+02  0.27295486154E+02  0.16331057472E+03  0.12509000000E+03 0.  0.
<mgrwt>
<rscale>  2 0.44412049E+03</rscale>
<asrwt>0</asrwt>
<pdfrwt beam="1">  1       21 0.35031981E-01 0.44412049E+03</pdfrwt>
<pdfrwt beam="2">  1       21 0.30441013E-01 0.44412049E+03</pdfrwt>
<totfact> 0.75622916E+04</totfact>
</mgrwt>
</event>
<event>
 7    0  0.4752811E-002  0.4394671E+03  0.7546771E-02  0.1030910E+00
         21   -1    0    0  502  501  0.00000000000E+00  0.00000000000E+00  0.24950157203E+03  0.24950157203E+03  0.00000000000E+00 0. -1.
         21   -1    0    0  501  502 -0.00000000000E+00 -0.00000000000E+00 -0.19351714285E+03  0.19351714285E+03  0.00000000000E+00 0. -1.
      99926    2    1    2    0    0  0.00000000000E+00  0.00000000000E+00  0.55984429188E+02  0.44301871488E+03  0.43946709254E+03 0.  0.
      99925    2    3    3    0    0 -0.82854387803E+02 -0.13198054524E+02  0.86875747602E+02  0.28926299995E+03  0.26284339329E+03 0.  0.
         25    1    3    3    0    0  0.82854387803E+02  0.13198054524E+02 -0.30891318414E+02  0.15375571493E+03  0.12509000000E+03 0.  0.
         25    1    4    4    0    0 -0.81149820924E+02 -0.95967842999E+01  0.33055993125E+02  0.15302809705E+03  0.12509000000E+03 0.  0.
         25    1    4    4    0    0 -0.17045668791E+01 -0.36012702243E+01  0.53819754477E+02  0.13623490290E+03  0.12509000000E+03 0.  0.
<mgrwt>
<rscale>  2 0.43946709E+03</rscale>
<asrwt>0</asrwt>
<pdfrwt beam="1">  1       21 0.36691408E-01 0.43946709E+03</pdfrwt>
<pdfrwt beam="2">  1       21 0.28458403E-01 0.43946709E+03</pdfrwt>
<totfact> 0.78748156E+04</totfact>
</mgrwt>
</event>
<event>
 7    0  0.4752811E-002  0.4573819E+03  0.7546771E-02  0.1025543E+00
         21   -1    0    0  502  501  0.00000000000E+00  0.00000000000E+00  0.10994324656E+03  0.10994324656E+03  0.00000000000E+00 0.  1.
         21   -1    0    0  501  502 -0.00000000000E+00 -0.00000000000E+00 -0.47569588948E+03  0.47569588948E+03  0.00000000000E+00 0.  1.
      99926    2    1    2    0    0  0.00000000000E+00  0.00000000000E+00 -0.36575264293E+03  0.58563913604E+03  0.45738189935E+03 0.  0.
      99925    2    3    3    0    0  0.74926708465E+02  0.87700411007E+02 -0.22593007733E+03  0.36540464355E+03  0.26300338392E+03 0.  0.
         25    1    4    4    0    0  0.19056227516E+01  0.32929320279E+02 -0.76947998864E+02  0.15052067686E+03  0.12509000000E+03 0.  0.
         25    1    4    4    0    0  0.73021085713E+02  0.54771090728E+02 -0.14898207847E+03  0.21488396670E+03  0.12509000000E+03 0.  0.
         25    1    3    3    0    0 -0.74926708465E+02 -0.87700411007E+02 -0.13982256559E+03  0.22023449249E+03  0.12509000000E+03 0.  0.
<mgrwt>
<rscale>  2 0.45738190E+03</rscale>
<asrwt>0</asrwt>
<pdfrwt beam="1">  1       21 0.16168125E-01 0.45738190E+03</pdfrwt>
<pdfrwt beam="2">  1       21 0.69955278E-01 0.45738190E+03</pdfrwt>
<totfact> 0.58462514E+04</totfact>
</mgrwt>
</event>
<event>
 7    0  0.4752811E-002  0.4553603E+03  0.7546771E-02  0.1026136E+00
         21   -1    0    0  502  501  0.00000000000E+00  0.00000000000E+00  0.42973381367E+03  0.42973381367E+03  0.00000000000E+00 0. -1.
         21   -1    0    0  501  502 -0.00000000000E+00 -0.00000000000E+00 -0.12062871916E+03  0.12062871916E+03  0.00000000000E+00 0. -1.
      99926    2    1    2    0    0  0.17763568394E-14  0.00000000000E+00  0.30910509451E+03  0.55036253283E+03  0.45536025089E+03 0.  0.
      99925    2    3    3    0    0 -0.13565741603E+02  0.10818363715E+03  0.15678245060E+03  0.32511283884E+03  0.26311573969E+03 0.  0.
         25    1    4    4    0    0  0.98273539520E+01  0.85402672161E+02  0.11070630833E+03  0.18786587796E+03  0.12509000000E+03 0.  0.
         25    1    4    4    0    0 -0.23393095555E+02  0.22780964991E+02  0.46076142262E+02  0.13724696088E+03  0.12509000000E+03 0.  0.
         25    1    3    3    0    0  0.13565741603E+02 -0.10818363715E+03  0.15232264391E+03  0.22524969399E+03  0.12509000000E+03 0.  0.
<mgrwt>
<rscale>  2 0.45536025E+03</rscale>
<asrwt>0</asrwt>
<pdfrwt beam="1">  1       21 0.63196148E-01 0.45536025E+03</pdfrwt>
<pdfrwt beam="2">  1       21 0.17739518E-01 0.45536025E+03</pdfrwt>
<totfact> 0.61666609E+04</totfact>
</mgrwt>
</event>
<event>
 7    0  0.4752811E-002  0.4588720E+03  0.7546771E-02  0.1025109E+00
         21   -1    0    0  502  501  0.00000000000E+00  0.00000000000E+00  0.51698478743E+02  0.51698478743E+02  0.00000000000E+00 0. -1.
         21   -1    0    0  501  502 -0.00000000000E+00 -0.00000000000E+00 -0.10182285954E+04  0.10182285954E+04  0.00000000000E+00 0. -1.
      99926    2    1    2    0    0  0.00000000000E+00  0.33306690739E-15 -0.96653011665E+03  0.10699270741E+04  0.45887196207E+03 0.  0.
      99925    2    3    3    0    0 -0.32139264598E+02 -0.72665106174E+00 -0.86781396623E+03  0.90736678746E+03  0.26302081029E+03 0.  0.
         25    1    3    3    0    0  0.32139264598E+02  0.72665106174E+00 -0.98716150415E+02  0.16256028667E+03  0.12509000000E+03 0.  0.
         25    1    4    4    0    0 -0.11690734314E+02  0.21875869104E+01 -0.29423017503E+03  0.31993806088E+03  0.12509000000E+03 0.  0.
         25    1    4    4    0    0 -0.20448530284E+02 -0.29142379722E+01 -0.57358379120E+03  0.58742872657E+03  0.12509000000E+03 0.  0.
<mgrwt>
<rscale>  2 0.45887196E+03</rscale>
<asrwt>0</asrwt>
<pdfrwt beam="1">  1       21 0.76027172E-02 0.45887196E+03</pdfrwt>
<pdfrwt beam="2">  1       21 0.14973950E+00 0.45887196E+03</pdfrwt>
<totfact> 0.35470657E+04</totfact>
</mgrwt>
</event>
<event>
 7    0  0.4752811E-002  0.4774998E+03  0.7546771E-02  0.1019825E+00
         21   -1    0    0  502  501  0.00000000000E+00  0.00000000000E+00  0.71234745164E+02  0.71234745164E+02  0.00000000000E+00 0. -1.
         21   -1    0    0  501  502 -0.00000000000E+00 -0.00000000000E+00 -0.80019256300E+03  0.80019256300E+03  0.00000000000E+00 0. -1.
      99926    2    1    2    0    0  0.00000000000E+00  0.00000000000E+00 -0.72895781784E+03  0.87142730817E+03  0.47749979396E+03 0.  0.
      99925    2    3    3    0    0  0.26790564174E+02 -0.11365041283E+03 -0.56688403545E+03  0.63573774603E+03  0.26300346273E+03 0.  0.
         25    1    4    4    0    0  0.44441375071E+02 -0.57147867714E+02 -0.34743441871E+03  0.37629655593E+03  0.12509000000E+03 0.  0.
         25    1    4    4    0    0 -0.17650810897E+02 -0.56502545114E+02 -0.21944961675E+03  0.25944119010E+03  0.12509000000E+03 0.  0.
         25    1    3    3    0    0 -0.26790564174E+02  0.11365041283E+03 -0.16207378239E+03  0.23568956214E+03  0.12509000000E+03 0.  0.
<mgrwt>
<rscale>  2 0.47749979E+03</rscale>
<asrwt>0</asrwt>
<pdfrwt beam="1">  1       21 0.10475699E-01 0.47749979E+03</pdfrwt>
<pdfrwt beam="2">  1       21 0.11767537E+00 0.47749979E+03</pdfrwt>
<totfact> 0.37438402E+04</totfact>
</mgrwt>
</event>
<event>
 7    0  0.4752811E-002  0.4447501E+03  0.7546771E-02  0.1029299E+00
         21   -1    0    0  502  501  0.00000000000E+00  0.00000000000E+00  0.13953707027E+03  0.13953707027E+03  0.00000000000E+00 0.  1.
         21   -1    0    0  501  502 -0.00000000000E+00 -0.00000000000E+00 -0.35439084246E+03  0.35439084246E+03  0.00000000000E+00 0.  1.
      99926    2    1    2    0    0  0.00000000000E+00  0.00000000000E+00 -0.21485377219E+03  0.49392791274E+03  0.44475008663E+03 0.  0.
      99925    2    3    3    0    0  0.86753119130E+02  0.56522029346E+02 -0.13693226637E+03  0.31381652318E+03  0.26269663333E+03 0.  0.
         25    1    4    4    0    0  0.73885452904E+02  0.58286893813E+02 -0.79295341213E+02  0.17547558628E+03  0.12509000000E+03 0.  0.
         25    1    4    4    0    0  0.12867666226E+02 -0.17648644670E+01 -0.57636925159E+02  0.13834093690E+03  0.12509000000E+03 0.  0.
         25    1    3    3    0    0 -0.86753119130E+02 -0.56522029346E+02 -0.77921505816E+02  0.18011138956E+03  0.12509000000E+03 0.  0.
<mgrwt>
<rscale>  2 0.44475009E+03</rscale>
<asrwt>0</asrwt>
<pdfrwt beam="1">  1       21 0.20520157E-01 0.44475009E+03</pdfrwt>
<pdfrwt beam="2">  1       21 0.52116300E-01 0.44475009E+03</pdfrwt>
<totfact> 0.71328697E+04</totfact>
</mgrwt>
</event>
<event>
 7    0  0.4752811E-002  0.4557335E+03  0.7546771E-02  0.1026026E+00
         21   -1    0    0  502  501  0.00000000000E+00  0.00000000000E+00  0.75221617450E+02  0.75221617450E+02  0.00000000000E+00 0. -1.
         21   -1    0    0  501  502 -0.00000000000E+00 -0.00000000000E+00 -0.69027050380E+03  0.69027050380E+03  0.00000000000E+00 0. -1.
      99926    2    1    2    0    0 -0.14210854715E-13 -0.71054273576E-14 -0.61504888635E+03  0.76549212125E+03  0.45573353519E+03 0.  0.
      99925    2    3    3    0    0  0.81171815996E+02  0.59079285475E+02 -0.47455635868E+03  0.55226715996E+03  0.26403797592E+03 0.  0.
         25    1    4    4    0    0  0.75482964952E+02  0.46352424849E+02 -0.30216654813E+03  0.33881906115E+03  0.12509000000E+03 0.  0.
         25    1    3    3    0    0 -0.81171815996E+02 -0.59079285475E+02 -0.14049252767E+03  0.21322496129E+03  0.12509000000E+03 0.  0.
         25    1    4    4    0    0  0.56888510432E+01  0.12726860626E+02 -0.17238981055E+03  0.21344809882E+03  0.12509000000E+03 0.  0.
<mgrwt>
<rscale>  2 0.45573354E+03</rscale>
<asrwt>0</asrwt>
<pdfrwt beam="1">  1       21 0.11062003E-01 0.45573354E+03</pdfrwt>
<pdfrwt beam="2">  1       21 0.10151036E+00 0.45573354E+03</pdfrwt>
<totfact> 0.49195111E+04</totfact>
</mgrwt>
</event>
<event>
 7    0  0.4752811E-002  0.4619208E+03  0.7546771E-02  0.1024226E+00
         21   -1    0    0  502  501  0.00000000000E+00  0.00000000000E+00  0.46176042654E+02  0.46176042654E+02  0.00000000000E+00 0.  1.
         21   -1    0    0  501  502 -0.00000000000E+00 -0.00000000000E+00 -0.11552029084E+04  0.11552029084E+04  0.00000000000E+00 0.  1.
      99926    2    1    2    0    0  0.00000000000E+00  0.00000000000E+00 -0.11090268657E+04  0.12013789510E+04  0.46192076711E+03 0.  0.
      99925    2    3    3    0    0 -0.23461235393E+02 -0.81768024274E+02 -0.47552352316E+03  0.55006456266E+03  0.26308166538E+03 0.  0.
         25    1    4    4    0    0 -0.44712539685E+02 -0.66832256045E+02 -0.25177666441E+03  0.29241196709E+03  0.12509000000E+03 0.  0.
         25    1    4    4    0    0  0.21251304292E+02 -0.14935768229E+02 -0.22374685874E+03  0.25765259557E+03  0.12509000000E+03 0.  0.
         25    1    3    3    0    0  0.23461235393E+02  0.81768024274E+02 -0.63350334256E+03  0.65131438837E+03  0.12509000000E+03 0.  0.
<mgrwt>
<rscale>  2 0.46192077E+03</rscale>
<asrwt>0</asrwt>
<pdfrwt beam="1">  1       21 0.67905941E-02 0.46192077E+03</pdfrwt>
<pdfrwt beam="2">  1       21 0.16988279E+00 0.46192077E+03</pdfrwt>
<totfact> 0.30437893E+04</totfact>
</mgrwt>
</event>
<event>
 7    0  0.4752811E-002  0.4545141E+03  0.7546771E-02  0.1026384E+00
         21   -1    0    0  502  501  0.00000000000E+00  0.00000000000E+00  0.10976786998E+04  0.10976786998E+04  0.00000000000E+00 0.  1.
         21   -1    0    0  501  502 -0.00000000000E+00 -0.00000000000E+00 -0.47049990566E+02  0.47049990566E+02  0.00000000000E+00 0.  1.
      99926    2    1    2    0    0  0.00000000000E+00  0.00000000000E+00  0.10506287092E+04  0.11447286903E+04  0.45451412506E+03 0.  0.
      99925    2    3    3    0    0  0.66892660799E+02  0.68734286987E+02  0.51203255137E+03  0.58354034441E+03  0.26295050791E+03 0.  0.
         25    1    4    4    0    0  0.68094620055E+02  0.23860669913E+02  0.22689627480E+03  0.26895285176E+03  0.12509000000E+03 0.  0.
         25    1    4    4    0    0 -0.12019592559E+01  0.44873617074E+02  0.28513627657E+03  0.31458749265E+03  0.12509000000E+03 0.  0.
         25    1    3    3    0    0 -0.66892660799E+02 -0.68734286987E+02  0.53859615783E+03  0.56118834593E+03  0.12509000000E+03 0.  0.
<mgrwt>
<rscale>  2 0.45451413E+03</rscale>
<asrwt>0</asrwt>
<pdfrwt beam="1">  1       21 0.16142332E+00 0.45451413E+03</pdfrwt>
<pdfrwt beam="2">  1       21 0.69191170E-02 0.45451413E+03</pdfrwt>
<totfact> 0.34087761E+04</totfact>
</mgrwt>
</event>
<event>
 7    0  0.4752811E-002  0.4567679E+03  0.7546771E-02  0.1025723E+00
         21   -1    0    0  502  501  0.00000000000E+00  0.00000000000E+00  0.13898545088E+03  0.13898545088E+03  0.00000000000E+00 0.  1.
         21   -1    0    0  501  502 -0.00000000000E+00 -0.00000000000E+00 -0.37528555267E+03  0.37528555267E+03  0.00000000000E+00 0.  1.
      99926    2    1    2    0    0  0.00000000000E+00  0.00000000000E+00 -0.23630010178E+03  0.51427100355E+03  0.45676791370E+03 0.  0.
      99925    2    3    3    0    0  0.88820465215E+02  0.31708384194E+02 -0.22205850079E+03  0.35696611498E+03  0.26309757278E+03 0.  0.
         25    1    3    3    0    0 -0.88820465215E+02 -0.31708384194E+02 -0.14241600998E+02  0.15730488857E+03  0.12509000000E+03 0.  0.
         25    1    4    4    0    0  0.41273199074E+02  0.20270730615E+01 -0.60136693314E+02  0.14481545487E+03  0.12509000000E+03 0.  0.
         25    1    4    4    0    0  0.47547266141E+02  0.29681311133E+02 -0.16192180747E+03  0.21215066011E+03  0.12509000000E+03 0.  0.
<mgrwt>
<rscale>  2 0.45676791E+03</rscale>
<asrwt>0</asrwt>
<pdfrwt beam="1">  1       21 0.20439037E-01 0.45676791E+03</pdfrwt>
<pdfrwt beam="2">  1       21 0.55189052E-01 0.45676791E+03</pdfrwt>
<totfact> 0.63385335E+04</totfact>
</mgrwt>
</event>
<event>
 7    0  0.4752811E-002  0.4563580E+03  0.7546771E-02  0.1025843E+00
         21   -1    0    0  502  501  0.00000000000E+00  0.00000000000E+00  0.21500659589E+03  0.21500659589E+03  0.00000000000E+00 0. -1.
         21   -1    0    0  501  502 -0.00000000000E+00 -0.00000000000E+00 -0.24215836583E+03  0.24215836583E+03  0.00000000000E+00 0. -1.
      99926    2    1    2    0    0  0.14210854715E-13 -0.17763568394E-14 -0.27151769942E+02  0.45716496172E+03  0.45635795557E+03 0.  0.
      99925    2    3    3    0    0  0.11179204803E+03  0.96869361448E+01  0.53588523610E+01  0.28600495647E+03  0.26301866681E+03 0.  0.
         25    1    4    4    0    0  0.30374570991E+02 -0.14540988295E+02 -0.24601892620E+02  0.13185907676E+03  0.12509000000E+03 0.  0.
         25    1    4    4    0    0  0.81417477042E+02  0.24227924440E+02  0.29960744981E+02  0.15414587971E+03  0.12509000000E+03 0.  0.
         25    1    3    3    0    0 -0.11179204803E+03 -0.96869361448E+01 -0.32510622303E+02  0.17116000525E+03  0.12509000000E+03 0.  0.
<mgrwt>
<rscale>  2 0.45635796E+03</rscale>
<asrwt>0</asrwt>
<pdfrwt beam="1">  1       21 0.31618617E-01 0.45635796E+03</pdfrwt>
<pdfrwt beam="2">  1       21 0.35611524E-01 0.45635796E+03</pdfrwt>
<totfact> 0.67651540E+04</totfact>
</mgrwt>
</event>
<event>
 7    0  0.4752811E-002  0.4561551E+03  0.7546771E-02  0.1025902E+00
         21   -1    0    0  502  501  0.00000000000E+00  0.00000000000E+00  0.58038499693E+02  0.58038499693E+02  0.00000000000E+00 0.  1.
         21   -1    0    0  501  502 -0.00000000000E+00 -0.00000000000E+00 -0.89629063800E+03  0.89629063800E+03  0.00000000000E+00 0.  1.
      99926    2    1    2    0    0 -0.35527136788E-14 -0.17763568394E-14 -0.83825213830E+03  0.95432913769E+03  0.45615507854E+03 0.  0.
      99925    2    3    3    0    0 -0.19151128772E+02 -0.95214946409E+01 -0.76158324538E+03  0.80606231121E+03  0.26319191726E+03 0.  0.
         25    1    4    4    0    0 -0.37858845536E+02  0.24751957211E+02 -0.38321929963E+03  0.40564823589E+03  0.12509000000E+03 0.  0.
         25    1    3    3    0    0  0.19151128772E+02  0.95214946409E+01 -0.76668892922E+02  0.14826682648E+03  0.12509000000E+03 0.  0.
         25    1    4    4    0    0  0.18707716764E+02 -0.34273451852E+02 -0.37836394575E+03  0.40041407531E+03  0.12509000000E+03 0.  0.
<mgrwt>
<rscale>  2 0.45615508E+03</rscale>
<asrwt>0</asrwt>
<pdfrwt beam="1">  1       21 0.85350736E-02 0.45615508E+03</pdfrwt>
<pdfrwt beam="2">  1       21 0.13180744E+00 0.45615508E+03</pdfrwt>
<totfact> 0.40598089E+04</totfact>
</mgrwt>
</event>
<event>
 7    0  0.4752811E-002  0.4544059E+03  0.7546771E-02  0.1026416E+00
         21   -1    0    0  502  501  0.00000000000E+00  0.00000000000E+00  0.20374713335E+03  0.20374713335E+03  0.00000000000E+00 0.  1.
         21   -1    0    0  501  502 -0.00000000000E+00 -0.00000000000E+00 -0.25335903027E+03  0.25335903027E+03  0.00000000000E+00 0.  1.
      99926    2    1    2    0    0  0.00000000000E+00  0.00000000000E+00 -0.49611896920E+02  0.45710616361E+03  0.45440588079E+03 0.  0.
      99925    2    3    3    0    0 -0.88551973434E+02  0.69100625607E+02 -0.39756594332E+02  0.28869896796E+03  0.26296417788E+03 0.  0.
         25    1    4    4    0    0 -0.85393494208E+02  0.37476410265E+02 -0.10619980271E+02  0.15638677137E+03  0.12509000000E+03 0.  0.
         25    1    3    3    0    0  0.88551973434E+02 -0.69100625607E+02 -0.98553025884E+01  0.16840719565E+03  0.12509000000E+03 0.  0.
         25    1    4    4    0    0 -0.31584792262E+01  0.31624215342E+02 -0.29136614061E+02  0.13231219659E+03  0.12509000000E+03 0.  0.
<mgrwt>
<rscale>  2 0.45440588E+03</rscale>
<asrwt>0</asrwt>
<pdfrwt beam="1">  1       21 0.29962814E-01 0.45440588E+03</pdfrwt>
<pdfrwt beam="2">  1       21 0.37258681E-01 0.45440588E+03</pdfrwt>
<totfact> 0.68716875E+04</totfact>
</mgrwt>
</event>
<event>
 7    0  0.4752811E-002  0.4563727E+03  0.7546771E-02  0.1025838E+00
         21   -1    0    0  502  501  0.00000000000E+00  0.00000000000E+00  0.32559218910E+02  0.32559218910E+02  0.00000000000E+00 0.  1.
         21   -1    0    0  501  502 -0.00000000000E+00 -0.00000000000E+00 -0.15992096519E+04  0.15992096519E+04  0.00000000000E+00 0.  1.
      99926    2    1    2    0    0  0.00000000000E+00  0.00000000000E+00 -0.15666504329E+04  0.16317688708E+04  0.45637272985E+03 0.  0.
      99925    2    3    3    0    0  0.79038286906E+02 -0.32830404312E+02 -0.71243015332E+03  0.76420637707E+03  0.26292542127E+03 0.  0.
         25    1    4    4    0    0  0.77312871893E+02 -0.15010668114E+02 -0.43288581059E+03  0.45742784505E+03  0.12509000000E+03 0.  0.
         25    1    3    3    0    0 -0.79038286906E+02  0.32830404312E+02 -0.85422027963E+03  0.86756249370E+03  0.12509000000E+03 0.  0.
         25    1    4    4    0    0  0.17254150133E+01 -0.17819736198E+02 -0.27954434273E+03  0.30677853202E+03  0.12509000000E+03 0.  0.
<mgrwt>
<rscale>  2 0.45637273E+03</rscale>
<asrwt>0</asrwt>
<pdfrwt beam="1">  1       21 0.47881198E-02 0.45637273E+03</pdfrwt>
<pdfrwt beam="2">  1       21 0.23517792E+00 0.45637273E+03</pdfrwt>
<totfact> 0.20501903E+04</totfact>
</mgrwt>
</event>
<event>
 7    0  0.4752811E-002  0.4549249E+03  0.7546771E-02  0.1026263E+00
         21   -1    0    0  502  501  0.00000000000E+00  0.00000000000E+00  0.33606109471E+03  0.33606109471E+03  0.00000000000E+00 0.  1.
         21   -1    0    0  501  502 -0.00000000000E+00 -0.00000000000E+00 -0.15395764857E+03  0.15395764857E+03  0.00000000000E+00 0.  1.
      99926    2    1    2    0    0  0.00000000000E+00  0.00000000000E+00  0.18210344614E+03  0.49001874328E+03  0.45492494289E+03 0.  0.
      99925    2    3    3    0    0  0.80377880069E+02 -0.69139347021E+02  0.15721365022E+03  0.32416379776E+03  0.26291668462E+03 0.  0.
         25    1    3    3    0    0 -0.80377880069E+02  0.69139347021E+02  0.24889795918E+02  0.16585494551E+03  0.12509000000E+03 0.  0.
         25    1    4    4    0    0  0.55094075935E+02 -0.69842269500E+02  0.10655762691E+03  0.18685645765E+03  0.12509000000E+03 0.  0.
         25    1    4    4    0    0  0.25283804134E+02  0.70292247938E+00  0.50656023304E+02  0.13730734011E+03  0.12509000000E+03 0.  0.
<mgrwt>
<rscale>  2 0.45492494E+03</rscale>
<asrwt>0</asrwt>
<pdfrwt beam="1">  1       21 0.49420749E-01 0.45492494E+03</pdfrwt>
<pdfrwt beam="2">  1       21 0.22640831E-01 0.45492494E+03</pdfrwt>
<totfact> 0.66017049E+04</totfact>
</mgrwt>
</event>
<event>
 7    0  0.4752811E-002  0.4573208E+03  0.7546771E-02  0.1025561E+00
         21   -1    0    0  502  501  0.00000000000E+00  0.00000000000E+00  0.16138481889E+03  0.16138481889E+03  0.00000000000E+00 0. -1.
         21   -1    0    0  501  502 -0.00000000000E+00 -0.00000000000E+00 -0.32398076819E+03  0.32398076819E+03  0.00000000000E+00 0. -1.
      99926    2    1    2    0    0  0.14210854715E-13  0.00000000000E+00 -0.16259594930E+03  0.48536558708E+03  0.45732079593E+03 0.  0.
      99925    2    3    3    0    0  0.10537824402E+03 -0.18823047683E+02 -0.14763940213E+03  0.32004744579E+03  0.26300968244E+03 0.  0.
         25    1    4    4    0    0  0.61905413512E+02 -0.32072547045E+02 -0.39480254660E+02  0.14855008281E+03  0.12509000000E+03 0.  0.
         25    1    4    4    0    0  0.43472830508E+02  0.13249499361E+02 -0.10815914747E+03  0.17149736297E+03  0.12509000000E+03 0.  0.
         25    1    3    3    0    0 -0.10537824402E+03  0.18823047683E+02 -0.14956547178E+02  0.16531814129E+03  0.12509000000E+03 0.  0.
<mgrwt>
<rscale>  2 0.45732080E+03</rscale>
<asrwt>0</asrwt>
<pdfrwt beam="1">  1       21 0.23733062E-01 0.45732080E+03</pdfrwt>
<pdfrwt beam="2">  1       21 0.47644230E-01 0.45732080E+03</pdfrwt>
<totfact> 0.65103854E+04</totfact>
</mgrwt>
</event>
<event>
 7    0  0.4752811E-002  0.4472766E+03  0.7546771E-02  0.1028537E+00
         21   -1    0    0  502  501  0.00000000000E+00  0.00000000000E+00  0.58566434980E+02  0.58566434980E+02  0.00000000000E+00 0. -1.
         21   -1    0    0  501  502 -0.00000000000E+00 -0.00000000000E+00 -0.85397178270E+03  0.85397178270E+03  0.00000000000E+00 0. -1.
      99926    2    1    2    0    0  0.00000000000E+00  0.71054273576E-14 -0.79540534772E+03  0.91253821768E+03  0.44727657165E+03 0.  0.
      99925    2    3    3    0    0 -0.44599951712E+02 -0.50422387961E+02 -0.33752572081E+03  0.43312937990E+03  0.26295603173E+03 0.  0.
         25    1    4    4    0    0 -0.54296226416E+02 -0.50782277448E+02 -0.19371764284E+03  0.24228279583E+03  0.12509000000E+03 0.  0.
         25    1    3    3    0    0  0.44599951712E+02  0.50422387961E+02 -0.45787962692E+03  0.47940883779E+03  0.12509000000E+03 0.  0.
         25    1    4    4    0    0  0.96962747040E+01  0.35988948665E+00 -0.14380807796E+03  0.19084658407E+03  0.12509000000E+03 0.  0.
<mgrwt>
<rscale>  2 0.44727657E+03</rscale>
<asrwt>0</asrwt>
<pdfrwt beam="1">  1       21 0.86127123E-02 0.44727657E+03</pdfrwt>
<pdfrwt beam="2">  1       21 0.12558407E+00 0.44727657E+03</pdfrwt>
<totfact> 0.45376503E+04</totfact>
</mgrwt>
</event>
<event>
 7    0  0.4752811E-002  0.4494785E+03  0.7546771E-02  0.1027878E+00
         21   -1    0    0  502  501  0.00000000000E+00  0.00000000000E+00  0.80847516698E+02  0.80847516698E+02  0.00000000000E+00 0. -1.
         21   -1    0    0  501  502 -0.00000000000E+00 -0.00000000000E+00 -0.62472815688E+03  0.62472815688E+03  0.00000000000E+00 0. -1.
      99926    2    1    2    0    0  0.00000000000E+00  0.00000000000E+00 -0.54388064018E+03  0.70557567357E+03  0.44947845374E+03 0.  0.
      99925    2    3    3    0    0  0.10735788148E+03 -0.75090402022E+01 -0.31531935075E+03  0.42367166238E+03  0.26170457418E+03 0.  0.
         25    1    3    3    0    0 -0.10735788148E+03  0.75090402022E+01 -0.22856128943E+03  0.28190401119E+03  0.12509000000E+03 0.  0.
         25    1    4    4    0    0  0.33721642748E+02 -0.64896048143E+01 -0.99078102965E+02  0.16322757962E+03  0.12509000000E+03 0.  0.
         25    1    4    4    0    0  0.73636238736E+02 -0.10194353879E+01 -0.21624124778E+03  0.26044408276E+03  0.12509000000E+03 0.  0.
<mgrwt>
<rscale>  2 0.44947845E+03</rscale>
<asrwt>0</asrwt>
<pdfrwt beam="1">  1       21 0.11889341E-01 0.44947845E+03</pdfrwt>
<pdfrwt beam="2">  1       21 0.91871786E-01 0.44947845E+03</pdfrwt>
<totfact> 0.54950022E+04</totfact>
</mgrwt>
</event>
<event>
 7    0  0.4752811E-002  0.4545869E+03  0.7546771E-02  0.1026363E+00
         21   -1    0    0  502  501  0.00000000000E+00  0.00000000000E+00  0.13871652808E+03  0.13871652808E+03  0.00000000000E+00 0.  1.
         21   -1    0    0  501  502 -0.00000000000E+00 -0.00000000000E+00 -0.37243081228E+03  0.37243081228E+03  0.00000000000E+00 0.  1.
      99926    2    1    2    0    0  0.00000000000E+00  0.00000000000E+00 -0.23371428420E+03  0.51114734036E+03  0.45458688600E+03 0.  0.
      99925    2    3    3    0    0  0.71548200037E+02 -0.15369626721E+02 -0.50576174707E+02  0.27760409897E+03  0.26296523717E+03 0.  0.
         25    1    3    3    0    0 -0.71548200037E+02  0.15369626721E+02 -0.18313810949E+03  0.23354324139E+03  0.12509000000E+03 0.  0.
         25    1    4    4    0    0  0.41715956243E+02 -0.83201157502E+01  0.15186439452E+02  0.13299466671E+03  0.12509000000E+03 0.  0.
         25    1    4    4    0    0  0.29832243794E+02 -0.70495109710E+01 -0.65762614159E+02  0.14460943225E+03  0.12509000000E+03 0.  0.
<mgrwt>
<rscale>  2 0.45458689E+03</rscale>
<asrwt>0</asrwt>
<pdfrwt beam="1">  1       21 0.20399490E-01 0.45458689E+03</pdfrwt>
<pdfrwt beam="2">  1       21 0.54769236E-01 0.45458689E+03</pdfrwt>
<totfact> 0.64706286E+04</totfact>
</mgrwt>
</event>
<event>
 7    0  0.4752811E-002  0.4536069E+03  0.7546771E-02  0.1026652E+00
         21   -1    0    0  502  501  0.00000000000E+00  0.00000000000E+00  0.47539613588E+03  0.47539613588E+03  0.00000000000E+00 0. -1.
         21   -1    0    0  501  502 -0.00000000000E+00 -0.00000000000E+00 -0.10820407129E+03  0.10820407129E+03  0.00000000000E+00 0. -1.
      99926    2    1    2    0    0  0.00000000000E+00  0.00000000000E+00  0.36719206459E+03  0.58360020717E+03  0.45360686670E+03 0.  0.
      99925    2    3    3    0    0  0.18439480870E+02  0.10932168827E+03  0.21207116821E+03  0.35556238888E+03  0.26298134158E+03 0.  0.
         25    1    4    4    0    0  0.45427503293E+02  0.45598792985E+02  0.12491088492E+03  0.18813066005E+03  0.12509000000E+03 0.  0.
         25    1    3    3    0    0 -0.18439480870E+02 -0.10932168827E+03  0.15512089637E+03  0.22803781829E+03  0.12509000000E+03 0.  0.
         25    1    4    4    0    0 -0.26988022422E+02  0.63722895283E+02  0.87160283292E+02  0.16743172884E+03  0.12509000000E+03 0.  0.
<mgrwt>
<rscale>  2 0.45360687E+03</rscale>
<asrwt>0</asrwt>
<pdfrwt beam="1">  1       21 0.69911196E-01 0.45360687E+03</pdfrwt>
<pdfrwt beam="2">  1       21 0.15912364E-01 0.45360687E+03</pdfrwt>
<totfact> 0.60361234E+04</totfact>
</mgrwt>
</event>
<event>
 7    0  0.4752811E-002  0.4593665E+03  0.7546771E-02  0.1024965E+00
         21   -1    0    0  502  501  0.00000000000E+00  0.00000000000E+00  0.15858498788E+03  0.15858498788E+03  0.00000000000E+00 0. -1.
         21   -1    0    0  501  502 -0.00000000000E+00 -0.00000000000E+00 -0.33265698685E+03  0.33265698685E+03  0.00000000000E+00 0. -1.
      99926    2    1    2    0    0  0.00000000000E+00  0.00000000000E+00 -0.17407199897E+03  0.49124197473E+03  0.45936653874E+03 0.  0.
      99925    2    3    3    0    0 -0.17028060447E+02  0.79565539042E+02 -0.18933278376E+02  0.27598361700E+03  0.26303584922E+03 0.  0.
         25    1    4    4    0    0 -0.38398590056E+02  0.69158209576E+02 -0.96206205114E+01  0.14831511760E+03  0.12509000000E+03 0.  0.
         25    1    3    3    0    0  0.17028060447E+02 -0.79565539042E+02 -0.15513872059E+03  0.21525835773E+03  0.12509000000E+03 0.  0.
         25    1    4    4    0    0  0.21370529608E+02  0.10407329467E+02 -0.93126578642E+01  0.12766849940E+03  0.12509000000E+03 0.  0.
<mgrwt>
<rscale>  2 0.45936654E+03</rscale>
<asrwt>0</asrwt>
<pdfrwt beam="1">  1       21 0.23321322E-01 0.45936654E+03</pdfrwt>
<pdfrwt beam="2">  1       21 0.48920145E-01 0.45936654E+03</pdfrwt>
<totfact> 0.63655082E+04</totfact>
</mgrwt>
</event>
<event>
 7    0  0.4752811E-002  0.4547952E+03  0.7546771E-02  0.1026302E+00
         21   -1    0    0  502  501  0.00000000000E+00  0.00000000000E+00  0.13968256475E+03  0.13968256475E+03  0.00000000000E+00 0. -1.
         21   -1    0    0  501  502 -0.00000000000E+00 -0.00000000000E+00 -0.37019409511E+03  0.37019409511E+03  0.00000000000E+00 0. -1.
      99926    2    1    2    0    0  0.00000000000E+00 -0.14210854715E-13 -0.23051153036E+03  0.50987665987E+03  0.45479516559E+03 0.  0.
      99925    2    3    3    0    0 -0.77212654367E+02 -0.81079844231E+02 -0.15875845033E+03  0.32730681644E+03  0.26341938312E+03 0.  0.
         25    1    4    4    0    0 -0.48902181599E+02 -0.19975138045E+02 -0.11697513592E+03  0.17922365923E+03  0.12509000000E+03 0.  0.
         25    1    4    4    0    0 -0.28310472768E+02 -0.61104706186E+02 -0.41783314418E+02  0.14808315721E+03  0.12509000000E+03 0.  0.
         25    1    3    3    0    0  0.77212654367E+02  0.81079844231E+02 -0.71753080025E+02  0.18256984342E+03  0.12509000000E+03 0.  0.
<mgrwt>
<rscale>  2 0.45479517E+03</rscale>
<asrwt>0</asrwt>
<pdfrwt beam="1">  1       21 0.20541554E-01 0.45479517E+03</pdfrwt>
<pdfrwt beam="2">  1       21 0.54440308E-01 0.45479517E+03</pdfrwt>
<totfact> 0.64687310E+04</totfact>
</mgrwt>
</event>
<event>
 7    0  0.4752811E-002  0.4798614E+03  0.7546771E-02  0.1019173E+00
         21   -1    0    0  502  501  0.00000000000E+00  0.00000000000E+00  0.29594485803E+03  0.29594485803E+03  0.00000000000E+00 0. -1.
         21   -1    0    0  501  502 -0.00000000000E+00 -0.00000000000E+00 -0.19451847024E+03  0.19451847024E+03  0.00000000000E+00 0. -1.
      99926    2    1    2    0    0  0.00000000000E+00 -0.71054273576E-14  0.10142638779E+03  0.49046332828E+03  0.47986140108E+03 0.  0.
      99925    2    3    3    0    0 -0.12045532141E+03 -0.54524219449E+02  0.33942649966E+02  0.29633981622E+03  0.26302625008E+03 0.  0.
         25    1    4    4    0    0 -0.30922829817E+02 -0.15217035844E+01 -0.52858312753E+01  0.12897280759E+03  0.12509000000E+03 0.  0.
         25    1    3    3    0    0  0.12045532141E+03  0.54524219449E+02  0.67483737825E+02  0.19412351205E+03  0.12509000000E+03 0.  0.
         25    1    4    4    0    0 -0.89532491588E+02 -0.53002515864E+02  0.39228481241E+02  0.16736700863E+03  0.12509000000E+03 0.  0.
<mgrwt>
<rscale>  2 0.47986140E+03</rscale>
<asrwt>0</asrwt>
<pdfrwt beam="1">  1       21 0.43521303E-01 0.47986140E+03</pdfrwt>
<pdfrwt beam="2">  1       21 0.28605657E-01 0.47986140E+03</pdfrwt>
<totfact> 0.54390595E+04</totfact>
</mgrwt>
</event>
<event>
 7    0  0.4752811E-002  0.4550226E+03  0.7546771E-02  0.1026235E+00
         21   -1    0    0  502  501  0.00000000000E+00  0.00000000000E+00  0.42471574992E+02  0.42471574992E+02  0.00000000000E+00 0. -1.
         21   -1    0    0  501  502 -0.00000000000E+00 -0.00000000000E+00 -0.12187300925E+04  0.12187300925E+04  0.00000000000E+00 0. -1.
      99926    2    1    2    0    0  0.00000000000E+00  0.00000000000E+00 -0.11762585175E+04  0.12612016675E+04  0.45502257754E+03 0.  0.
      99925    2    3    3    0    0  0.94654493495E+02 -0.27185089014E+02 -0.58632405149E+03  0.65016264706E+03  0.26312938274E+03 0.  0.
         25    1    3    3    0    0 -0.94654493495E+02  0.27185089014E+02 -0.58993446599E+03  0.61103902042E+03  0.12509000000E+03 0.  0.
         25    1    4    4    0    0  0.24142348431E+02  0.31192498050E+01 -0.20277044141E+03  0.23949100759E+03  0.12509000000E+03 0.  0.
         25    1    4    4    0    0  0.70512145064E+02 -0.30304338819E+02 -0.38355361008E+03  0.41067163946E+03  0.12509000000E+03 0.  0.
<mgrwt>
<rscale>  2 0.45502258E+03</rscale>
<asrwt>0</asrwt>
<pdfrwt beam="1">  1       21 0.62458212E-02 0.45502258E+03</pdfrwt>
<pdfrwt beam="2">  1       21 0.17922498E+00 0.45502258E+03</pdfrwt>
<totfact> 0.30257303E+04</totfact>
</mgrwt>
</event>
<event>
 7    0  0.4752811E-002  0.4477173E+03  0.7546771E-02  0.1028405E+00
         21   -1    0    0  502  501  0.00000000000E+00  0.00000000000E+00  0.33457763118E+02  0.33457763118E+02  0.00000000000E+00 0.  1.
         21   -1    0    0  501  502 -0.00000000000E+00 -0.00000000000E+00 -0.14977894418E+04  0.14977894418E+04  0.00000000000E+00 0.  1.
      99926    2    1    2    0    0 -0.35527136788E-14  0.71054273576E-14 -0.14643316787E+04  0.15312472049E+04  0.44771725159E+03 0.  0.
      99925    2    3    3    0    0  0.12409575008E+02 -0.39491941897E+02 -0.12622395441E+04  0.12899955728E+04  0.26291880911E+03 0.  0.
         25    1    4    4    0    0  0.43414870293E+02 -0.27691294403E+02 -0.71259145410E+03  0.72531768716E+03  0.12509000000E+03 0.  0.
         25    1    4    4    0    0 -0.31005295285E+02 -0.11800647494E+02 -0.54964809000E+03  0.56467788567E+03  0.12509000000E+03 0.  0.
         25    1    3    3    0    0 -0.12409575008E+02  0.39491941897E+02 -0.20209213455E+03  0.24125163207E+03  0.12509000000E+03 0.  0.
<mgrwt>
<rscale>  2 0.44771725E+03</rscale>
<asrwt>0</asrwt>
<pdfrwt beam="1">  1       21 0.49202596E-02 0.44771725E+03</pdfrwt>
<pdfrwt beam="2">  1       21 0.22026314E+00 0.44771725E+03</pdfrwt>
<totfact> 0.24373370E+04</totfact>
</mgrwt>
</event>
<event>
 7    0  0.4752811E-002  0.4539101E+03  0.7546771E-02  0.1026562E+00
         21   -1    0    0  502  501  0.00000000000E+00  0.00000000000E+00  0.57201135764E+03  0.57201135764E+03  0.00000000000E+00 0.  1.
         21   -1    0    0  501  502 -0.00000000000E+00 -0.00000000000E+00 -0.90048198750E+02  0.90048198750E+02  0.00000000000E+00 0.  1.
      99926    2    1    2    0    0  0.00000000000E+00  0.00000000000E+00  0.48196315889E+03  0.66205955639E+03  0.45391008986E+03 0.  0.
      99925    2    3    3    0    0 -0.64233301876E+02  0.70220915585E+02  0.21713246073E+03  0.35409900560E+03  0.26302605614E+03 0.  0.
         25    1    3    3    0    0  0.64233301876E+02 -0.70220915585E+02  0.26483069816E+03  0.30796055079E+03  0.12509000000E+03 0.  0.
         25    1    4    4    0    0 -0.43429077909E+01  0.73279497683E+01  0.11950533974E+03  0.17320968224E+03  0.12509000000E+03 0.  0.
         25    1    4    4    0    0 -0.59890394085E+02  0.62892965817E+02  0.97627120999E+02  0.18088932337E+03  0.12509000000E+03 0.  0.
<mgrwt>
<rscale>  2 0.45391009E+03</rscale>
<asrwt>0</asrwt>
<pdfrwt beam="1">  1       21 0.84119315E-01 0.45391009E+03</pdfrwt>
<pdfrwt beam="2">  1       21 0.13242383E-01 0.45391009E+03</pdfrwt>
<totfact> 0.55486698E+04</totfact>
</mgrwt>
</event>
<event>
 7    0  0.4752811E-002  0.4541357E+03  0.7546771E-02  0.1026496E+00
         21   -1    0    0  502  501  0.00000000000E+00  0.00000000000E+00  0.17148768019E+03  0.17148768019E+03  0.00000000000E+00 0.  1.
         21   -1    0    0  501  502 -0.00000000000E+00 -0.00000000000E+00 -0.30066192099E+03  0.30066192099E+03  0.00000000000E+00 0.  1.
      99926    2    1    2    0    0  0.00000000000E+00  0.00000000000E+00 -0.12917424080E+03  0.47214960118E+03  0.45413573016E+03 0.  0.
      99925    2    3    3    0    0 -0.55907043965E+02 -0.58092623171E+02 -0.16286387515E+03  0.31956241301E+03  0.26285955099E+03 0.  0.
         25    1    4    4    0    0 -0.50384580765E+02 -0.47394433856E+02 -0.12046832289E+03  0.18693571960E+03  0.12509000000E+03 0.  0.
         25    1    3    3    0    0  0.55907043965E+02  0.58092623171E+02  0.33689634354E+02  0.15258718817E+03  0.12509000000E+03 0.  0.
         25    1    4    4    0    0 -0.55224632000E+01 -0.10698189314E+02 -0.42395552260E+02  0.13262669341E+03  0.12509000000E+03 0.  0.
<mgrwt>
<rscale>  2 0.45413573E+03</rscale>
<asrwt>0</asrwt>
<pdfrwt beam="1">  1       21 0.25218777E-01 0.45413573E+03</pdfrwt>
<pdfrwt beam="2">  1       21 0.44214988E-01 0.45413573E+03</pdfrwt>
<totfact> 0.67739546E+04</totfact>
</mgrwt>
</event>
<event>
 6    0  0.4752811E-002  0.4547562E+03  0.7546771E-02  0.1026313E+00
         21   -1    0    0  502  501  0.00000000000E+00  0.00000000000E+00  0.24173482037E+03  0.24173482037E+03  0.00000000000E+00 0. -1.
         21   -1    0    0  501  502 -0.00000000000E+00 -0.00000000000E+00 -0.21387406577E+03  0.21387406577E+03  0.00000000000E+00 0. -1.
      99926    2    1    2    0    0  0.00000000000E+00  0.00000000000E+00  0.27860754608E+02  0.45560888614E+03  0.45475623743E+03 0.  0.
         25    1    3    3    0    0 -0.45906165465E+02  0.30628943919E+02  0.19535837524E+02  0.13811106140E+03  0.12509000000E+03 0.  0.
         25    1    3    3    0    0  0.57653502443E+02 -0.57640724309E+02  0.80992906584E+02  0.16986388215E+03  0.12509000000E+03 0.  0.
         25    1    3    3    0    0 -0.11747336978E+02  0.27011780391E+02 -0.72667989501E+02  0.14763394259E+03  0.12509000000E+03 0.  0.
<mgrwt>
<rscale>  2 0.45475624E+03</rscale>
<asrwt>0</asrwt>
<pdfrwt beam="1">  1       21 0.35549238E-01 0.45475624E+03</pdfrwt>
<pdfrwt beam="2">  1       21 0.31452069E-01 0.45475624E+03</pdfrwt>
<totfact> 0.68634636E+04</totfact>
</mgrwt>
</event>
<event>
 7    0  0.4752811E-002  0.4564588E+03  0.7546771E-02  0.1025813E+00
         21   -1    0    0  502  501  0.00000000000E+00  0.00000000000E+00  0.29142107866E+03  0.29142107866E+03  0.00000000000E+00 0. -1.
         21   -1    0    0  501  502 -0.00000000000E+00 -0.00000000000E+00 -0.17874021282E+03  0.17874021282E+03  0.00000000000E+00 0. -1.
      99926    2    1    2    0    0  0.00000000000E+00  0.00000000000E+00  0.11268086584E+03  0.47016129148E+03  0.45645882890E+03 0.  0.
      99925    2    3    3    0    0  0.53217540857E+02 -0.25023573901E+02  0.17201850932E+03  0.31973938503E+03  0.26302969583E+03 0.  0.
         25    1    4    4    0    0  0.52307399158E+02 -0.21775881245E+01  0.12419244264E+03  0.18388060476E+03  0.12509000000E+03 0.  0.
         25    1    3    3    0    0 -0.53217540857E+02  0.25023573901E+02 -0.59337643477E+02  0.15042190645E+03  0.12509000000E+03 0.  0.
         25    1    4    4    0    0  0.91014169979E+00 -0.22845985776E+02  0.47826066677E+02  0.13585878028E+03  0.12509000000E+03 0.  0.
<mgrwt>
<rscale>  2 0.45645883E+03</rscale>
<asrwt>0</asrwt>
<pdfrwt beam="1">  1       21 0.42856041E-01 0.45645883E+03</pdfrwt>
<pdfrwt beam="2">  1       21 0.26285325E-01 0.45645883E+03</pdfrwt>
<totfact> 0.66649121E+04</totfact>
</mgrwt>
</event>
<event>
 7    0  0.4752811E-002  0.4640916E+03  0.7546771E-02  0.1023601E+00
         21   -1    0    0  502  501  0.00000000000E+00  0.00000000000E+00  0.15166908859E+03  0.15166908859E+03  0.00000000000E+00 0. -1.
         21   -1    0    0  501  502 -0.00000000000E+00 -0.00000000000E+00 -0.35501794791E+03  0.35501794791E+03  0.00000000000E+00 0. -1.
      99926    2    1    2    0    0  0.00000000000E+00  0.00000000000E+00 -0.20334885932E+03  0.50668703650E+03  0.46409157973E+03 0.  0.
      99925    2    3    3    0    0  0.39876672579E+02 -0.11432872341E+03 -0.13756380095E+03  0.32057849823E+03  0.26303149657E+03 0.  0.
         25    1    4    4    0    0  0.23068796001E+02 -0.31893485892E+02 -0.10082488648E+03  0.16541623144E+03  0.12509000000E+03 0.  0.
         25    1    4    4    0    0  0.16807876578E+02 -0.82435237517E+02 -0.36738914473E+02  0.15516226679E+03  0.12509000000E+03 0.  0.
         25    1    3    3    0    0 -0.39876672579E+02  0.11432872341E+03 -0.65785058370E+02  0.18610853827E+03  0.12509000000E+03 0.  0.
<mgrwt>
<rscale>  2 0.46409158E+03</rscale>
<asrwt>0</asrwt>
<pdfrwt beam="1">  1       21 0.22304277E-01 0.46409158E+03</pdfrwt>
<pdfrwt beam="2">  1       21 0.52208522E-01 0.46409158E+03</pdfrwt>
<totfact> 0.60330516E+04</totfact>
</mgrwt>
</event>
<event>
 7    0  0.4752811E-002  0.4419719E+03  0.7546771E-02  0.1030144E+00
         21   -1    0    0  502  501  0.00000000000E+00  0.00000000000E+00  0.80018496682E+03  0.80018496682E+03  0.00000000000E+00 0.  1.
         21   -1    0    0  501  502 -0.00000000000E+00 -0.00000000000E+00 -0.61029366780E+02  0.61029366780E+02  0.00000000000E+00 0.  1.
      99926    2    1    2    0    0  0.00000000000E+00  0.00000000000E+00  0.73915560004E+03  0.86121433360E+03  0.44197186260E+03 0.  0.
      99925    2    3    3    0    0  0.55965474213E+02  0.50228210101E+01  0.30865211638E+03  0.40939786579E+03  0.26302684376E+03 0.  0.
         25    1    4    4    0    0  0.14074575562E+02 -0.66052726647E+01  0.20737739390E+03  0.24268212729E+03  0.12509000000E+03 0.  0.
         25    1    4    4    0    0  0.41890898651E+02  0.11628093675E+02  0.10127472247E+03  0.16671573850E+03  0.12509000000E+03 0.  0.
         25    1    3    3    0    0 -0.55965474213E+02 -0.50228210101E+01  0.43050348366E+03  0.45181646781E+03  0.12509000000E+03 0.  0.
<mgrwt>
<rscale>  2 0.44197186E+03</rscale>
<asrwt>0</asrwt>
<pdfrwt beam="1">  1       21 0.11767425E+00 0.44197186E+03</pdfrwt>
<pdfrwt beam="2">  1       21 0.89749074E-02 0.44197186E+03</pdfrwt>
<totfact> 0.49842873E+04</totfact>
</mgrwt>
</event>
<event>
 7    0  0.4752811E-002  0.4525906E+03  0.7546771E-02  0.1026952E+00
         21   -1    0    0  502  501  0.00000000000E+00  0.00000000000E+00  0.10513151985E+03  0.10513151985E+03  0.00000000000E+00 0.  1.
         21   -1    0    0  501  502 -0.00000000000E+00 -0.00000000000E+00 -0.48710009052E+03  0.48710009052E+03  0.00000000000E+00 0.  1.
      99926    2    1    2    0    0  0.71054273576E-14  0.14210854715E-13 -0.38196857067E+03  0.59223161037E+03  0.45259064433E+03 0.  0.
      99925    2    3    3    0    0  0.59498078442E+02  0.78499568907E+02 -0.30728728096E+03  0.41637085070E+03  0.26312926218E+03 0.  0.
         25    1    4    4    0    0 -0.48006075886E+01  0.59602414379E+02 -0.16299956206E+03  0.21399032447E+03  0.12509000000E+03 0.  0.
         25    1    4    4    0    0  0.64298686031E+02  0.18897154527E+02 -0.14428771890E+03  0.20238052624E+03  0.12509000000E+03 0.  0.
         25    1    3    3    0    0 -0.59498078442E+02 -0.78499568907E+02 -0.74681289707E+02  0.17586075966E+03  0.12509000000E+03 0.  0.
<mgrwt>
<rscale>  2 0.45259064E+03</rscale>
<asrwt>0</asrwt>
<pdfrwt beam="1">  1       21 0.15460518E-01 0.45259064E+03</pdfrwt>
<pdfrwt beam="2">  1       21 0.71632367E-01 0.45259064E+03</pdfrwt>
<totfact> 0.60298972E+04</totfact>
</mgrwt>
</event>
<event>
 7    0  0.4752811E-002  0.4566719E+03  0.7546771E-02  0.1025751E+00
         21   -1    0    0  502  501  0.00000000000E+00  0.00000000000E+00  0.49779212807E+03  0.49779212807E+03  0.00000000000E+00 0.  1.
         21   -1    0    0  501  502 -0.00000000000E+00 -0.00000000000E+00 -0.10473712720E+03  0.10473712720E+03  0.00000000000E+00 0.  1.
      99926    2    1    2    0    0  0.00000000000E+00  0.00000000000E+00  0.39305500087E+03  0.60252925528E+03  0.45667194982E+03 0.  0.
      99925    2    3    3    0    0  0.77458201698E+02 -0.79323408923E+02  0.28618677942E+03  0.40413494823E+03  0.26292623956E+03 0.  0.
         25    1    4    4    0    0  0.54422249397E+02 -0.58326200098E+02  0.10496693059E+03  0.18173962547E+03  0.12509000000E+03 0.  0.
         25    1    3    3    0    0 -0.77458201698E+02  0.79323408923E+02  0.10686822145E+03  0.19839430705E+03  0.12509000000E+03 0.  0.
         25    1    4    4    0    0  0.23035952301E+02 -0.20997208825E+02  0.18121984883E+03  0.22239532276E+03  0.12509000000E+03 0.  0.
<mgrwt>
<rscale>  2 0.45667195E+03</rscale>
<asrwt>0</asrwt>
<pdfrwt beam="1">  1       21 0.73204724E-01 0.45667195E+03</pdfrwt>
<pdfrwt beam="2">  1       21 0.15402519E-01 0.45667195E+03</pdfrwt>
<totfact> 0.57756128E+04</totfact>
</mgrwt>
</event>
<event>
 7    0  0.4752811E-002  0.4730453E+03  0.7546771E-02  0.1021064E+00
         21   -1    0    0  502  501  0.00000000000E+00  0.00000000000E+00  0.26965165826E+03  0.26965165826E+03  0.00000000000E+00 0.  1.
         21   -1    0    0  501  502 -0.00000000000E+00 -0.00000000000E+00 -0.20746385136E+03  0.20746385136E+03  0.00000000000E+00 0.  1.
      99926    2    1    2    0    0  0.14210854715E-13  0.00000000000E+00  0.62187806903E+02  0.47711550962E+03  0.47304533207E+03 0.  0.
      99925    2    3    3    0    0  0.66935990682E+02 -0.92040427698E+01  0.15087080363E+03  0.30955261617E+03  0.26171679644E+03 0.  0.
         25    1    3    3    0    0 -0.66935990682E+02  0.92040427698E+01 -0.88682996727E+02  0.16756289345E+03  0.12509000000E+03 0.  0.
         25    1    4    4    0    0  0.11561304850E+02  0.22623978740E+02  0.91579940973E+02  0.15709838278E+03  0.12509000000E+03 0.  0.
         25    1    4    4    0    0  0.55374685832E+02 -0.31828021510E+02  0.59290862658E+02  0.15245423339E+03  0.12509000000E+03 0.  0.
<mgrwt>
<rscale>  2 0.47304533E+03</rscale>
<asrwt>0</asrwt>
<pdfrwt beam="1">  1       21 0.39654655E-01 0.47304533E+03</pdfrwt>
<pdfrwt beam="2">  1       21 0.30509390E-01 0.47304533E+03</pdfrwt>
<totfact> 0.58124158E+04</totfact>
</mgrwt>
</event>
<event>
 7    0  0.4752811E-002  0.4578807E+03  0.7546771E-02  0.1025398E+00
         21   -1    0    0  502  501  0.00000000000E+00  0.00000000000E+00  0.37515865655E+03  0.37515865655E+03  0.00000000000E+00 0.  1.
         21   -1    0    0  501  502 -0.00000000000E+00 -0.00000000000E+00 -0.13971070213E+03  0.13971070213E+03  0.00000000000E+00 0.  1.
      99926    2    1    2    0    0  0.00000000000E+00  0.00000000000E+00  0.23544795442E+03  0.51486935867E+03  0.45788068016E+03 0.  0.
      99925    2    3    3    0    0 -0.78698018516E+02 -0.55384380462E+02  0.75412537107E+02  0.29010359035E+03  0.26308218233E+03 0.  0.
         25    1    4    4    0    0 -0.42663171035E+02  0.87647264575E+01  0.16508172422E+02  0.13348031484E+03  0.12509000000E+03 0.  0.
         25    1    3    3    0    0  0.78698018516E+02  0.55384380462E+02  0.16003541731E+03  0.22476576833E+03  0.12509000000E+03 0.  0.
         25    1    4    4    0    0 -0.36034847481E+02 -0.64149106919E+02  0.58904364685E+02  0.15662327551E+03  0.12509000000E+03 0.  0.
<mgrwt>
<rscale>  2 0.45788068E+03</rscale>
<asrwt>0</asrwt>
<pdfrwt beam="1">  1       21 0.55170390E-01 0.45788068E+03</pdfrwt>
<pdfrwt beam="2">  1       21 0.20545692E-01 0.45788068E+03</pdfrwt>
<totfact> 0.62790472E+04</totfact>
</mgrwt>
</event>
<event>
 7    0  0.4752811E-002  0.4500909E+03  0.7546771E-02  0.1027695E+00
         21   -1    0    0  502  501  0.00000000000E+00  0.00000000000E+00  0.14225297460E+03  0.14225297460E+03  0.00000000000E+00 0.  1.
         21   -1    0    0  501  502 -0.00000000000E+00 -0.00000000000E+00 -0.35602385979E+03  0.35602385979E+03  0.00000000000E+00 0.  1.
      99926    2    1    2    0    0  0.14210854715E-13  0.00000000000E+00 -0.21377088519E+03  0.49827683439E+03  0.45009089342E+03 0.  0.
      99925    2    3    3    0    0  0.85118388982E+02  0.41590652195E+02 -0.76256237606E+02  0.28963189941E+03  0.26286251328E+03 0.  0.
         25    1    3    3    0    0 -0.85118388982E+02 -0.41590652195E+02 -0.13751464758E+03  0.20864493498E+03  0.12509000000E+03 0.  0.
         25    1    4    4    0    0  0.55448897830E+02  0.23963611002E+02  0.41202363301E+00  0.13891188857E+03  0.12509000000E+03 0.  0.
         25    1    4    4    0    0  0.29669491152E+02  0.17627041193E+02 -0.76668261239E+02  0.15072001084E+03  0.12509000000E+03 0.  0.
<mgrwt>
<rscale>  2 0.45009089E+03</rscale>
<asrwt>0</asrwt>
<pdfrwt beam="1">  1       21 0.20919555E-01 0.45009089E+03</pdfrwt>
<pdfrwt beam="2">  1       21 0.52356449E-01 0.45009089E+03</pdfrwt>
<totfact> 0.68003462E+04</totfact>
</mgrwt>
</event>
<event>
 7    0  0.4752811E-002  0.4551690E+03  0.7546771E-02  0.1026192E+00
         21   -1    0    0  502  501  0.00000000000E+00  0.00000000000E+00  0.17848160481E+03  0.17848160481E+03  0.00000000000E+00 0. -1.
         21   -1    0    0  501  502 -0.00000000000E+00 -0.00000000000E+00 -0.29019636503E+03  0.29019636503E+03  0.00000000000E+00 0. -1.
      99926    2    1    2    0    0 -0.14210854715E-13  0.00000000000E+00 -0.11171476022E+03  0.46867796985E+03  0.45516903648E+03 0.  0.
      99925    2    3    3    0    0  0.84728768788E+02  0.68441749696E+02 -0.40186239537E+02  0.28804830801E+03  0.26361649520E+03 0.  0.
         25    1    4    4    0    0  0.86276355824E+00  0.31507235077E+02 -0.53073016330E+01  0.12910896860E+03  0.12509000000E+03 0.  0.
         25    1    4    4    0    0  0.83866005230E+02  0.36934514619E+02 -0.34878937904E+02  0.15893933941E+03  0.12509000000E+03 0.  0.
         25    1    3    3    0    0 -0.84728768788E+02 -0.68441749696E+02 -0.71528520684E+02  0.18062966183E+03  0.12509000000E+03 0.  0.
<mgrwt>
<rscale>  2 0.45516904E+03</rscale>
<asrwt>0</asrwt>
<pdfrwt beam="1">  1       21 0.26247295E-01 0.45516904E+03</pdfrwt>
<pdfrwt beam="2">  1       21 0.42675936E-01 0.45516904E+03</pdfrwt>
<totfact> 0.67443758E+04</totfact>
</mgrwt>
</event>
<event>
 7    0  0.4752811E-002  0.4506194E+03  0.7546771E-02  0.1027538E+00
         21   -1    0    0  502  501  0.00000000000E+00  0.00000000000E+00  0.36345751853E+03  0.36345751853E+03  0.00000000000E+00 0. -1.
         21   -1    0    0  501  502 -0.00000000000E+00 -0.00000000000E+00 -0.13967093597E+03  0.13967093597E+03  0.00000000000E+00 0. -1.
      99926    2    1    2    0    0  0.00000000000E+00  0.14210854715E-13  0.22378658256E+03  0.50312845450E+03  0.45061935954E+03 0.  0.
      99925    2    3    3    0    0 -0.41029215572E+02 -0.84850997451E+02  0.20239164688E+03  0.34505144899E+03  0.26308750525E+03 0.  0.
         25    1    4    4    0    0  0.11188730020E+02 -0.15927659535E+02  0.10496571426E+03  0.16445116992E+03  0.12509000000E+03 0.  0.
         25    1    3    3    0    0  0.41029215572E+02  0.84850997451E+02  0.21394935681E+02  0.15807700551E+03  0.12509000000E+03 0.  0.
         25    1    4    4    0    0 -0.52217945592E+02 -0.68923337916E+02  0.97425932624E+02  0.18060027907E+03  0.12509000000E+03 0.  0.
<mgrwt>
<rscale>  2 0.45061936E+03</rscale>
<asrwt>0</asrwt>
<pdfrwt beam="1">  1       21 0.53449635E-01 0.45061936E+03</pdfrwt>
<pdfrwt beam="2">  1       21 0.20539844E-01 0.45061936E+03</pdfrwt>
<totfact> 0.67363354E+04</totfact>
</mgrwt>
</event>
<event>
 7    0  0.4752811E-002  0.4691998E+03  0.7546771E-02  0.1022146E+00
         21   -1    0    0  502  501  0.00000000000E+00  0.00000000000E+00  0.60622885984E+02  0.60622885984E+02  0.00000000000E+00 0. -1.
         21   -1    0    0  501  502 -0.00000000000E+00 -0.00000000000E+00 -0.90786032620E+03  0.90786032620E+03  0.00000000000E+00 0. -1.
      99926    2    1    2    0    0 -0.17763568394E-14  0.00000000000E+00 -0.84723744022E+03  0.96848321218E+03  0.46919979985E+03 0.  0.
      99925    2    3    3    0    0  0.87655923479E+01  0.12559567061E+03 -0.53938576206E+03  0.61313651960E+03  0.26296061164E+03 0.  0.
         25    1    3    3    0    0 -0.87655923479E+01 -0.12559567061E+03 -0.30785167816E+03  0.35534669258E+03  0.12509000000E+03 0.  0.
         25    1    4    4    0    0 -0.96368001207E+01  0.53562436808E+02 -0.18351031318E+03  0.22865989088E+03  0.12509000000E+03 0.  0.
         25    1    4    4    0    0  0.18402392469E+02  0.72033233799E+02 -0.35587544888E+03  0.38447662872E+03  0.12509000000E+03 0.  0.
<mgrwt>
<rscale>  2 0.46919980E+03</rscale>
<asrwt>0</asrwt>
<pdfrwt beam="1">  1       21 0.89151313E-02 0.46919980E+03</pdfrwt>
<pdfrwt beam="2">  1       21 0.13350886E+00 0.46919980E+03</pdfrwt>
<totfact> 0.36210836E+04</totfact>
</mgrwt>
</event>
<event>
 7    0  0.4752811E-002  0.4541259E+03  0.7546771E-02  0.1026499E+00
         21   -1    0    0  502  501  0.00000000000E+00  0.00000000000E+00  0.57690757348E+03  0.57690757348E+03  0.00000000000E+00 0.  1.
         21   -1    0    0  501  502 -0.00000000000E+00 -0.00000000000E+00 -0.89368869907E+02  0.89368869907E+02  0.00000000000E+00 0.  1.
      99926    2    1    2    0    0 -0.71054273576E-14 -0.35527136788E-14  0.48753870357E+03  0.66627644338E+03  0.45412587630E+03 0.  0.
      99925    2    3    3    0    0 -0.63172113064E+02  0.42868243360E+01  0.17086017474E+03  0.31995016448E+03  0.26299394615E+03 0.  0.
         25    1    4    4    0    0 -0.36350183924E+02  0.39695309592E+02  0.10381197426E+03  0.17123518206E+03  0.12509000000E+03 0.  0.
         25    1    4    4    0    0 -0.26821929139E+02 -0.35408485256E+02  0.67048200477E+02  0.14871498243E+03  0.12509000000E+03 0.  0.
         25    1    3    3    0    0  0.63172113064E+02 -0.42868243360E+01  0.31667852883E+03  0.34632627890E+03  0.12509000000E+03 0.  0.
<mgrwt>
<rscale>  2 0.45412588E+03</rscale>
<asrwt>0</asrwt>
<pdfrwt beam="1">  1       21 0.84839347E-01 0.45412588E+03</pdfrwt>
<pdfrwt beam="2">  1       21 0.13142481E-01 0.45412588E+03</pdfrwt>
<totfact> 0.55151420E+04</totfact>
</mgrwt>
</event>
<event>
 7    0  0.4752811E-002  0.4598894E+03  0.7546771E-02  0.1024813E+00
         21   -1    0    0  502  501  0.00000000000E+00  0.00000000000E+00  0.21230084898E+03  0.21230084898E+03  0.00000000000E+00 0. -1.
         21   -1    0    0  501  502 -0.00000000000E+00 -0.00000000000E+00 -0.24905491237E+03  0.24905491237E+03  0.00000000000E+00 0. -1.
      99926    2    1    2    0    0 -0.35527136788E-14  0.00000000000E+00 -0.36754063395E+02  0.46135576135E+03  0.45988941862E+03 0.  0.
      99925    2    3    3    0    0  0.27825775384E+02 -0.41885651821E+02  0.83739447758E+02  0.28053851678E+03  0.26298456738E+03 0.  0.
         25    1    4    4    0    0  0.21609407807E+02 -0.60919370661E+02  0.50283809758E+02  0.14951289527E+03  0.12509000000E+03 0.  0.
         25    1    3    3    0    0 -0.27825775384E+02  0.41885651821E+02 -0.12049351115E+03  0.18081724457E+03  0.12509000000E+03 0.  0.
         25    1    4    4    0    0  0.62163675773E+01  0.19033718839E+02  0.33455637999E+02  0.13102562151E+03  0.12509000000E+03 0.  0.
<mgrwt>
<rscale>  2 0.45988942E+03</rscale>
<asrwt>0</asrwt>
<pdfrwt beam="1">  1       21 0.31220713E-01 0.45988942E+03</pdfrwt>
<pdfrwt beam="2">  1       21 0.36625722E-01 0.45988942E+03</pdfrwt>
<totfact> 0.65490302E+04</totfact>
</mgrwt>
</event>
<event>
 7    0  0.4752811E-002  0.4271114E+03  0.7546771E-02  0.1034776E+00
         21   -1    0    0  502  501  0.00000000000E+00  0.00000000000E+00  0.61657269265E+03  0.61657269265E+03  0.00000000000E+00 0.  1.
         21   -1    0    0  501  502 -0.00000000000E+00 -0.00000000000E+00 -0.73967006240E+02  0.73967006240E+02  0.00000000000E+00 0.  1.
      99926    2    1    2    0    0 -0.71054273576E-14  0.00000000000E+00  0.54260568641E+03  0.69053969889E+03  0.42711139626E+03 0.  0.
      99925    2    3    3    0    0  0.58812669066E+02  0.36972371628E+02  0.27325703051E+03  0.38554446476E+03  0.26296243701E+03 0.  0.
         25    1    4    4    0    0  0.54980587035E+02 -0.46385467114E+01  0.10873284701E+03  0.17468463351E+03  0.12509000000E+03 0.  0.
         25    1    4    4    0    0  0.38320820312E+01  0.41610918339E+02  0.16452418350E+03  0.21085983125E+03  0.12509000000E+03 0.  0.
         25    1    3    3    0    0 -0.58812669066E+02 -0.36972371628E+02  0.26934865590E+03  0.30499523413E+03  0.12509000000E+03 0.  0.
<mgrwt>
<rscale>  2 0.42711140E+03</rscale>
<asrwt>0</asrwt>
<pdfrwt beam="1">  1       21 0.90672452E-01 0.42711140E+03</pdfrwt>
<pdfrwt beam="2">  1       21 0.10877501E-01 0.42711140E+03</pdfrwt>
<totfact> 0.66950672E+04</totfact>
</mgrwt>
</event>
<event>
 7    0  0.4752811E-002  0.4533965E+03  0.7546771E-02  0.1026714E+00
         21   -1    0    0  502  501  0.00000000000E+00  0.00000000000E+00  0.27142423999E+03  0.27142423999E+03  0.00000000000E+00 0.  1.
         21   -1    0    0  501  502 -0.00000000000E+00 -0.00000000000E+00 -0.18934232054E+03  0.18934232054E+03  0.00000000000E+00 0.  1.
      99926    2    1    2    0    0  0.00000000000E+00  0.00000000000E+00  0.82081919450E+02  0.46076656053E+03  0.45339649514E+03 0.  0.
      99925    2    3    3    0    0  0.74782761510E+02  0.18125189862E+02  0.13502919005E+03  0.30465152125E+03  0.26202802008E+03 0.  0.
         25    1    3    3    0    0 -0.74782761510E+02 -0.18125189862E+02 -0.52947270597E+02  0.15611503928E+03  0.12509000000E+03 0.  0.
         25    1    4    4    0    0  0.48371386064E+02  0.16460919511E+02  0.28193515453E+02  0.13803309485E+03  0.12509000000E+03 0.  0.
         25    1    4    4    0    0  0.26411375446E+02  0.16642703507E+01  0.10683567459E+03  0.16661842640E+03  0.12509000000E+03 0.  0.
<mgrwt>
<rscale>  2 0.45339650E+03</rscale>
<asrwt>0</asrwt>
<pdfrwt beam="1">  1       21 0.39915329E-01 0.45339650E+03</pdfrwt>
<pdfrwt beam="2">  1       21 0.27844459E-01 0.45339650E+03</pdfrwt>
<totfact> 0.69000893E+04</totfact>
</mgrwt>
</event>
<event>
 7    0  0.4752811E-002  0.4510322E+03  0.7546771E-02  0.1027415E+00
         21   -1    0    0  502  501  0.00000000000E+00  0.00000000000E+00  0.49924219049E+03  0.49924219049E+03  0.00000000000E+00 0.  1.
         21   -1    0    0  501  502 -0.00000000000E+00 -0.00000000000E+00 -0.10186943925E+03  0.10186943925E+03  0.00000000000E+00 0.  1.
      99926    2    1    2    0    0 -0.17763568394E-14  0.00000000000E+00  0.39737275124E+03  0.60111162975E+03  0.45103224717E+03 0.  0.
      99925    2    3    3    0    0 -0.13228312703E+02 -0.53383587781E+02  0.12492952633E+03  0.29632052981E+03  0.26300888604E+03 0.  0.
         25    1    4    4    0    0  0.21291876800E+02 -0.39879841655E+02  0.92112896554E+02  0.16179010971E+03  0.12509000000E+03 0.  0.
         25    1    3    3    0    0  0.13228312703E+02  0.53383587781E+02  0.27244322491E+03  0.30479109994E+03  0.12509000000E+03 0.  0.
         25    1    4    4    0    0 -0.34520189503E+02 -0.13503746126E+02  0.32816629774E+02  0.13453042010E+03  0.12509000000E+03 0.  0.
<mgrwt>
<rscale>  2 0.45103225E+03</rscale>
<asrwt>0</asrwt>
<pdfrwt beam="1">  1       21 0.73417969E-01 0.45103225E+03</pdfrwt>
<pdfrwt beam="2">  1       21 0.14980800E-01 0.45103225E+03</pdfrwt>
<totfact> 0.60483796E+04</totfact>
</mgrwt>
</event>
<event>
 7    0  0.4752811E-002  0.4648010E+03  0.7546771E-02  0.1023398E+00
         21   -1    0    0  502  501  0.00000000000E+00  0.00000000000E+00  0.59060235712E+03  0.59060235712E+03  0.00000000000E+00 0. -1.
         21   -1    0    0  501  502 -0.00000000000E+00 -0.00000000000E+00 -0.91448983975E+02  0.91448983975E+02  0.00000000000E+00 0. -1.
      99926    2    1    2    0    0 -0.14210854715E-13  0.00000000000E+00  0.49915337314E+03  0.68205134109E+03  0.46480097027E+03 0.  0.
      99925    2    3    3    0    0  0.10834220366E+03 -0.54776814572E+02  0.29220306187E+03  0.41146961232E+03  0.26303246946E+03 0.  0.
         25    1    3    3    0    0 -0.10834220366E+03  0.54776814572E+02  0.20695031127E+03  0.27058172877E+03  0.12509000000E+03 0.  0.
         25    1    4    4    0    0  0.20141596182E+02 -0.29226447011E+02  0.16957191955E+03  0.21368671718E+03  0.12509000000E+03 0.  0.
         25    1    4    4    0    0  0.88200607478E+02 -0.25550367561E+02  0.12263114232E+03  0.19778289514E+03  0.12509000000E+03 0.  0.
<mgrwt>
<rscale>  2 0.46480097E+03</rscale>
<asrwt>0</asrwt>
<pdfrwt beam="1">  1       21 0.86853286E-01 0.46480097E+03</pdfrwt>
<pdfrwt beam="2">  1       21 0.13448380E-01 0.46480097E+03</pdfrwt>
<totfact> 0.49920342E+04</totfact>
</mgrwt>
</event>
<event>
 7    0  0.4752811E-002  0.4582181E+03  0.7546771E-02  0.1025299E+00
         21   -1    0    0  502  501  0.00000000000E+00  0.00000000000E+00  0.20884581639E+03  0.20884581639E+03  0.00000000000E+00 0. -1.
         21   -1    0    0  501  502 -0.00000000000E+00 -0.00000000000E+00 -0.25133828228E+03  0.25133828228E+03  0.00000000000E+00 0. -1.
      99926    2    1    2    0    0  0.00000000000E+00  0.00000000000E+00 -0.42492465885E+02  0.46018409867E+03  0.45821806491E+03 0.  0.
      99925    2    3    3    0    0  0.63652254984E+02 -0.32347904639E+02 -0.11867583026E+03  0.29724420298E+03  0.26300602088E+03 0.  0.
         25    1    3    3    0    0 -0.63652254984E+02  0.32347904639E+02  0.76183364380E+02  0.16293989569E+03  0.12509000000E+03 0.  0.
         25    1    4    4    0    0  0.41750913336E+02 -0.37555594294E+02 -0.97847344242E+02  0.16844931672E+03  0.12509000000E+03 0.  0.
         25    1    4    4    0    0  0.21901341648E+02  0.52076896547E+01 -0.20828486023E+02  0.12879488626E+03  0.12509000000E+03 0.  0.
<mgrwt>
<rscale>  2 0.45821806E+03</rscale>
<asrwt>0</asrwt>
<pdfrwt beam="1">  1       21 0.30712620E-01 0.45821806E+03</pdfrwt>
<pdfrwt beam="2">  1       21 0.36961512E-01 0.45821806E+03</pdfrwt>
<totfact> 0.66445192E+04</totfact>
</mgrwt>
</event>
<event>
 7    0  0.4752811E-002  0.4496453E+03  0.7546771E-02  0.1027828E+00
         21   -1    0    0  502  501  0.00000000000E+00  0.00000000000E+00  0.12859233253E+03  0.12859233253E+03  0.00000000000E+00 0.  1.
         21   -1    0    0  501  502 -0.00000000000E+00 -0.00000000000E+00 -0.39306565050E+03  0.39306565050E+03  0.00000000000E+00 0.  1.
      99926    2    1    2    0    0  0.00000000000E+00 -0.71054273576E-14 -0.26447331797E+03  0.52165798303E+03  0.44964532171E+03 0.  0.
      99925    2    3    3    0    0  0.39681207163E+02 -0.32016850754E+02 -0.27769637366E+03  0.38593018839E+03  0.26311054224E+03 0.  0.
         25    1    3    3    0    0 -0.39681207163E+02  0.32016850754E+02  0.13223055687E+02  0.13572779463E+03  0.12509000000E+03 0.  0.
         25    1    4    4    0    0  0.47309978748E+02 -0.47018180264E+02 -0.14420347126E+03  0.20221546080E+03  0.12509000000E+03 0.  0.
         25    1    4    4    0    0 -0.76287715844E+01  0.15001329511E+02 -0.13349290240E+03  0.18371472759E+03  0.12509000000E+03 0.  0.
<mgrwt>
<rscale>  2 0.44964532E+03</rscale>
<asrwt>0</asrwt>
<pdfrwt beam="1">  1       21 0.18910637E-01 0.44964532E+03</pdfrwt>
<pdfrwt beam="2">  1       21 0.57803773E-01 0.44964532E+03</pdfrwt>
<totfact> 0.66555344E+04</totfact>
</mgrwt>
</event>
<event>
 7    0  0.4752811E-002  0.4545509E+03  0.7546771E-02  0.1026374E+00
         21   -1    0    0  502  501  0.00000000000E+00  0.00000000000E+00  0.13304138077E+04  0.13304138077E+04  0.00000000000E+00 0. -1.
         21   -1    0    0  501  502 -0.00000000000E+00 -0.00000000000E+00 -0.38825606253E+02  0.38825606253E+02  0.00000000000E+00 0. -1.
      99926    2    1    2    0    0  0.00000000000E+00  0.71054273576E-14  0.12915882015E+04  0.13692394140E+04  0.45455086691E+03 0.  0.
      99925    2    3    3    0    0 -0.96194980196E+02  0.38334023976E+02  0.67928160269E+03  0.73576498622E+03  0.26306586169E+03 0.  0.
         25    1    4    4    0    0 -0.10552310249E+02 -0.76910814633E+00  0.27833172837E+03  0.30533260864E+03  0.12509000000E+03 0.  0.
         25    1    4    4    0    0 -0.85642669947E+02  0.39103132122E+02  0.40094987432E+03  0.43043237759E+03  0.12509000000E+03 0.  0.
         25    1    3    3    0    0  0.96194980196E+02 -0.38334023976E+02  0.61230659879E+03  0.63347442777E+03  0.12509000000E+03 0.  0.
<mgrwt>
<rscale>  2 0.45455087E+03</rscale>
<asrwt>0</asrwt>
<pdfrwt beam="1">  1       21 0.19564906E+00 0.45455087E+03</pdfrwt>
<pdfrwt beam="2">  1       21 0.57096489E-02 0.45455087E+03</pdfrwt>
<totfact> 0.27258420E+04</totfact>
</mgrwt>
</event>
<event>
 7    0  0.4752811E-002  0.4545750E+03  0.7546771E-02  0.1026366E+00
         21   -1    0    0  502  501  0.00000000000E+00  0.00000000000E+00  0.83244671238E+03  0.83244671238E+03  0.00000000000E+00 0. -1.
         21   -1    0    0  501  502 -0.00000000000E+00 -0.00000000000E+00 -0.62057547649E+02  0.62057547649E+02  0.00000000000E+00 0. -1.
      99926    2    1    2    0    0  0.00000000000E+00  0.71054273576E-14  0.77038916474E+03  0.89450426003E+03  0.45457497300E+03 0.  0.
      99925    2    3    3    0    0 -0.81825022986E+02 -0.53315810399E+02  0.59579144077E+03  0.65855981034E+03  0.26305070401E+03 0.  0.
         25    1    3    3    0    0  0.81825022986E+02  0.53315810399E+02  0.17459772397E+03  0.23594444969E+03  0.12509000000E+03 0.  0.
         25    1    4    4    0    0 -0.58978134774E+02 -0.56295337228E+02  0.37684977130E+03  0.40535273973E+03  0.12509000000E+03 0.  0.
         25    1    4    4    0    0 -0.22846888212E+02  0.29795268297E+01  0.21894166947E+03  0.25320707061E+03  0.12509000000E+03 0.  0.
<mgrwt>
<rscale>  2 0.45457497E+03</rscale>
<asrwt>0</asrwt>
<pdfrwt beam="1">  1       21 0.12241863E+00 0.45457497E+03</pdfrwt>
<pdfrwt beam="2">  1       21 0.91261104E-02 0.45457497E+03</pdfrwt>
<totfact> 0.43617131E+04</totfact>
</mgrwt>
</event>
<event>
 7    0  0.4752811E-002  0.4529307E+03  0.7546771E-02  0.1026852E+00
         21   -1    0    0  502  501  0.00000000000E+00  0.00000000000E+00  0.42846429092E+03  0.42846429092E+03  0.00000000000E+00 0.  1.
         21   -1    0    0  501  502 -0.00000000000E+00 -0.00000000000E+00 -0.11969855339E+03  0.11969855339E+03  0.00000000000E+00 0.  1.
      99926    2    1    2    0    0 -0.71054273576E-14  0.00000000000E+00  0.30876573753E+03  0.54816284432E+03  0.45293070465E+03 0.  0.
      99925    2    3    3    0    0  0.48892769420E+02  0.72974242267E+02  0.27681115019E+03  0.39200796387E+03  0.26330607271E+03 0.  0.
         25    1    4    4    0    0  0.48940769633E+02  0.29711811006E+02  0.18659796488E+03  0.23182816749E+03  0.12509000000E+03 0.  0.
         25    1    4    4    0    0 -0.48000212819E-01  0.43262431261E+02  0.90213185316E+02  0.16017979638E+03  0.12509000000E+03 0.  0.
         25    1    3    3    0    0 -0.48892769420E+02 -0.72974242267E+02  0.31954587337E+02  0.15615488045E+03  0.12509000000E+03 0.  0.
<mgrwt>
<rscale>  2 0.45293070E+03</rscale>
<asrwt>0</asrwt>
<pdfrwt beam="1">  1       21 0.63009454E-01 0.45293070E+03</pdfrwt>
<pdfrwt beam="2">  1       21 0.17602729E-01 0.45293070E+03</pdfrwt>
<totfact> 0.63013460E+04</totfact>
</mgrwt>
</event>
<event>
 7    0  0.4752811E-002  0.4505329E+03  0.7546771E-02  0.1027563E+00
         21   -1    0    0  502  501  0.00000000000E+00  0.00000000000E+00  0.18468245044E+03  0.18468245044E+03  0.00000000000E+00 0.  1.
         21   -1    0    0  501  502 -0.00000000000E+00 -0.00000000000E+00 -0.27476877484E+03  0.27476877484E+03  0.00000000000E+00 0.  1.
      99926    2    1    2    0    0  0.00000000000E+00  0.14210854715E-13 -0.90086324403E+02  0.45945122528E+03  0.45053288733E+03 0.  0.
      99925    2    3    3    0    0  0.69646859761E+02  0.81233065506E+02 -0.77526694824E+02  0.29436110322E+03  0.26303721158E+03 0.  0.
         25    1    4    4    0    0  0.55049929224E+01  0.31985670624E+02 -0.65607880210E+02  0.14493201895E+03  0.12509000000E+03 0.  0.
         25    1    3    3    0    0 -0.69646859761E+02 -0.81233065506E+02 -0.12559629579E+02  0.16509012206E+03  0.12509000000E+03 0.  0.
         25    1    4    4    0    0  0.64141866839E+02  0.49247394882E+02 -0.11918814614E+02  0.14942908427E+03  0.12509000000E+03 0.  0.
<mgrwt>
<rscale>  2 0.45053289E+03</rscale>
<asrwt>0</asrwt>
<pdfrwt beam="1">  1       21 0.27159184E-01 0.45053289E+03</pdfrwt>
<pdfrwt beam="2">  1       21 0.40407172E-01 0.45053289E+03</pdfrwt>
<totfact> 0.70701470E+04</totfact>
</mgrwt>
</event>
<event>
 7    0  0.4752811E-002  0.4582014E+03  0.7546771E-02  0.1025304E+00
         21   -1    0    0  502  501  0.00000000000E+00  0.00000000000E+00  0.44840131003E+03  0.44840131003E+03  0.00000000000E+00 0.  1.
         21   -1    0    0  501  502 -0.00000000000E+00 -0.00000000000E+00 -0.11705389666E+03  0.11705389666E+03  0.00000000000E+00 0.  1.
      99926    2    1    2    0    0  0.00000000000E+00 -0.35527136788E-14  0.33134741337E+03  0.56545520670E+03  0.45820135577E+03 0.  0.
      99925    2    3    3    0    0 -0.10556281374E+03  0.27986139981E+02  0.26001834007E+03  0.38472868271E+03  0.26168662642E+03 0.  0.
         25    1    4    4    0    0 -0.27799970622E+02  0.38904792950E+02  0.14621917003E+03  0.19827752032E+03  0.12509000000E+03 0.  0.
         25    1    4    4    0    0 -0.77762843116E+02 -0.10918652969E+02  0.11379917004E+03  0.18645116239E+03  0.12509000000E+03 0.  0.
         25    1    3    3    0    0  0.10556281374E+03 -0.27986139981E+02  0.71329073299E+02  0.18072652399E+03  0.12509000000E+03 0.  0.
<mgrwt>
<rscale>  2 0.45820136E+03</rscale>
<asrwt>0</asrwt>
<pdfrwt beam="1">  1       21 0.65941368E-01 0.45820136E+03</pdfrwt>
<pdfrwt beam="2">  1       21 0.17213809E-01 0.45820136E+03</pdfrwt>
<totfact> 0.59339868E+04</totfact>
</mgrwt>
</event>
<event>
 7    0  0.4752811E-002  0.4540432E+03  0.7546771E-02  0.1026523E+00
         21   -1    0    0  502  501  0.00000000000E+00  0.00000000000E+00  0.14258608870E+04  0.14258608870E+04  0.00000000000E+00 0.  1.
         21   -1    0    0  501  502 -0.00000000000E+00 -0.00000000000E+00 -0.36145748803E+02  0.36145748803E+02  0.00000000000E+00 0.  1.
      99926    2    1    2    0    0  0.14210854715E-13  0.14210854715E-13  0.13897151382E+04  0.14620066358E+04  0.45404321137E+03 0.  0.
      99925    2    3    3    0    0 -0.88827477212E+02 -0.67884272569E+02  0.90880441869E+03  0.95267253778E+03  0.26298459582E+03 0.  0.
         25    1    3    3    0    0  0.88827477212E+02  0.67884272569E+02  0.48091071948E+03  0.50933409800E+03  0.12509000000E+03 0.  0.
         25    1    4    4    0    0 -0.22904076329E+02  0.38067405308E+01  0.40572232438E+03  0.42520254066E+03  0.12509000000E+03 0.  0.
         25    1    4    4    0    0 -0.65923400883E+02 -0.71691013099E+02  0.50308209431E+03  0.52746999712E+03  0.12509000000E+03 0.  0.
<mgrwt>
<rscale>  2 0.45404321E+03</rscale>
<asrwt>0</asrwt>
<pdfrwt beam="1">  1       21 0.20968539E+00 0.45404321E+03</pdfrwt>
<pdfrwt beam="2">  1       21 0.53155523E-02 0.45404321E+03</pdfrwt>
<totfact> 0.24909984E+04</totfact>
</mgrwt>
</event>
<event>
 7    0  0.4752811E-002  0.4378193E+03  0.7546771E-02  0.1031418E+00
         21   -1    0    0  502  501  0.00000000000E+00  0.00000000000E+00  0.32050486075E+03  0.32050486075E+03  0.00000000000E+00 0. -1.
         21   -1    0    0  501  502 -0.00000000000E+00 -0.00000000000E+00 -0.14951860159E+03  0.14951860159E+03  0.00000000000E+00 0. -1.
      99926    2    1    2    0    0  0.00000000000E+00  0.35527136788E-14  0.17098625916E+03  0.47002346234E+03  0.43781931699E+03 0.  0.
      99925    2    3    3    0    0 -0.38771348366E+02  0.11295539997E+02  0.15564534555E+02  0.26646947133E+03  0.26293139359E+03 0.  0.
         25    1    4    4    0    0 -0.11546942591E+00  0.34202201610E+02  0.28975458715E+02  0.13287922801E+03  0.12509000000E+03 0.  0.
         25    1    4    4    0    0 -0.38655878941E+02 -0.22906661613E+02 -0.13410924159E+02  0.13359024332E+03  0.12509000000E+03 0.  0.
         25    1    3    3    0    0  0.38771348366E+02 -0.11295539997E+02  0.15542172461E+03  0.20355399101E+03  0.12509000000E+03 0.  0.
<mgrwt>
<rscale>  2 0.43781932E+03</rscale>
<asrwt>0</asrwt>
<pdfrwt beam="1">  1       21 0.47133068E-01 0.43781932E+03</pdfrwt>
<pdfrwt beam="2">  1       21 0.21988030E-01 0.43781932E+03</pdfrwt>
<totfact> 0.77471461E+04</totfact>
</mgrwt>
</event>
<event>
 7    0  0.4752811E-002  0.4442931E+03  0.7546771E-02  0.1029438E+00
         21   -1    0    0  502  501  0.00000000000E+00  0.00000000000E+00  0.14206144379E+04  0.14206144379E+04  0.00000000000E+00 0. -1.
         21   -1    0    0  501  502 -0.00000000000E+00 -0.00000000000E+00 -0.34737856260E+02  0.34737856260E+02  0.00000000000E+00 0. -1.
      99926    2    1    2    0    0  0.00000000000E+00  0.71054273576E-14  0.13858765817E+04  0.14553522942E+04  0.44429314712E+03 0.  0.
      99925    2    3    3    0    0  0.24344092244E+02 -0.54989000922E+02  0.60769429851E+03  0.66488939249E+03  0.26300022575E+03 0.  0.
         25    1    4    4    0    0  0.30803930250E+01 -0.53384989192E+02  0.23947383565E+03  0.27541726880E+03  0.12509000000E+03 0.  0.
         25    1    4    4    0    0  0.21263699219E+02 -0.16040117300E+01  0.36822046286E+03  0.38947212369E+03  0.12509000000E+03 0.  0.
         25    1    3    3    0    0 -0.24344092244E+02  0.54989000922E+02  0.77818228315E+03  0.79046290170E+03  0.12509000000E+03 0.  0.
<mgrwt>
<rscale>  2 0.44429315E+03</rscale>
<asrwt>0</asrwt>
<pdfrwt beam="1">  1       21 0.20891385E+00 0.44429315E+03</pdfrwt>
<pdfrwt beam="2">  1       21 0.51085092E-02 0.44429315E+03</pdfrwt>
<totfact> 0.27076893E+04</totfact>
</mgrwt>
</event>
<event>
 7    0  0.4752811E-002  0.4517650E+03  0.7546771E-02  0.1027197E+00
         21   -1    0    0  502  501  0.00000000000E+00  0.00000000000E+00  0.28508040988E+02  0.28508040988E+02  0.00000000000E+00 0.  1.
         21   -1    0    0  501  502 -0.00000000000E+00 -0.00000000000E+00 -0.17897726341E+04  0.17897726341E+04  0.00000000000E+00 0.  1.
      99926    2    1    2    0    0  0.00000000000E+00  0.00000000000E+00 -0.17612645931E+04  0.18182806751E+04  0.45176503456E+03 0.  0.
      99925    2    3    3    0    0  0.78730807864E+02  0.22163751937E+02 -0.14072202376E+04  0.14339830225E+04  0.26334148882E+03 0.  0.
         25    1    3    3    0    0 -0.78730807864E+02 -0.22163751937E+02 -0.35404435554E+03  0.38429765260E+03  0.12509000000E+03 0.  0.
         25    1    4    4    0    0  0.16389726276E+02  0.33310556876E+02 -0.54260490148E+03  0.55807329585E+03  0.12509000000E+03 0.  0.
         25    1    4    4    0    0  0.62341081588E+02 -0.11146804940E+02 -0.86461533611E+03  0.87590972665E+03  0.12509000000E+03 0.  0.
<mgrwt>
<rscale>  2 0.45176503E+03</rscale>
<asrwt>0</asrwt>
<pdfrwt beam="1">  1       21 0.41923594E-02 0.45176503E+03</pdfrwt>
<pdfrwt beam="2">  1       21 0.26320183E+00 0.45176503E+03</pdfrwt>
<totfact> 0.17342219E+04</totfact>
</mgrwt>
</event>
<event>
 7    0  0.4752811E-002  0.4548227E+03  0.7546771E-02  0.1026294E+00
         21   -1    0    0  502  501  0.00000000000E+00  0.00000000000E+00  0.26407140374E+03  0.26407140374E+03  0.00000000000E+00 0.  1.
         21   -1    0    0  501  502 -0.00000000000E+00 -0.00000000000E+00 -0.19584067555E+03  0.19584067555E+03  0.00000000000E+00 0.  1.
      99926    2    1    2    0    0 -0.35527136788E-14  0.00000000000E+00  0.68230728193E+02  0.45991207929E+03  0.45482269997E+03 0.  0.
      99925    2    3    3    0    0  0.27951629456E+02  0.61205884621E+02  0.13504146432E+03  0.30294508765E+03  0.26270149437E+03 0.  0.
         25    1    4    4    0    0  0.27934136962E+01  0.36000218576E+02  0.24994731672E+02  0.13257474725E+03  0.12509000000E+03 0.  0.
         25    1    3    3    0    0 -0.27951629456E+02 -0.61205884621E+02 -0.66810736129E+02  0.15696699164E+03  0.12509000000E+03 0.  0.
         25    1    4    4    0    0  0.25158215759E+02  0.25205666044E+02  0.11004673265E+03  0.17037034040E+03  0.12509000000E+03 0.  0.
<mgrwt>
<rscale>  2 0.45482270E+03</rscale>
<asrwt>0</asrwt>
<pdfrwt beam="1">  1       21 0.38834030E-01 0.45482270E+03</pdfrwt>
<pdfrwt beam="2">  1       21 0.28800099E-01 0.45482270E+03</pdfrwt>
<totfact> 0.68283472E+04</totfact>
</mgrwt>
</event>
<event>
 7    0  0.4752811E-002  0.4987346E+03  0.7546771E-02  0.1014110E+00
         21   -1    0    0  502  501  0.00000000000E+00  0.00000000000E+00  0.43198807363E+03  0.43198807363E+03  0.00000000000E+00 0. -1.
         21   -1    0    0  501  502 -0.00000000000E+00 -0.00000000000E+00 -0.14394851713E+03  0.14394851713E+03  0.00000000000E+00 0. -1.
      99926    2    1    2    0    0  0.00000000000E+00  0.00000000000E+00  0.28803955650E+03  0.57593659075E+03  0.49873456915E+03 0.  0.
      99925    2    3    3    0    0  0.85233972107E+02 -0.64377002864E+02  0.29713862940E+03  0.41119579518E+03  0.26340347073E+03 0.  0.
         25    1    3    3    0    0 -0.85233972107E+02  0.64377002864E+02 -0.90990729031E+01  0.16474079557E+03  0.12509000000E+03 0.  0.
         25    1    4    4    0    0  0.14870173309E+02 -0.58324372229E+01  0.10337132107E+03  0.16305912271E+03  0.12509000000E+03 0.  0.
         25    1    4    4    0    0  0.70363798798E+02 -0.58544565641E+02  0.19376730833E+03  0.24813667247E+03  0.12509000000E+03 0.  0.
<mgrwt>
<rscale>  2 0.49873457E+03</rscale>
<asrwt>0</asrwt>
<pdfrwt beam="1">  1       21 0.63527657E-01 0.49873457E+03</pdfrwt>
<pdfrwt beam="2">  1       21 0.21168900E-01 0.49873457E+03</pdfrwt>
<totfact> 0.43184058E+04</totfact>
</mgrwt>
</event>
<event>
 7    0  0.4752811E-002  0.4502777E+03  0.7546771E-02  0.1027639E+00
         21   -1    0    0  502  501  0.00000000000E+00  0.00000000000E+00  0.18362689159E+03  0.18362689159E+03  0.00000000000E+00 0.  1.
         21   -1    0    0  501  502 -0.00000000000E+00 -0.00000000000E+00 -0.27603530194E+03  0.27603530194E+03  0.00000000000E+00 0.  1.
      99926    2    1    2    0    0  0.00000000000E+00  0.00000000000E+00 -0.92408410350E+02  0.45966219354E+03  0.45027771193E+03 0.  0.
      99925    2    3    3    0    0  0.95275323801E+02 -0.51130406345E+02 -0.68237461211E+02  0.29255908567E+03  0.26314019403E+03 0.  0.
         25    1    4    4    0    0  0.72327098464E+02 -0.60986167740E+02 -0.41356626654E+02  0.16219864517E+03  0.12509000000E+03 0.  0.
         25    1    4    4    0    0  0.22948225337E+02  0.98557613952E+01 -0.26880834557E+02  0.13036044049E+03  0.12509000000E+03 0.  0.
         25    1    3    3    0    0 -0.95275323801E+02  0.51130406345E+02 -0.24170949138E+02  0.16710310787E+03  0.12509000000E+03 0.  0.
<mgrwt>
<rscale>  2 0.45027771E+03</rscale>
<asrwt>0</asrwt>
<pdfrwt beam="1">  1       21 0.27003955E-01 0.45027771E+03</pdfrwt>
<pdfrwt beam="2">  1       21 0.40593426E-01 0.45027771E+03</pdfrwt>
<totfact> 0.70829261E+04</totfact>
</mgrwt>
</event>
<event>
 7    0  0.4752811E-002  0.4557764E+03  0.7546771E-02  0.1026013E+00
         21   -1    0    0  502  501  0.00000000000E+00  0.00000000000E+00  0.29819082267E+03  0.29819082267E+03  0.00000000000E+00 0.  1.
         21   -1    0    0  501  502 -0.00000000000E+00 -0.00000000000E+00 -0.17416041821E+03  0.17416041821E+03  0.00000000000E+00 0.  1.
      99926    2    1    2    0    0  0.00000000000E+00  0.00000000000E+00  0.12403040445E+03  0.47235124088E+03  0.45577642933E+03 0.  0.
      99925    2    3    3    0    0  0.95651374914E+02  0.34290208648E+02  0.12935644339E+03  0.31110336113E+03  0.26405909931E+03 0.  0.
         25    1    3    3    0    0 -0.95651374914E+02 -0.34290208648E+02 -0.53260389325E+01  0.16124787975E+03  0.12509000000E+03 0.  0.
         25    1    4    4    0    0  0.36376049853E+01  0.13244666059E+02  0.65712479630E+02  0.14196581077E+03  0.12509000000E+03 0.  0.
         25    1    4    4    0    0  0.92013769928E+02  0.21045542589E+02  0.63643963756E+02  0.16913755036E+03  0.12509000000E+03 0.  0.
<mgrwt>
<rscale>  2 0.45577643E+03</rscale>
<asrwt>0</asrwt>
<pdfrwt beam="1">  1       21 0.43851592E-01 0.45577643E+03</pdfrwt>
<pdfrwt beam="2">  1       21 0.25611826E-01 0.45577643E+03</pdfrwt>
<totfact> 0.66848532E+04</totfact>
</mgrwt>
</event>
<event>
 7    0  0.4752811E-002  0.4617267E+03  0.7546771E-02  0.1024282E+00
         21   -1    0    0  502  501  0.00000000000E+00  0.00000000000E+00  0.41249011663E+03  0.41249011663E+03  0.00000000000E+00 0. -1.
         21   -1    0    0  501  502 -0.00000000000E+00 -0.00000000000E+00 -0.12921009371E+03  0.12921009371E+03  0.00000000000E+00 0. -1.
      99926    2    1    2    0    0  0.71054273576E-14  0.00000000000E+00  0.28328002292E+03  0.54170021034E+03  0.46172670109E+03 0.  0.
      99925    2    3    3    0    0  0.36295458917E+02  0.74752935796E+02  0.76849210241E+02  0.28642281167E+03  0.26310998496E+03 0.  0.
         25    1    4    4    0    0  0.19493295435E+02  0.42206601558E+02 -0.31521620965E+01  0.13348719043E+03  0.12509000000E+03 0.  0.
         25    1    4    4    0    0  0.16802163483E+02  0.32546334238E+02  0.80001372337E+02  0.15293562125E+03  0.12509000000E+03 0.  0.
         25    1    3    3    0    0 -0.36295458917E+02 -0.74752935796E+02  0.20643081268E+03  0.25527739867E+03  0.12509000000E+03 0.  0.
<mgrwt>
<rscale>  2 0.46172670E+03</rscale>
<asrwt>0</asrwt>
<pdfrwt beam="1">  1       21 0.60660311E-01 0.46172670E+03</pdfrwt>
<pdfrwt beam="2">  1       21 0.19001484E-01 0.46172670E+03</pdfrwt>
<totfact> 0.59201973E+04</totfact>
</mgrwt>
</event>
<event>
 7    0  0.4752811E-002  0.4539766E+03  0.7546771E-02  0.1026543E+00
         21   -1    0    0  502  501  0.00000000000E+00  0.00000000000E+00  0.13866179804E+03  0.13866179804E+03  0.00000000000E+00 0.  1.
         21   -1    0    0  501  502 -0.00000000000E+00 -0.00000000000E+00 -0.37157815642E+03  0.37157815642E+03  0.00000000000E+00 0.  1.
      99926    2    1    2    0    0  0.00000000000E+00  0.00000000000E+00 -0.23291635838E+03  0.51023995447E+03  0.45397663060E+03 0.  0.
      99925    2    3    3    0    0  0.83645335176E+02 -0.58824317105E+02 -0.19829159815E+03  0.34500308055E+03  0.26315532545E+03 0.  0.
         25    1    3    3    0    0 -0.83645335176E+02  0.58824317105E+02 -0.34624760224E+02  0.16523687391E+03  0.12509000000E+03 0.  0.
         25    1    4    4    0    0  0.47434598216E+02 -0.34858463887E+01 -0.13468618550E+03  0.18986855689E+03  0.12509000000E+03 0.  0.
         25    1    4    4    0    0  0.36210736960E+02 -0.55338470717E+02 -0.63605412658E+02  0.15513452366E+03  0.12509000000E+03 0.  0.
<mgrwt>
<rscale>  2 0.45397663E+03</rscale>
<asrwt>0</asrwt>
<pdfrwt beam="1">  1       21 0.20391441E-01 0.45397663E+03</pdfrwt>
<pdfrwt beam="2">  1       21 0.54643846E-01 0.45397663E+03</pdfrwt>
<totfact> 0.65084075E+04</totfact>
</mgrwt>
</event>
<event>
 7    0  0.4752811E-002  0.4656832E+03  0.7546771E-02  0.1023146E+00
         21   -1    0    0  502  501  0.00000000000E+00  0.00000000000E+00  0.42806347576E+02  0.42806347576E+02  0.00000000000E+00 0. -1.
         21   -1    0    0  501  502 -0.00000000000E+00 -0.00000000000E+00 -0.12665226591E+04  0.12665226591E+04  0.00000000000E+00 0. -1.
      99926    2    1    2    0    0 -0.14210854715E-13  0.00000000000E+00 -0.12237163115E+04  0.13093290066E+04  0.46568319341E+03 0.  0.
      99925    2    3    3    0    0 -0.83836816039E+02 -0.65582788876E+02 -0.59005388171E+03  0.65472584675E+03  0.26300691467E+03 0.  0.
         25    1    4    4    0    0 -0.19564761328E+02 -0.16243996350E+02 -0.20106363340E+03  0.23816116409E+03  0.12509000000E+03 0.  0.
         25    1    4    4    0    0 -0.64272054711E+02 -0.49338792526E+02 -0.38899024831E+03  0.41656468266E+03  0.12509000000E+03 0.  0.
         25    1    3    3    0    0  0.83836816039E+02  0.65582788876E+02 -0.63366242979E+03  0.65460315990E+03  0.12509000000E+03 0.  0.
<mgrwt>
<rscale>  2 0.46568319E+03</rscale>
<asrwt>0</asrwt>
<pdfrwt beam="1">  1       21 0.62950509E-02 0.46568319E+03</pdfrwt>
<pdfrwt beam="2">  1       21 0.18625334E+00 0.46568319E+03</pdfrwt>
<totfact> 0.26567522E+04</totfact>
</mgrwt>
</event>
<event>
 7    0  0.4752811E-002  0.4568164E+03  0.7546771E-02  0.1025709E+00
         21   -1    0    0  502  501  0.00000000000E+00  0.00000000000E+00  0.39356424181E+02  0.39356424181E+02  0.00000000000E+00 0.  1.
         21   -1    0    0  501  502 -0.00000000000E+00 -0.00000000000E+00 -0.13255853394E+04  0.13255853394E+04  0.00000000000E+00 0.  1.
      99926    2    1    2    0    0 -0.71054273576E-14 -0.88817841970E-15 -0.12862289152E+04  0.13649417636E+04  0.45681636969E+03 0.  0.
      99925    2    3    3    0    0  0.39932012839E+02  0.49734855288E+01 -0.11288969998E+04  0.11599536154E+04  0.26356147740E+03 0.  0.
         25    1    3    3    0    0 -0.39932012839E+02 -0.49734855288E+01 -0.15733191538E+03  0.20498814821E+03  0.12509000000E+03 0.  0.
         25    1    4    4    0    0  0.45140951004E+02  0.16933615310E+02 -0.45158092819E+03  0.47105975798E+03  0.12509000000E+03 0.  0.
         25    1    4    4    0    0 -0.52089381650E+01 -0.11960129782E+02 -0.67731607163E+03  0.68889385738E+03  0.12509000000E+03 0.  0.
<mgrwt>
<rscale>  2 0.45681637E+03</rscale>
<asrwt>0</asrwt>
<pdfrwt beam="1">  1       21 0.57877087E-02 0.45681637E+03</pdfrwt>
<pdfrwt beam="2">  1       21 0.19493905E+00 0.45681637E+03</pdfrwt>
<totfact> 0.26899635E+04</totfact>
</mgrwt>
</event>
<event>
 7    0  0.4752811E-002  0.4565539E+03  0.7546771E-02  0.1025785E+00
         21   -1    0    0  502  501  0.00000000000E+00  0.00000000000E+00  0.18148905855E+03  0.18148905855E+03  0.00000000000E+00 0. -1.
         21   -1    0    0  501  502 -0.00000000000E+00 -0.00000000000E+00 -0.28712677993E+03  0.28712677993E+03  0.00000000000E+00 0. -1.
      99926    2    1    2    0    0  0.00000000000E+00 -0.14210854715E-13 -0.10563772138E+03  0.46861583847E+03  0.45655391346E+03 0.  0.
      99925    2    3    3    0    0 -0.79903018440E+02  0.64374587627E+02 -0.13321946463E+02  0.28234106754E+03  0.26269835225E+03 0.  0.
         25    1    3    3    0    0  0.79903018440E+02 -0.64374587627E+02 -0.92315774915E+02  0.18627477093E+03  0.12509000000E+03 0.  0.
         25    1    4    4    0    0 -0.54661936951E+02  0.70606710150E+02  0.16833674110E+01  0.15369963141E+03  0.12509000000E+03 0.  0.
         25    1    4    4    0    0 -0.25241081489E+02 -0.62321225225E+01 -0.15005313874E+02  0.12864143613E+03  0.12509000000E+03 0.  0.
<mgrwt>
<rscale>  2 0.45655391E+03</rscale>
<asrwt>0</asrwt>
<pdfrwt beam="1">  1       21 0.26689568E-01 0.45655391E+03</pdfrwt>
<pdfrwt beam="2">  1       21 0.42224526E-01 0.45655391E+03</pdfrwt>
<totfact> 0.66712907E+04</totfact>
</mgrwt>
</event>
<event>
 7    0  0.4752811E-002  0.4632626E+03  0.7546771E-02  0.1023839E+00
         21   -1    0    0  502  501  0.00000000000E+00  0.00000000000E+00  0.16252240919E+03  0.16252240919E+03  0.00000000000E+00 0.  1.
         21   -1    0    0  501  502 -0.00000000000E+00 -0.00000000000E+00 -0.33012716793E+03  0.33012716793E+03  0.00000000000E+00 0.  1.
      99926    2    1    2    0    0  0.00000000000E+00 -0.71054273576E-14 -0.16760475875E+03  0.49264957712E+03  0.46326261524E+03 0.  0.
      99925    2    3    3    0    0  0.47085057769E+02 -0.55749560634E+02 -0.23226615608E+01  0.27289813588E+03  0.26295053078E+03 0.  0.
         25    1    4    4    0    0  0.64393118088E+02 -0.33442164243E+02 -0.35719441076E+01  0.14465517236E+03  0.12509000000E+03 0.  0.
         25    1    4    4    0    0 -0.17308060318E+02 -0.22307396391E+02  0.12492825469E+01  0.12824296352E+03  0.12509000000E+03 0.  0.
         25    1    3    3    0    0 -0.47085057769E+02  0.55749560634E+02 -0.16528209718E+03  0.21975144124E+03  0.12509000000E+03 0.  0.
<mgrwt>
<rscale>  2 0.46326262E+03</rscale>
<asrwt>0</asrwt>
<pdfrwt beam="1">  1       21 0.23900355E-01 0.46326262E+03</pdfrwt>
<pdfrwt beam="2">  1       21 0.48548112E-01 0.46326262E+03</pdfrwt>
<totfact> 0.61646301E+04</totfact>
</mgrwt>
</event>
<event>
 7    0  0.4752811E-002  0.4592612E+03  0.7546771E-02  0.1024996E+00
         21   -1    0    0  502  501  0.00000000000E+00  0.00000000000E+00  0.28650354964E+03  0.28650354964E+03  0.00000000000E+00 0.  1.
         21   -1    0    0  501  502 -0.00000000000E+00 -0.00000000000E+00 -0.18404732330E+03  0.18404732330E+03  0.00000000000E+00 0.  1.
      99926    2    1    2    0    0 -0.14210854715E-13  0.00000000000E+00  0.10245622634E+03  0.47055087293E+03  0.45926119551E+03 0.  0.
      99925    2    3    3    0    0  0.82720317077E+02 -0.57473282796E+02  0.30080066571E+01  0.28165067285E+03  0.26300612981E+03 0.  0.
         25    1    4    4    0    0  0.12653811487E+02 -0.13845887204E+02  0.28426070434E+02  0.12964326869E+03  0.12509000000E+03 0.  0.
         25    1    4    4    0    0  0.70066505590E+02 -0.43627395592E+02 -0.25418063777E+02  0.15200740415E+03  0.12509000000E+03 0.  0.
         25    1    3    3    0    0 -0.82720317077E+02  0.57473282796E+02  0.99448219683E+02  0.18890020008E+03  0.12509000000E+03 0.  0.
<mgrwt>
<rscale>  2 0.45926120E+03</rscale>
<asrwt>0</asrwt>
<pdfrwt beam="1">  1       21 0.42132875E-01 0.45926120E+03</pdfrwt>
<pdfrwt beam="2">  1       21 0.27065783E-01 0.45926120E+03</pdfrwt>
<totfact> 0.65164425E+04</totfact>
</mgrwt>
</event>
<event>
 7    0  0.4752811E-002  0.4561343E+03  0.7546771E-02  0.1025908E+00
         21   -1    0    0  502  501  0.00000000000E+00  0.00000000000E+00  0.20849856390E+03  0.20849856390E+03  0.00000000000E+00 0.  1.
         21   -1    0    0  501  502 -0.00000000000E+00 -0.00000000000E+00 -0.24947231692E+03  0.24947231692E+03  0.00000000000E+00 0.  1.
      99926    2    1    2    0    0  0.00000000000E+00 -0.17763568394E-14 -0.40973753025E+02  0.45797088081E+03  0.45613427764E+03 0.  0.
      99925    2    3    3    0    0  0.54259168747E+02 -0.12604235314E+02 -0.12534466396E+03  0.29713281675E+03  0.26357864455E+03 0.  0.
         25    1    4    4    0    0  0.66596261621E+02 -0.15887174912E+02 -0.79719670927E+02  0.16337135129E+03  0.12509000000E+03 0.  0.
         25    1    3    3    0    0 -0.54259168747E+02  0.12604235314E+02  0.84370910935E+02  0.16083806407E+03  0.12509000000E+03 0.  0.
         25    1    4    4    0    0 -0.12337092873E+02  0.32829395978E+01 -0.45624993032E+02  0.13376146546E+03  0.12509000000E+03 0.  0.
<mgrwt>
<rscale>  2 0.45613428E+03</rscale>
<asrwt>0</asrwt>
<pdfrwt beam="1">  1       21 0.30661554E-01 0.45613428E+03</pdfrwt>
<pdfrwt beam="2">  1       21 0.36687105E-01 0.45613428E+03</pdfrwt>
<totfact> 0.67713825E+04</totfact>
</mgrwt>
</event>
<event>
 7    0  0.4752811E-002  0.4486685E+03  0.7546771E-02  0.1028120E+00
         21   -1    0    0  502  501  0.00000000000E+00  0.00000000000E+00  0.37360026945E+03  0.37360026945E+03  0.00000000000E+00 0. -1.
         21   -1    0    0  501  502 -0.00000000000E+00 -0.00000000000E+00 -0.13470509101E+03  0.13470509101E+03  0.00000000000E+00 0. -1.
      99926    2    1    2    0    0  0.71054273576E-14  0.00000000000E+00  0.23889517844E+03  0.50830536046E+03  0.44866851148E+03 0.  0.
      99925    2    3    3    0    0  0.47237565542E+02  0.88883794037E+02  0.19003451357E+03  0.34047631318E+03  0.26396834478E+03 0.  0.
         25    1    3    3    0    0 -0.47237565542E+02 -0.88883794037E+02  0.48860664875E+02  0.16782904729E+03  0.12509000000E+03 0.  0.
         25    1    4    4    0    0  0.44293018920E+02  0.73917694683E+02  0.13402553053E+03  0.20257356206E+03  0.12509000000E+03 0.  0.
         25    1    4    4    0    0  0.29445466219E+01  0.14966099355E+02  0.56008983038E+02  0.13790275112E+03  0.12509000000E+03 0.  0.
<mgrwt>
<rscale>  2 0.44866851E+03</rscale>
<asrwt>0</asrwt>
<pdfrwt beam="1">  1       21 0.54941216E-01 0.44866851E+03</pdfrwt>
<pdfrwt beam="2">  1       21 0.19809572E-01 0.44866851E+03</pdfrwt>
<totfact> 0.68046322E+04</totfact>
</mgrwt>
</event>
<event>
 7    0  0.4752811E-002  0.4568180E+03  0.7546771E-02  0.1025708E+00
         21   -1    0    0  502  501  0.00000000000E+00  0.00000000000E+00  0.16975348583E+02  0.16975348583E+02  0.00000000000E+00 0. -1.
         21   -1    0    0  501  502 -0.00000000000E+00 -0.00000000000E+00 -0.30733191939E+04  0.30733191939E+04  0.00000000000E+00 0. -1.
      99926    2    1    2    0    0 -0.71054273576E-14  0.14210854715E-13 -0.30563438453E+04  0.30902945424E+04  0.45681797084E+03 0.  0.
      99925    2    3    3    0    0 -0.50995435114E+02  0.98799791305E+02 -0.17288598724E+04  0.17523023379E+04  0.26314462132E+03 0.  0.
         25    1    4    4    0    0 -0.29187656703E+02  0.12767085849E+02 -0.66126484544E+03  0.67374596229E+03  0.12509000000E+03 0.  0.
         25    1    4    4    0    0 -0.21807778410E+02  0.86032705456E+02 -0.10675950270E+04  0.10785563756E+04  0.12509000000E+03 0.  0.
         25    1    3    3    0    0  0.50995435114E+02 -0.98799791305E+02 -0.13274839729E+04  0.13379922046E+04  0.12509000000E+03 0.  0.
<mgrwt>
<rscale>  2 0.45681797E+03</rscale>
<asrwt>0</asrwt>
<pdfrwt beam="1">  1       21 0.24963744E-02 0.45681797E+03</pdfrwt>
<pdfrwt beam="2">  1       21 0.45195878E+00 0.45681797E+03</pdfrwt>
<totfact> 0.27365776E+03</totfact>
</mgrwt>
</event>
<event>
 7    0  0.4752811E-002  0.4625089E+03  0.7546771E-02  0.1024056E+00
         21   -1    0    0  502  501  0.00000000000E+00  0.00000000000E+00  0.74356985325E+02  0.74356985325E+02  0.00000000000E+00 0. -1.
         21   -1    0    0  501  502 -0.00000000000E+00 -0.00000000000E+00 -0.71921462644E+03  0.71921462644E+03  0.00000000000E+00 0. -1.
      99926    2    1    2    0    0  0.00000000000E+00  0.14210854715E-13 -0.64485764111E+03  0.79357161176E+03  0.46250894661E+03 0.  0.
      99925    2    3    3    0    0 -0.45354979199E+02  0.98710521722E+02 -0.49088133900E+03  0.56739236658E+03  0.26299955788E+03 0.  0.
         25    1    3    3    0    0  0.45354979199E+02 -0.98710521722E+02 -0.15397630212E+03  0.22617924518E+03  0.12509000000E+03 0.  0.
         25    1    4    4    0    0  0.71987820813E+01  0.52796528296E+02 -0.18456902167E+03  0.22924338098E+03  0.12509000000E+03 0.  0.
         25    1    4    4    0    0 -0.52553761280E+02  0.45913993426E+02 -0.30631231733E+03  0.33814898560E+03  0.12509000000E+03 0.  0.
<mgrwt>
<rscale>  2 0.46250895E+03</rscale>
<asrwt>0</asrwt>
<pdfrwt beam="1">  1       21 0.10934851E-01 0.46250895E+03</pdfrwt>
<pdfrwt beam="2">  1       21 0.10576685E+00 0.46250895E+03</pdfrwt>
<totfact> 0.45345420E+04</totfact>
</mgrwt>
</event>
<event>
 6    0  0.4752811E-002  0.4448609E+03  0.7546771E-02  0.1029266E+00
         21   -1    0    0  502  501  0.00000000000E+00  0.00000000000E+00  0.16397131155E+03  0.16397131155E+03  0.00000000000E+00 0.  1.
         21   -1    0    0  501  502 -0.00000000000E+00 -0.00000000000E+00 -0.30173140942E+03  0.30173140942E+03  0.00000000000E+00 0.  1.
      99926    2    1    2    0    0 -0.71054273576E-14  0.71054273576E-14 -0.13776009787E+03  0.46570272097E+03  0.44486085438E+03 0.  0.
         25    1    3    3    0    0 -0.61642505191E+02  0.60056026596E+02 -0.10189904115E+03  0.18285909183E+03  0.12509000000E+03 0.  0.
         25    1    3    3    0    0  0.60549572850E+02  0.30520688220E+01 -0.35418197297E+01  0.13905257453E+03  0.12509000000E+03 0.  0.
         25    1    3    3    0    0  0.10929323418E+01 -0.63108095418E+02 -0.32319236993E+02  0.14379105462E+03  0.12509000000E+03 0.  0.
<mgrwt>
<rscale>  2 0.44486085E+03</rscale>
<asrwt>0</asrwt>
<pdfrwt beam="1">  1       21 0.24113429E-01 0.44486085E+03</pdfrwt>
<pdfrwt beam="2">  1       21 0.44372265E-01 0.44486085E+03</pdfrwt>
<totfact> 0.73493318E+04</totfact>
</mgrwt>
</event>
<event>
 7    0  0.4752811E-002  0.4471692E+03  0.7546771E-02  0.1028570E+00
         21   -1    0    0  502  501  0.00000000000E+00  0.00000000000E+00  0.73778285081E+02  0.73778285081E+02  0.00000000000E+00 0.  1.
         21   -1    0    0  501  502 -0.00000000000E+00 -0.00000000000E+00 -0.67757176118E+03  0.67757176118E+03  0.00000000000E+00 0.  1.
      99926    2    1    2    0    0  0.14210854715E-13 -0.71054273576E-14 -0.60379347610E+03  0.75135004626E+03  0.44716924116E+03 0.  0.
      99925    2    3    3    0    0  0.82382948585E+02 -0.48757128460E+02 -0.45781449874E+03  0.53659069787E+03  0.26300428511E+03 0.  0.
         25    1    3    3    0    0 -0.82382948585E+02  0.48757128460E+02 -0.14597897736E+03  0.21475934840E+03  0.12509000000E+03 0.  0.
         25    1    4    4    0    0  0.81859469457E+02 -0.35277660649E+02 -0.23613863298E+03  0.28169921577E+03  0.12509000000E+03 0.  0.
         25    1    4    4    0    0  0.52347912789E+00 -0.13479467811E+02 -0.22167586577E+03  0.25489148210E+03  0.12509000000E+03 0.  0.
<mgrwt>
<rscale>  2 0.44716924E+03</rscale>
<asrwt>0</asrwt>
<pdfrwt beam="1">  1       21 0.10849748E-01 0.44716924E+03</pdfrwt>
<pdfrwt beam="2">  1       21 0.99642904E-01 0.44716924E+03</pdfrwt>
<totfact> 0.53414230E+04</totfact>
</mgrwt>
</event>
<event>
 7    0  0.4752811E-002  0.4625383E+03  0.7546771E-02  0.1024048E+00
         21   -1    0    0  502  501  0.00000000000E+00  0.00000000000E+00  0.54114007479E+03  0.54114007479E+03  0.00000000000E+00 0. -1.
         21   -1    0    0  501  502 -0.00000000000E+00 -0.00000000000E+00 -0.98838404525E+02  0.98838404525E+02  0.00000000000E+00 0. -1.
      99926    2    1    2    0    0  0.00000000000E+00  0.00000000000E+00  0.44230167026E+03  0.63997847931E+03  0.46253830811E+03 0.  0.
      99925    2    3    3    0    0 -0.92394386119E+01  0.80207938310E+02  0.15361991468E+03  0.31516569523E+03  0.26308108384E+03 0.  0.
         25    1    4    4    0    0 -0.35062402202E+02  0.26988110233E+02  0.10245621089E+03  0.16763804279E+03  0.12509000000E+03 0.  0.
         25    1    4    4    0    0  0.25822963590E+02  0.53219828076E+02  0.51163703791E+02  0.14752765244E+03  0.12509000000E+03 0.  0.
         25    1    3    3    0    0  0.92394386119E+01 -0.80207938310E+02  0.28868175558E+03  0.32481278408E+03  0.12509000000E+03 0.  0.
<mgrwt>
<rscale>  2 0.46253831E+03</rscale>
<asrwt>0</asrwt>
<pdfrwt beam="1">  1       21 0.79579421E-01 0.46253831E+03</pdfrwt>
<pdfrwt beam="2">  1       21 0.14535060E-01 0.46253831E+03</pdfrwt>
<totfact> 0.53055022E+04</totfact>
</mgrwt>
</event>
<event>
 7    0  0.4752811E-002  0.4559240E+03  0.7546771E-02  0.1025970E+00
         21   -1    0    0  502  501  0.00000000000E+00  0.00000000000E+00  0.31089676973E+03  0.31089676973E+03  0.00000000000E+00 0.  1.
         21   -1    0    0  501  502 -0.00000000000E+00 -0.00000000000E+00 -0.16715092177E+03  0.16715092177E+03  0.00000000000E+00 0.  1.
      99926    2    1    2    0    0  0.00000000000E+00 -0.14210854715E-13  0.14374584796E+03  0.47804769151E+03  0.45592403594E+03 0.  0.
      99925    2    3    3    0    0 -0.88482874107E+02  0.66744123609E+02  0.64256693181E+02  0.29298005286E+03  0.26348508821E+03 0.  0.
         25    1    3    3    0    0  0.88482874107E+02 -0.66744123609E+02  0.79489154776E+02  0.18506763864E+03  0.12509000000E+03 0.  0.
         25    1    4    4    0    0 -0.37247829123E+02  0.72170193011E+02  0.19113822784E+02  0.15036217561E+03  0.12509000000E+03 0.  0.
         25    1    4    4    0    0 -0.51235044984E+02 -0.54260694019E+01  0.45142870398E+02  0.14261787725E+03  0.12509000000E+03 0.  0.
<mgrwt>
<rscale>  2 0.45592404E+03</rscale>
<asrwt>0</asrwt>
<pdfrwt beam="1">  1       21 0.45720113E-01 0.45592404E+03</pdfrwt>
<pdfrwt beam="2">  1       21 0.24581018E-01 0.45592404E+03</pdfrwt>
<totfact> 0.66354516E+04</totfact>
</mgrwt>
</event>
<event>
 6    0  0.4752811E-002  0.4402019E+03  0.7546771E-02  0.1030685E+00
         21   -1    0    0  502  501  0.00000000000E+00  0.00000000000E+00  0.43911225095E+03  0.43911225095E+03  0.00000000000E+00 0. -1.
         21   -1    0    0  501  502 -0.00000000000E+00 -0.00000000000E+00 -0.11032354827E+03  0.11032354827E+03  0.00000000000E+00 0. -1.
      99926    2    1    2    0    0 -0.35527136788E-14  0.00000000000E+00  0.32878870268E+03  0.54943579922E+03  0.44020187012E+03 0.  0.
         25    1    3    3    0    0  0.57383214149E+01 -0.77259289677E+02  0.70918224731E+02  0.16333655094E+03  0.12509000000E+03 0.  0.
         25    1    3    3    0    0 -0.23942360424E+02 -0.17328965684E+02  0.13138220025E+03  0.18379967442E+03  0.12509000000E+03 0.  0.
         25    1    3    3    0    0  0.18204039009E+02  0.94588255361E+02  0.12648827771E+03  0.20229957386E+03  0.12509000000E+03 0.  0.
<mgrwt>
<rscale>  2 0.44020187E+03</rscale>
<asrwt>0</asrwt>
<pdfrwt beam="1">  1       21 0.64575330E-01 0.44020187E+03</pdfrwt>
<pdfrwt beam="2">  1       21 0.16224051E-01 0.44020187E+03</pdfrwt>
<totfact> 0.69714499E+04</totfact>
</mgrwt>
</event>
<event>
 7    0  0.4752811E-002  0.4520847E+03  0.7546771E-02  0.1027102E+00
         21   -1    0    0  502  501  0.00000000000E+00  0.00000000000E+00  0.32217943707E+02  0.32217943707E+02  0.00000000000E+00 0. -1.
         21   -1    0    0  501  502 -0.00000000000E+00 -0.00000000000E+00 -0.15859219860E+04  0.15859219860E+04  0.00000000000E+00 0. -1.
      99926    2    1    2    0    0  0.00000000000E+00  0.00000000000E+00 -0.15537040423E+04  0.16181399297E+04  0.45208470565E+03 0.  0.
      99925    2    3    3    0    0  0.96152759220E+02  0.49158558943E+01 -0.11737385756E+04  0.12066903183E+04  0.26300144809E+03 0.  0.
         25    1    4    4    0    0  0.84960733164E+02 -0.18391865550E+02 -0.63413847589E+03  0.65217766107E+03  0.12509000000E+03 0.  0.
         25    1    4    4    0    0  0.11192026056E+02  0.23307721444E+02 -0.53960009970E+03  0.55451265722E+03  0.12509000000E+03 0.  0.
         25    1    3    3    0    0 -0.96152759220E+02 -0.49158558943E+01 -0.37996546675E+03  0.41144961145E+03  0.12509000000E+03 0.  0.
<mgrwt>
<rscale>  2 0.45208471E+03</rscale>
<asrwt>0</asrwt>
<pdfrwt beam="1">  1       21 0.47379309E-02 0.45208471E+03</pdfrwt>
<pdfrwt beam="2">  1       21 0.23322392E+00 0.45208471E+03</pdfrwt>
<totfact> 0.21505644E+04</totfact>
</mgrwt>
</event>
<event>
 7    0  0.4752811E-002  0.4613125E+03  0.7546771E-02  0.1024401E+00
         21   -1    0    0  502  501  0.00000000000E+00  0.00000000000E+00  0.64329126372E+03  0.64329126372E+03  0.00000000000E+00 0. -1.
         21   -1    0    0  501  502 -0.00000000000E+00 -0.00000000000E+00 -0.82703277684E+02  0.82703277684E+02  0.00000000000E+00 0. -1.
      99926    2    1    2    0    0  0.00000000000E+00 -0.14210854715E-13  0.56058798604E+03  0.72599454141E+03  0.46131245817E+03 0.  0.
      99925    2    3    3    0    0  0.19657333206E+02 -0.99370660881E+02  0.25252806931E+03  0.37841813342E+03  0.26299984585E+03 0.  0.
         25    1    4    4    0    0 -0.73878017599E+01 -0.69694844974E+02  0.17359014443E+03  0.22515105457E+03  0.12509000000E+03 0.  0.
         25    1    4    4    0    0  0.27045134966E+02 -0.29675815906E+02  0.78937924878E+02  0.15326707885E+03  0.12509000000E+03 0.  0.
         25    1    3    3    0    0 -0.19657333206E+02  0.99370660881E+02  0.30805991673E+03  0.34757640799E+03  0.12509000000E+03 0.  0.
<mgrwt>
<rscale>  2 0.46131246E+03</rscale>
<asrwt>0</asrwt>
<pdfrwt beam="1">  1       21 0.94601654E-01 0.46131246E+03</pdfrwt>
<pdfrwt beam="2">  1       21 0.12162247E-01 0.46131246E+03</pdfrwt>
<totfact> 0.49034305E+04</totfact>
</mgrwt>
</event>
<event>
 7    0  0.4752811E-002  0.4235808E+03  0.7546771E-02  0.1035907E+00
         21   -1    0    0  502  501  0.00000000000E+00  0.00000000000E+00  0.54269693365E+02  0.54269693365E+02  0.00000000000E+00 0.  1.
         21   -1    0    0  501  502 -0.00000000000E+00 -0.00000000000E+00 -0.82652356469E+03  0.82652356469E+03  0.00000000000E+00 0.  1.
      99926    2    1    2    0    0  0.71054273576E-14  0.00000000000E+00 -0.77225387132E+03  0.88079325805E+03  0.42358083249E+03 0.  0.
      99925    2    3    3    0    0 -0.60068266837E+02 -0.50943625162E+01 -0.61147913351E+03  0.66835462308E+03  0.26297722765E+03 0.  0.
         25    1    4    4    0    0  0.10785806862E+02 -0.59229126960E+01 -0.30200078111E+03  0.32711373315E+03  0.12509000000E+03 0.  0.
         25    1    3    3    0    0  0.60068266837E+02  0.50943625162E+01 -0.16077473781E+03  0.21243863497E+03  0.12509000000E+03 0.  0.
         25    1    4    4    0    0 -0.70854073698E+02  0.82855017979E+00 -0.30947835240E+03  0.34124088993E+03  0.12509000000E+03 0.  0.
<mgrwt>
<rscale>  2 0.42358083E+03</rscale>
<asrwt>0</asrwt>
<pdfrwt beam="1">  1       21 0.79808372E-02 0.42358083E+03</pdfrwt>
<pdfrwt beam="2">  1       21 0.12154758E+00 0.42358083E+03</pdfrwt>
<totfact> 0.56812058E+04</totfact>
</mgrwt>
</event>
<event>
 7    0  0.4752811E-002  0.4562960E+03  0.7546771E-02  0.1025861E+00
         21   -1    0    0  502  501  0.00000000000E+00  0.00000000000E+00  0.47044571707E+03  0.47044571707E+03  0.00000000000E+00 0.  1.
         21   -1    0    0  501  502 -0.00000000000E+00 -0.00000000000E+00 -0.11064295860E+03  0.11064295860E+03  0.00000000000E+00 0.  1.
      99926    2    1    2    0    0  0.00000000000E+00  0.00000000000E+00  0.35980275847E+03  0.58108867567E+03  0.45629598288E+03 0.  0.
      99925    2    3    3    0    0  0.16893913428E+02 -0.10715629000E+03  0.27214906919E+03  0.39374259981E+03  0.26305939300E+03 0.  0.
         25    1    4    4    0    0 -0.50094638990E+01 -0.72960812519E+02  0.95611110528E+02  0.17360117352E+03  0.12509000000E+03 0.  0.
         25    1    4    4    0    0  0.21903377327E+02 -0.34195477484E+02  0.17653795866E+03  0.22014142628E+03  0.12509000000E+03 0.  0.
         25    1    3    3    0    0 -0.16893913428E+02  0.10715629000E+03  0.87653689277E+02  0.18734607586E+03  0.12509000000E+03 0.  0.
<mgrwt>
<rscale>  2 0.45629598E+03</rscale>
<asrwt>0</asrwt>
<pdfrwt beam="1">  1       21 0.69183193E-01 0.45629598E+03</pdfrwt>
<pdfrwt beam="2">  1       21 0.16271023E-01 0.45629598E+03</pdfrwt>
<totfact> 0.59248313E+04</totfact>
</mgrwt>
</event>
<event>
 7    0  0.4752811E-002  0.4553191E+03  0.7546771E-02  0.1026148E+00
         21   -1    0    0  502  501  0.00000000000E+00  0.00000000000E+00  0.14263464695E+03  0.14263464695E+03  0.00000000000E+00 0. -1.
         21   -1    0    0  501  502 -0.00000000000E+00 -0.00000000000E+00 -0.36336808908E+03  0.36336808908E+03  0.00000000000E+00 0. -1.
      99926    2    1    2    0    0 -0.71054273576E-14  0.00000000000E+00 -0.22073344213E+03  0.50600273603E+03  0.45531913686E+03 0.  0.
      99925    2    3    3    0    0  0.52387921124E+02 -0.92993550616E+02 -0.95724292458E+02  0.29944259869E+03  0.26288863613E+03 0.  0.
         25    1    3    3    0    0 -0.52387921124E+02  0.92993550616E+02 -0.12500914968E+03  0.20656013734E+03  0.12509000000E+03 0.  0.
         25    1    4    4    0    0  0.28347760957E+02 -0.21746530195E+02 -0.79820501577E+02  0.15262806983E+03  0.12509000000E+03 0.  0.
         25    1    4    4    0    0  0.24040160167E+02 -0.71247020422E+02 -0.15903790881E+02  0.14681452886E+03  0.12509000000E+03 0.  0.
<mgrwt>
<rscale>  2 0.45531914E+03</rscale>
<asrwt>0</asrwt>
<pdfrwt beam="1">  1       21 0.20975683E-01 0.45531914E+03</pdfrwt>
<pdfrwt beam="2">  1       21 0.53436484E-01 0.45531914E+03</pdfrwt>
<totfact> 0.64686966E+04</totfact>
</mgrwt>
</event>
<event>
 7    0  0.4752811E-002  0.4447380E+03  0.7546771E-02  0.1029303E+00
         21   -1    0    0  502  501  0.00000000000E+00  0.00000000000E+00  0.22907691986E+03  0.22907691986E+03  0.00000000000E+00 0. -1.
         21   -1    0    0  501  502 -0.00000000000E+00 -0.00000000000E+00 -0.21585754100E+03  0.21585754100E+03  0.00000000000E+00 0. -1.
      99926    2    1    2    0    0  0.00000000000E+00  0.14210854715E-13  0.13219378865E+02  0.44493446086E+03  0.44473803805E+03 0.  0.
      99925    2    3    3    0    0 -0.13741274045E+02 -0.98768551850E+02  0.35009147763E+02  0.28348368950E+03  0.26304621711E+03 0.  0.
         25    1    4    4    0    0  0.93632850438E+01 -0.11278995145E+02  0.27497241014E+02  0.12891273483E+03  0.12509000000E+03 0.  0.
         25    1    4    4    0    0 -0.23104559089E+02 -0.87489556704E+02  0.75119067493E+01  0.15457095466E+03  0.12509000000E+03 0.  0.
         25    1    3    3    0    0  0.13741274045E+02  0.98768551850E+02 -0.21789768898E+02  0.16145077137E+03  0.12509000000E+03 0.  0.
<mgrwt>
<rscale>  2 0.44473804E+03</rscale>
<asrwt>0</asrwt>
<pdfrwt beam="1">  1       21 0.33687783E-01 0.44473804E+03</pdfrwt>
<pdfrwt beam="2">  1       21 0.31743756E-01 0.44473804E+03</pdfrwt>
<totfact> 0.75266099E+04</totfact>
</mgrwt>
</event>
<event>
 7    0  0.4752811E-002  0.4476051E+03  0.7546771E-02  0.1028439E+00
         21   -1    0    0  502  501  0.00000000000E+00  0.00000000000E+00  0.11575364910E+03  0.11575364910E+03  0.00000000000E+00 0. -1.
         21   -1    0    0  501  502 -0.00000000000E+00 -0.00000000000E+00 -0.43270851821E+03  0.43270851821E+03  0.00000000000E+00 0. -1.
      99926    2    1    2    0    0  0.00000000000E+00  0.00000000000E+00 -0.31695486910E+03  0.54846216731E+03  0.44760513840E+03 0.  0.
      99925    2    3    3    0    0 -0.71576488386E+02 -0.65736459430E+02 -0.25266481770E+03  0.37750838818E+03  0.26311327837E+03 0.  0.
         25    1    4    4    0    0 -0.16349125171E+02 -0.91552124829E+01 -0.78080567346E+02  0.14864452532E+03  0.12509000000E+03 0.  0.
         25    1    3    3    0    0  0.71576488386E+02  0.65736459430E+02 -0.64290051404E+02  0.17095377913E+03  0.12509000000E+03 0.  0.
         25    1    4    4    0    0 -0.55227363215E+02 -0.56581246947E+02 -0.17458425035E+03  0.22886386286E+03  0.12509000000E+03 0.  0.
<mgrwt>
<rscale>  2 0.44760514E+03</rscale>
<asrwt>0</asrwt>
<pdfrwt beam="1">  1       21 0.17022595E-01 0.44760514E+03</pdfrwt>
<pdfrwt beam="2">  1       21 0.63633606E-01 0.44760514E+03</pdfrwt>
<totfact> 0.65730478E+04</totfact>
</mgrwt>
</event>
<event>
 7    0  0.4752811E-002  0.4545580E+03  0.7546771E-02  0.1026371E+00
         21   -1    0    0  502  501  0.00000000000E+00  0.00000000000E+00  0.92140596897E+02  0.92140596897E+02  0.00000000000E+00 0.  1.
         21   -1    0    0  501  502 -0.00000000000E+00 -0.00000000000E+00 -0.56061870006E+03  0.56061870006E+03  0.00000000000E+00 0.  1.
      99926    2    1    2    0    0  0.00000000000E+00  0.00000000000E+00 -0.46847810317E+03  0.65275929696E+03  0.45455799038E+03 0.  0.
      99925    2    3    3    0    0 -0.39407225134E+02  0.76391559134E+02 -0.19024102723E+03  0.33581769630E+03  0.26304614996E+03 0.  0.
         25    1    3    3    0    0  0.39407225134E+02 -0.76391559134E+02 -0.27823707594E+03  0.31694160066E+03  0.12509000000E+03 0.  0.
         25    1    4    4    0    0 -0.51439977155E+02  0.14836250925E+02 -0.81558598499E+02  0.15863637250E+03  0.12509000000E+03 0.  0.
         25    1    4    4    0    0  0.12032752021E+02  0.61555308209E+02 -0.10868242873E+03  0.17718132380E+03  0.12509000000E+03 0.  0.
<mgrwt>
<rscale>  2 0.45455799E+03</rscale>
<asrwt>0</asrwt>
<pdfrwt beam="1">  1       21 0.13550087E-01 0.45455799E+03</pdfrwt>
<pdfrwt beam="2">  1       21 0.82443929E-01 0.45455799E+03</pdfrwt>
<totfact> 0.55736890E+04</totfact>
</mgrwt>
</event>
<event>
 7    0  0.4752811E-002  0.4022838E+03  0.7546771E-02  0.1042992E+00
         21   -1    0    0  502  501  0.00000000000E+00  0.00000000000E+00  0.36624029188E+03  0.36624029188E+03  0.00000000000E+00 0. -1.
         21   -1    0    0  501  502 -0.00000000000E+00 -0.00000000000E+00 -0.11046862920E+03  0.11046862920E+03  0.00000000000E+00 0. -1.
      99926    2    1    2    0    0  0.72164496601E-15 -0.35527136788E-14  0.25577166268E+03  0.47670892108E+03  0.40228379535E+03 0.  0.
      99925    2    3    3    0    0 -0.49107270491E+00 -0.27273354154E+02  0.21956265498E+03  0.34365751245E+03  0.26296130780E+03 0.  0.
         25    1    4    4    0    0  0.99393008771E+01 -0.36182307065E+02  0.15347523585E+03  0.20151949079E+03  0.12509000000E+03 0.  0.
         25    1    3    3    0    0  0.49107270491E+00  0.27273354154E+02  0.36209007703E+02  0.13305140863E+03  0.12509000000E+03 0.  0.
         25    1    4    4    0    0 -0.10430373582E+02  0.89089529105E+01  0.66087419128E+02  0.14213802166E+03  0.12509000000E+03 0.  0.
<mgrwt>
<rscale>  2 0.40228380E+03</rscale>
<asrwt>0</asrwt>
<pdfrwt beam="1">  1       21 0.53858866E-01 0.40228380E+03</pdfrwt>
<pdfrwt beam="2">  1       21 0.16245387E-01 0.40228380E+03</pdfrwt>
<totfact> 0.10414023E+05</totfact>
</mgrwt>
</event>
<event>
 7    0  0.4752811E-002  0.4615627E+03  0.7546771E-02  0.1024329E+00
         21   -1    0    0  502  501  0.00000000000E+00  0.00000000000E+00  0.13698357428E+03  0.13698357428E+03  0.00000000000E+00 0. -1.
         21   -1    0    0  501  502 -0.00000000000E+00 -0.00000000000E+00 -0.38880602149E+03  0.38880602149E+03  0.00000000000E+00 0. -1.
      99926    2    1    2    0    0  0.35527136788E-14 -0.14210854715E-13 -0.25182244722E+03  0.52578959577E+03  0.46156273040E+03 0.  0.
      99925    2    3    3    0    0  0.13764781436E+02 -0.11387587152E+03 -0.19594120170E+03  0.34710718191E+03  0.26255143856E+03 0.  0.
         25    1    4    4    0    0  0.45216471108E+02 -0.47964428588E+02 -0.89248973124E+02  0.16720646810E+03  0.12509000000E+03 0.  0.
         25    1    3    3    0    0 -0.13764781436E+02  0.11387587152E+03 -0.55881245513E+02  0.17868241386E+03  0.12509000000E+03 0.  0.
         25    1    4    4    0    0 -0.31451689672E+02 -0.65911442931E+02 -0.10669222858E+03  0.17990071382E+03  0.12509000000E+03 0.  0.
<mgrwt>
<rscale>  2 0.46156273E+03</rscale>
<asrwt>0</asrwt>
<pdfrwt beam="1">  1       21 0.20144644E-01 0.46156273E+03</pdfrwt>
<pdfrwt beam="2">  1       21 0.57177355E-01 0.46156273E+03</pdfrwt>
<totfact> 0.60293648E+04</totfact>
</mgrwt>
</event>
<event>
 7    0  0.4752811E-002  0.4551514E+03  0.7546771E-02  0.1026197E+00
         21   -1    0    0  502  501  0.00000000000E+00  0.00000000000E+00  0.18366192744E+03  0.18366192744E+03  0.00000000000E+00 0. -1.
         21   -1    0    0  501  502 -0.00000000000E+00 -0.00000000000E+00 -0.28198927051E+03  0.28198927051E+03  0.00000000000E+00 0. -1.
      99926    2    1    2    0    0  0.00000000000E+00  0.00000000000E+00 -0.98327343069E+02  0.46565119795E+03  0.45515137235E+03 0.  0.
      99925    2    3    3    0    0  0.10665420001E+02  0.81364688321E+02  0.18146538369E+02  0.27605257758E+03  0.26294821742E+03 0.  0.
         25    1    4    4    0    0 -0.13398894375E+02  0.19350773708E+02  0.38362997895E+02  0.13294062780E+03  0.12509000000E+03 0.  0.
         25    1    3    3    0    0 -0.10665420001E+02 -0.81364688321E+02 -0.11647388144E+03  0.18959862037E+03  0.12509000000E+03 0.  0.
         25    1    4    4    0    0  0.24064314376E+02  0.62013914613E+02 -0.20216459526E+02  0.14311194977E+03  0.12509000000E+03 0.  0.
<mgrwt>
<rscale>  2 0.45515137E+03</rscale>
<asrwt>0</asrwt>
<pdfrwt beam="1">  1       21 0.27009108E-01 0.45515137E+03</pdfrwt>
<pdfrwt beam="2">  1       21 0.41469009E-01 0.45515137E+03</pdfrwt>
<totfact> 0.67679792E+04</totfact>
</mgrwt>
</event>
<event>
 7    0  0.4752811E-002  0.4760590E+03  0.7546771E-02  0.1020224E+00
         21   -1    0    0  502  501  0.00000000000E+00  0.00000000000E+00  0.31060393409E+03  0.31060393409E+03  0.00000000000E+00 0.  1.
         21   -1    0    0  501  502 -0.00000000000E+00 -0.00000000000E+00 -0.18241253745E+03  0.18241253745E+03  0.00000000000E+00 0.  1.
      99926    2    1    2    0    0  0.00000000000E+00  0.00000000000E+00  0.12819139664E+03  0.49301647154E+03  0.47605903734E+03 0.  0.
      99925    2    3    3    0    0 -0.63169449508E+02  0.10183238103E+03  0.13805622025E+03  0.31950844284E+03  0.26204181330E+03 0.  0.
         25    1    3    3    0    0  0.63169449508E+02 -0.10183238103E+03 -0.98648236164E+01  0.17350802870E+03  0.12509000000E+03 0.  0.
         25    1    4    4    0    0  0.21108897100E+01  0.70473497886E+02  0.70071017457E+02  0.15977617265E+03  0.12509000000E+03 0.  0.
         25    1    4    4    0    0 -0.65280339218E+02  0.31358883146E+02  0.67985202797E+02  0.15973227019E+03  0.12509000000E+03 0.  0.
<mgrwt>
<rscale>  2 0.47605904E+03</rscale>
<asrwt>0</asrwt>
<pdfrwt beam="1">  1       21 0.45677050E-01 0.47605904E+03</pdfrwt>
<pdfrwt beam="2">  1       21 0.26825373E-01 0.47605904E+03</pdfrwt>
<totfact> 0.55831695E+04</totfact>
</mgrwt>
</event>
<event>
 7    0  0.4752811E-002  0.4518590E+03  0.7546771E-02  0.1027169E+00
         21   -1    0    0  502  501  0.00000000000E+00  0.00000000000E+00  0.19147268960E+03  0.19147268960E+03  0.00000000000E+00 0.  1.
         21   -1    0    0  501  502 -0.00000000000E+00 -0.00000000000E+00 -0.26658709240E+03  0.26658709240E+03  0.00000000000E+00 0.  1.
      99926    2    1    2    0    0  0.00000000000E+00  0.00000000000E+00 -0.75114402802E+02  0.45805978201E+03  0.45185903818E+03 0.  0.
      99925    2    3    3    0    0  0.25650628467E+02  0.92064724657E+02 -0.10293171819E+03  0.29819990773E+03  0.26304824291E+03 0.  0.
         25    1    4    4    0    0  0.29838919685E+02  0.57172306827E+02 -0.15493863630E+02  0.14158602228E+03  0.12509000000E+03 0.  0.
         25    1    3    3    0    0 -0.25650628467E+02 -0.92064724657E+02  0.27817315390E+02  0.15985987427E+03  0.12509000000E+03 0.  0.
         25    1    4    4    0    0 -0.41882912175E+01  0.34892417831E+02 -0.87437854563E+02  0.15661388545E+03  0.12509000000E+03 0.  0.
<mgrwt>
<rscale>  2 0.45185904E+03</rscale>
<asrwt>0</asrwt>
<pdfrwt beam="1">  1       21 0.28157749E-01 0.45185904E+03</pdfrwt>
<pdfrwt beam="2">  1       21 0.39203984E-01 0.45185904E+03</pdfrwt>
<totfact> 0.70060584E+04</totfact>
</mgrwt>
</event>
<event>
 7    0  0.4752811E-002  0.4472667E+03  0.7546771E-02  0.1028540E+00
         21   -1    0    0  502  501  0.00000000000E+00  0.00000000000E+00  0.40645480921E+03  0.40645480921E+03  0.00000000000E+00 0.  1.
         21   -1    0    0  501  502 -0.00000000000E+00 -0.00000000000E+00 -0.12304412812E+03  0.12304412812E+03  0.00000000000E+00 0.  1.
      99926    2    1    2    0    0  0.00000000000E+00 -0.35527136788E-14  0.28341068109E+03  0.52949893732E+03  0.44726671067E+03 0.  0.
      99925    2    3    3    0    0 -0.96648088120E+02 -0.21398368816E+02  0.22370925004E+03  0.35917421189E+03  0.26298582244E+03 0.  0.
         25    1    4    4    0    0 -0.40680758222E+02  0.23383634150E+02  0.13481366982E+03  0.18979976845E+03  0.12509000000E+03 0.  0.
         25    1    4    4    0    0 -0.55967329898E+02 -0.44782002966E+02  0.88895580224E+02  0.16937444344E+03  0.12509000000E+03 0.  0.
         25    1    3    3    0    0  0.96648088120E+02  0.21398368816E+02  0.59701431052E+02  0.17032472544E+03  0.12509000000E+03 0.  0.
<mgrwt>
<rscale>  2 0.44726671E+03</rscale>
<asrwt>0</asrwt>
<pdfrwt beam="1">  1       21 0.59772766E-01 0.44726671E+03</pdfrwt>
<pdfrwt beam="2">  1       21 0.18094725E-01 0.44726671E+03</pdfrwt>
<totfact> 0.67266075E+04</totfact>
</mgrwt>
</event>
<event>
 7    0  0.4752811E-002  0.4535590E+03  0.7546771E-02  0.1026666E+00
         21   -1    0    0  502  501  0.00000000000E+00  0.00000000000E+00  0.47315654560E+03  0.47315654560E+03  0.00000000000E+00 0.  1.
         21   -1    0    0  501  502 -0.00000000000E+00 -0.00000000000E+00 -0.10869330132E+03  0.10869330132E+03  0.00000000000E+00 0.  1.
      99926    2    1    2    0    0 -0.71054273576E-14  0.00000000000E+00  0.36446324428E+03  0.58184984692E+03  0.45355902364E+03 0.  0.
      99925    2    3    3    0    0 -0.36428633600E+02  0.67335216033E+02  0.33413740906E+03  0.43208923445E+03  0.26304414407E+03 0.  0.
         25    1    4    4    0    0 -0.25975584276E+02 -0.27152251643E+01  0.12880523638E+03  0.18143979840E+03  0.12509000000E+03 0.  0.
         25    1    4    4    0    0 -0.10453049324E+02  0.70050441197E+02  0.20533217269E+03  0.25064943605E+03  0.12509000000E+03 0.  0.
         25    1    3    3    0    0  0.36428633600E+02 -0.67335216033E+02  0.30325835212E+02  0.14976061246E+03  0.12509000000E+03 0.  0.
<mgrwt>
<rscale>  2 0.45355902E+03</rscale>
<asrwt>0</asrwt>
<pdfrwt beam="1">  1       21 0.69581844E-01 0.45355902E+03</pdfrwt>
<pdfrwt beam="2">  1       21 0.15984309E-01 0.45355902E+03</pdfrwt>
<totfact> 0.60495785E+04</totfact>
</mgrwt>
</event>
<event>
 7    0  0.4752811E-002  0.4534351E+03  0.7546771E-02  0.1026703E+00
         21   -1    0    0  502  501  0.00000000000E+00  0.00000000000E+00  0.35939873442E+03  0.35939873442E+03  0.00000000000E+00 0. -1.
         21   -1    0    0  501  502 -0.00000000000E+00 -0.00000000000E+00 -0.14301900296E+03  0.14301900296E+03  0.00000000000E+00 0. -1.
      99926    2    1    2    0    0  0.00000000000E+00  0.00000000000E+00  0.21637973146E+03  0.50241773738E+03  0.45343510522E+03 0.  0.
      99925    2    3    3    0    0 -0.17223069099E+02 -0.16966282635E+02  0.25703542248E+03  0.36868336570E+03  0.26320282461E+03 0.  0.
         25    1    4    4    0    0  0.10795497076E+02  0.21190991951E+02  0.96703554512E+02  0.15988960708E+03  0.12509000000E+03 0.  0.
         25    1    4    4    0    0 -0.28018566175E+02 -0.38157274586E+02  0.16033186797E+03  0.20879375862E+03  0.12509000000E+03 0.  0.
         25    1    3    3    0    0  0.17223069099E+02  0.16966282635E+02 -0.40655691017E+02  0.13373437168E+03  0.12509000000E+03 0.  0.
<mgrwt>
<rscale>  2 0.45343511E+03</rscale>
<asrwt>0</asrwt>
<pdfrwt beam="1">  1       21 0.52852755E-01 0.45343511E+03</pdfrwt>
<pdfrwt beam="2">  1       21 0.21032206E-01 0.45343511E+03</pdfrwt>
<totfact> 0.65916119E+04</totfact>
</mgrwt>
</event>
<event>
 7    0  0.4752811E-002  0.4527966E+03  0.7546771E-02  0.1026891E+00
         21   -1    0    0  502  501  0.00000000000E+00  0.00000000000E+00  0.10464460275E+03  0.10464460275E+03  0.00000000000E+00 0. -1.
         21   -1    0    0  501  502 -0.00000000000E+00 -0.00000000000E+00 -0.48981207410E+03  0.48981207410E+03  0.00000000000E+00 0. -1.
      99926    2    1    2    0    0  0.00000000000E+00  0.00000000000E+00 -0.38516747135E+03  0.59445667686E+03  0.45279659857E+03 0.  0.
      99925    2    3    3    0    0 -0.64989153333E+02 -0.33075783375E+02 -0.35290490150E+03  0.44611255325E+03  0.26297707725E+03 0.  0.
         25    1    4    4    0    0 -0.64922993734E+02 -0.55514824234E+01 -0.14779040962E+03  0.20429225964E+03  0.12509000000E+03 0.  0.
         25    1    4    4    0    0 -0.66159598480E-01 -0.27524300951E+02 -0.20511449188E+03  0.24182029361E+03  0.12509000000E+03 0.  0.
         25    1    3    3    0    0  0.64989153333E+02  0.33075783375E+02 -0.32262569844E+02  0.14834412361E+03  0.12509000000E+03 0.  0.
<mgrwt>
<rscale>  2 0.45279660E+03</rscale>
<asrwt>0</asrwt>
<pdfrwt beam="1">  1       21 0.15388912E-01 0.45279660E+03</pdfrwt>
<pdfrwt beam="2">  1       21 0.72031188E-01 0.45279660E+03</pdfrwt>
<totfact> 0.60059739E+04</totfact>
</mgrwt>
</event>
<event>
 6    0  0.4752811E-002  0.4471559E+03  0.7546771E-02  0.1028574E+00
         21   -1    0    0  502  501  0.00000000000E+00  0.00000000000E+00  0.15956059404E+03  0.15956059404E+03  0.00000000000E+00 0. -1.
         21   -1    0    0  501  502 -0.00000000000E+00 -0.00000000000E+00 -0.31327977186E+03  0.31327977186E+03  0.00000000000E+00 0. -1.
      99926    2    1    2    0    0  0.00000000000E+00  0.00000000000E+00 -0.15371917782E+03  0.47284036590E+03  0.44715593029E+03 0.  0.
         25    1    3    3    0    0  0.12576940502E+02  0.83410416260E+02 -0.34257718322E+02  0.15471449944E+03  0.12509000000E+03 0.  0.
         25    1    3    3    0    0  0.22001001676E+02 -0.10281692027E+03 -0.72211191676E+02  0.17865421202E+03  0.12509000000E+03 0.  0.
         25    1    3    3    0    0 -0.34577942178E+02  0.19406504009E+02 -0.47250267823E+02  0.13947165444E+03  0.12509000000E+03 0.  0.
<mgrwt>
<rscale>  2 0.44715593E+03</rscale>
<asrwt>0</asrwt>
<pdfrwt beam="1">  1       21 0.23464793E-01 0.44715593E+03</pdfrwt>
<pdfrwt beam="2">  1       21 0.46070555E-01 0.44715593E+03</pdfrwt>
<totfact> 0.71578521E+04</totfact>
</mgrwt>
</event>
<event>
 7    0  0.4752811E-002  0.4646045E+03  0.7546771E-02  0.1023454E+00
         21   -1    0    0  502  501  0.00000000000E+00  0.00000000000E+00  0.18709507274E+03  0.18709507274E+03  0.00000000000E+00 0.  1.
         21   -1    0    0  501  502 -0.00000000000E+00 -0.00000000000E+00 -0.28843265035E+03  0.28843265035E+03  0.00000000000E+00 0.  1.
      99926    2    1    2    0    0  0.17763568394E-14  0.00000000000E+00 -0.10133757761E+03  0.47552772309E+03  0.46460446704E+03 0.  0.
      99925    2    3    3    0    0 -0.98672165929E+01  0.11845124010E+03 -0.35223958147E+02  0.29073979864E+03  0.26298449582E+03 0.  0.
         25    1    4    4    0    0 -0.11360604091E+02  0.66373229894E+02  0.21796296618E+02  0.14372562617E+03  0.12509000000E+03 0.  0.
         25    1    4    4    0    0  0.14933874980E+01  0.52078010204E+02 -0.57020254764E+02  0.14701417247E+03  0.12509000000E+03 0.  0.
         25    1    3    3    0    0  0.98672165929E+01 -0.11845124010E+03 -0.66113619462E+02  0.18478792445E+03  0.12509000000E+03 0.  0.
<mgrwt>
<rscale>  2 0.46460447E+03</rscale>
<asrwt>0</asrwt>
<pdfrwt beam="1">  1       21 0.27513982E-01 0.46460447E+03</pdfrwt>
<pdfrwt beam="2">  1       21 0.42416565E-01 0.46460447E+03</pdfrwt>
<totfact> 0.62153513E+04</totfact>
</mgrwt>
</event>
<event>
 7    0  0.4752811E-002  0.4574774E+03  0.7546771E-02  0.1025515E+00
         21   -1    0    0  502  501  0.00000000000E+00  0.00000000000E+00  0.17571996845E+04  0.17571996845E+04  0.00000000000E+00 0. -1.
         21   -1    0    0  501  502 -0.00000000000E+00 -0.00000000000E+00 -0.29775434107E+02  0.29775434107E+02  0.00000000000E+00 0. -1.
      99926    2    1    2    0    0  0.00000000000E+00  0.71054273576E-14  0.17274242504E+04  0.17869751186E+04  0.45747735865E+03 0.  0.
      99925    2    3    3    0    0 -0.75470623570E+02  0.61006780969E+02  0.83548845902E+03  0.88109730875E+03  0.26243829750E+03 0.  0.
         25    1    3    3    0    0  0.75470623570E+02 -0.61006780969E+02  0.89193579137E+03  0.90587780985E+03  0.12509000000E+03 0.  0.
         25    1    4    4    0    0 -0.52149777420E+02  0.79517040163E+01  0.50678373668E+03  0.52465235417E+03  0.12509000000E+03 0.  0.
         25    1    4    4    0    0 -0.23320846150E+02  0.53055076953E+02  0.32870472234E+03  0.35644495458E+03  0.12509000000E+03 0.  0.
<mgrwt>
<rscale>  2 0.45747736E+03</rscale>
<asrwt>0</asrwt>
<pdfrwt beam="1">  1       21 0.25841165E+00 0.45747736E+03</pdfrwt>
<pdfrwt beam="2">  1       21 0.43787415E-02 0.45747736E+03</pdfrwt>
<totfact> 0.17178294E+04</totfact>
</mgrwt>
</event>
<event>
 7    0  0.4752811E-002  0.4484590E+03  0.7546771E-02  0.1028183E+00
         21   -1    0    0  502  501  0.00000000000E+00  0.00000000000E+00  0.10161537673E+03  0.10161537673E+03  0.00000000000E+00 0. -1.
         21   -1    0    0  501  502 -0.00000000000E+00 -0.00000000000E+00 -0.49479583552E+03  0.49479583552E+03  0.00000000000E+00 0. -1.
      99926    2    1    2    0    0  0.00000000000E+00  0.71054273576E-14 -0.39318045879E+03  0.59641121225E+03  0.44845898466E+03 0.  0.
      99925    2    3    3    0    0  0.30893552451E+02  0.52239292817E+02 -0.36589731814E+03  0.45472411630E+03  0.26307759164E+03 0.  0.
         25    1    4    4    0    0 -0.17768836629E+02  0.21582940846E+02 -0.21621386530E+03  0.25135134481E+03  0.12509000000E+03 0.  0.
         25    1    4    4    0    0  0.48662389080E+02  0.30656351972E+02 -0.14968345284E+03  0.20337277149E+03  0.12509000000E+03 0.  0.
         25    1    3    3    0    0 -0.30893552451E+02 -0.52239292817E+02 -0.27283140653E+02  0.14168709596E+03  0.12509000000E+03 0.  0.
<mgrwt>
<rscale>  2 0.44845898E+03</rscale>
<asrwt>0</asrwt>
<pdfrwt beam="1">  1       21 0.14943438E-01 0.44845898E+03</pdfrwt>
<pdfrwt beam="2">  1       21 0.72764094E-01 0.44845898E+03</pdfrwt>
<totfact> 0.62044921E+04</totfact>
</mgrwt>
</event>
<event>
 7    0  0.4752811E-002  0.4526608E+03  0.7546771E-02  0.1026932E+00
         21   -1    0    0  502  501  0.00000000000E+00  0.00000000000E+00  0.92888626737E+02  0.92888626737E+02  0.00000000000E+00 0.  1.
         21   -1    0    0  501  502 -0.00000000000E+00 -0.00000000000E+00 -0.55147168205E+03  0.55147168205E+03  0.00000000000E+00 0.  1.
      99926    2    1    2    0    0  0.00000000000E+00  0.00000000000E+00 -0.45858305531E+03  0.64436030879E+03  0.45266078792E+03 0.  0.
      99925    2    3    3    0    0  0.44338276639E+02  0.44206691251E+02 -0.15909809665E+03  0.31381702434E+03  0.26315167885E+03 0.  0.
         25    1    4    4    0    0  0.16405767646E+02 -0.17854304489E+02 -0.86203653802E+02  0.15383921291E+03  0.12509000000E+03 0.  0.
         25    1    4    4    0    0  0.27932508994E+02  0.62060995741E+02 -0.72894442845E+02  0.15997781143E+03  0.12509000000E+03 0.  0.
         25    1    3    3    0    0 -0.44338276639E+02 -0.44206691251E+02 -0.29948495867E+03  0.33054328445E+03  0.12509000000E+03 0.  0.
<mgrwt>
<rscale>  2 0.45266079E+03</rscale>
<asrwt>0</asrwt>
<pdfrwt beam="1">  1       21 0.13660092E-01 0.45266079E+03</pdfrwt>
<pdfrwt beam="2">  1       21 0.81098779E-01 0.45266079E+03</pdfrwt>
<totfact> 0.57073701E+04</totfact>
</mgrwt>
</event>
<event>
 7    0  0.4752811E-002  0.4551865E+03  0.7546771E-02  0.1026187E+00
         21   -1    0    0  502  501  0.00000000000E+00  0.00000000000E+00  0.94523540807E+02  0.94523540807E+02  0.00000000000E+00 0.  1.
         21   -1    0    0  501  502 -0.00000000000E+00 -0.00000000000E+00 -0.54799780119E+03  0.54799780119E+03  0.00000000000E+00 0.  1.
      99926    2    1    2    0    0  0.00000000000E+00  0.17763568394E-14 -0.45347426039E+03  0.64252134200E+03  0.45518652231E+03 0.  0.
      99925    2    3    3    0    0  0.74776397471E+02 -0.15246186166E+02 -0.16695949502E+03  0.32071056734E+03  0.26297497831E+03 0.  0.
         25    1    4    4    0    0  0.18301084756E+02  0.25616165998E+02 -0.96630834920E+02  0.16117116374E+03  0.12509000000E+03 0.  0.
         25    1    4    4    0    0  0.56475312715E+02 -0.40862352164E+02 -0.70328660095E+02  0.15953940360E+03  0.12509000000E+03 0.  0.
         25    1    3    3    0    0 -0.74776397471E+02  0.15246186166E+02 -0.28651476537E+03  0.32181077466E+03  0.12509000000E+03 0.  0.
<mgrwt>
<rscale>  2 0.45518652E+03</rscale>
<asrwt>0</asrwt>
<pdfrwt beam="1">  1       21 0.13900520E-01 0.45518652E+03</pdfrwt>
<pdfrwt beam="2">  1       21 0.80587914E-01 0.45518652E+03</pdfrwt>
<totfact> 0.56051857E+04</totfact>
</mgrwt>
</event>
<event>
 7    0  0.4752811E-002  0.4525192E+03  0.7546771E-02  0.1026973E+00
         21   -1    0    0  502  501  0.00000000000E+00  0.00000000000E+00  0.30253819310E+03  0.30253819310E+03  0.00000000000E+00 0. -1.
         21   -1    0    0  501  502 -0.00000000000E+00 -0.00000000000E+00 -0.16921306085E+03  0.16921306085E+03  0.00000000000E+00 0. -1.
      99926    2    1    2    0    0 -0.35527136788E-14  0.00000000000E+00  0.13332513224E+03  0.47175125395E+03  0.45251923132E+03 0.  0.
      99925    2    3    3    0    0  0.31094843040E+02  0.45816968575E+02 -0.15982393867E+02  0.26925105808E+03  0.26301066802E+03 0.  0.
         25    1    4    4    0    0  0.56005298101E+02  0.27410156137E+02 -0.39808150804E+01  0.13982583833E+03  0.12509000000E+03 0.  0.
         25    1    4    4    0    0 -0.24910455061E+02  0.18406812438E+02 -0.12001578786E+02  0.12942521976E+03  0.12509000000E+03 0.  0.
         25    1    3    3    0    0 -0.31094843040E+02 -0.45816968575E+02  0.14930752611E+03  0.20250019587E+03  0.12509000000E+03 0.  0.
<mgrwt>
<rscale>  2 0.45251923E+03</rscale>
<asrwt>0</asrwt>
<pdfrwt beam="1">  1       21 0.44490911E-01 0.45251923E+03</pdfrwt>
<pdfrwt beam="2">  1       21 0.24884274E-01 0.45251923E+03</pdfrwt>
<totfact> 0.68647063E+04</totfact>
</mgrwt>
</event>
<event>
 7    0  0.4752811E-002  0.4763484E+03  0.7546771E-02  0.1020144E+00
         21   -1    0    0  502  501  0.00000000000E+00  0.00000000000E+00  0.21255235938E+03  0.21255235938E+03  0.00000000000E+00 0.  1.
         21   -1    0    0  501  502 -0.00000000000E+00 -0.00000000000E+00 -0.26688459753E+03  0.26688459753E+03  0.00000000000E+00 0.  1.
      99926    2    1    2    0    0  0.14210854715E-13  0.00000000000E+00 -0.54332238143E+02  0.47943695691E+03  0.47634840564E+03 0.  0.
      99925    2    3    3    0    0 -0.12673872484E+03 -0.37422009786E+02 -0.36221230757E+02  0.29657463745E+03  0.26302362410E+03 0.  0.
         25    1    4    4    0    0 -0.24364615527E+02 -0.33159955549E+02 -0.28251905914E+02  0.13468071662E+03  0.12509000000E+03 0.  0.
         25    1    4    4    0    0 -0.10237410931E+03 -0.42620542373E+01 -0.79693248425E+01  0.16189392083E+03  0.12509000000E+03 0.  0.
         25    1    3    3    0    0  0.12673872484E+03  0.37422009786E+02 -0.18111007387E+02  0.18286231946E+03  0.12509000000E+03 0.  0.
<mgrwt>
<rscale>  2 0.47634841E+03</rscale>
<asrwt>0</asrwt>
<pdfrwt beam="1">  1       21 0.31257700E-01 0.47634841E+03</pdfrwt>
<pdfrwt beam="2">  1       21 0.39247735E-01 0.47634841E+03</pdfrwt>
<totfact> 0.56531219E+04</totfact>
</mgrwt>
</event>
<event>
 7    0  0.4752811E-002  0.4494000E+03  0.7546771E-02  0.1027901E+00
         21   -1    0    0  502  501  0.00000000000E+00  0.00000000000E+00  0.76537091287E+02  0.76537091287E+02  0.00000000000E+00 0. -1.
         21   -1    0    0  501  502 -0.00000000000E+00 -0.00000000000E+00 -0.65968128148E+03  0.65968128148E+03  0.00000000000E+00 0. -1.
      99926    2    1    2    0    0  0.00000000000E+00  0.00000000000E+00 -0.58314419020E+03  0.73621837277E+03  0.44939998425E+03 0.  0.
      99925    2    3    3    0    0  0.30215065741E+02  0.40939490309E+02 -0.21293618524E+03  0.34214925815E+03  0.26293593098E+03 0.  0.
         25    1    3    3    0    0 -0.30215065741E+02 -0.40939490309E+02 -0.37020800496E+03  0.39406911462E+03  0.12509000000E+03 0.  0.
         25    1    4    4    0    0 -0.11411931066E+02  0.36810071327E+02 -0.13905207330E+03  0.19096649107E+03  0.12509000000E+03 0.  0.
         25    1    4    4    0    0  0.41626996807E+02  0.41294189812E+01 -0.73884111932E+02  0.15118276707E+03  0.12509000000E+03 0.  0.
<mgrwt>
<rscale>  2 0.44939998E+03</rscale>
<asrwt>0</asrwt>
<pdfrwt beam="1">  1       21 0.11255454E-01 0.44939998E+03</pdfrwt>
<pdfrwt beam="2">  1       21 0.97011957E-01 0.44939998E+03</pdfrwt>
<totfact> 0.53287985E+04</totfact>
</mgrwt>
</event>
<event>
 7    0  0.4752811E-002  0.4618087E+03  0.7546771E-02  0.1024258E+00
         21   -1    0    0  502  501  0.00000000000E+00  0.00000000000E+00  0.47780237872E+03  0.47780237872E+03  0.00000000000E+00 0. -1.
         21   -1    0    0  501  502 -0.00000000000E+00 -0.00000000000E+00 -0.11158761288E+03  0.11158761288E+03  0.00000000000E+00 0. -1.
      99926    2    1    2    0    0  0.00000000000E+00  0.00000000000E+00  0.36621476584E+03  0.58938999161E+03  0.46180873475E+03 0.  0.
      99925    2    3    3    0    0  0.75783817691E+01  0.10006976887E+03  0.31160080638E+03  0.41997457560E+03  0.26308209955E+03 0.  0.
         25    1    4    4    0    0  0.29770608800E+02  0.32694710796E+02  0.18948825905E+03  0.23131913384E+03  0.12509000000E+03 0.  0.
         25    1    4    4    0    0 -0.22192227031E+02  0.67375058075E+02  0.12211254732E+03  0.18865544176E+03  0.12509000000E+03 0.  0.
         25    1    3    3    0    0 -0.75783817691E+01 -0.10006976887E+03  0.54613959459E+02  0.16941541600E+03  0.12509000000E+03 0.  0.
<mgrwt>
<rscale>  2 0.46180873E+03</rscale>
<asrwt>0</asrwt>
<pdfrwt beam="1">  1       21 0.70265055E-01 0.46180873E+03</pdfrwt>
<pdfrwt beam="2">  1       21 0.16409943E-01 0.46180873E+03</pdfrwt>
<totfact> 0.56247489E+04</totfact>
</mgrwt>
</event>
<event>
 7    0  0.4752811E-002  0.4135042E+03  0.7546771E-02  0.1039201E+00
         21   -1    0    0  502  501  0.00000000000E+00  0.00000000000E+00  0.16218592903E+03  0.16218592903E+03  0.00000000000E+00 0.  1.
         21   -1    0    0  501  502 -0.00000000000E+00 -0.00000000000E+00 -0.26356432741E+03  0.26356432741E+03  0.00000000000E+00 0.  1.
      99926    2    1    2    0    0 -0.71054273576E-14 -0.41633363423E-16 -0.10137839837E+03  0.42575025644E+03  0.41350417314E+03 0.  0.
      99925    2    3    3    0    0 -0.33042053463E+02 -0.72151328935E-01 -0.12691909854E+03  0.29387297269E+03  0.26298495014E+03 0.  0.
         25    1    4    4    0    0  0.19886506321E+02  0.65750890278E+00 -0.81651116784E+02  0.15069943073E+03  0.12509000000E+03 0.  0.
         25    1    3    3    0    0  0.33042053463E+02  0.72151328935E-01  0.25540700167E+02  0.13187728374E+03  0.12509000000E+03 0.  0.
         25    1    4    4    0    0 -0.52928559784E+02 -0.72966023172E+00 -0.45267981757E+02  0.14317354196E+03  0.12509000000E+03 0.  0.
<mgrwt>
<rscale>  2 0.41350417E+03</rscale>
<asrwt>0</asrwt>
<pdfrwt beam="1">  1       21 0.23850872E-01 0.41350417E+03</pdfrwt>
<pdfrwt beam="2">  1       21 0.38759460E-01 0.41350417E+03</pdfrwt>
<totfact> 0.99927008E+04</totfact>
</mgrwt>
</event>
<event>
 7    0  0.4752811E-002  0.4395452E+03  0.7546771E-02  0.1030886E+00
         21   -1    0    0  502  501  0.00000000000E+00  0.00000000000E+00  0.43396871049E+03  0.43396871049E+03  0.00000000000E+00 0.  1.
         21   -1    0    0  501  502 -0.00000000000E+00 -0.00000000000E+00 -0.11129833732E+03  0.11129833732E+03  0.00000000000E+00 0.  1.
      99926    2    1    2    0    0  0.71054273576E-14  0.14210854715E-13  0.32267037318E+03  0.54526704781E+03  0.43954520098E+03 0.  0.
      99925    2    3    3    0    0  0.39574595188E+02  0.83497818605E+02  0.24631093695E+03  0.37201490238E+03  0.26303607288E+03 0.  0.
         25    1    4    4    0    0 -0.11142495168E+01  0.65241253414E+02  0.16147675117E+03  0.21442927031E+03  0.12509000000E+03 0.  0.
         25    1    4    4    0    0  0.40688844705E+02  0.18256565192E+02  0.84834185781E+02  0.15758563206E+03  0.12509000000E+03 0.  0.
         25    1    3    3    0    0 -0.39574595188E+02 -0.83497818605E+02  0.76359436228E+02  0.17325214543E+03  0.12509000000E+03 0.  0.
<mgrwt>
<rscale>  2 0.43954520E+03</rscale>
<asrwt>0</asrwt>
<pdfrwt beam="1">  1       21 0.63818927E-01 0.43954520E+03</pdfrwt>
<pdfrwt beam="2">  1       21 0.16367403E-01 0.43954520E+03</pdfrwt>
<totfact> 0.70402924E+04</totfact>
</mgrwt>
</event>
<event>
 7    0  0.4752811E-002  0.4569373E+03  0.7546771E-02  0.1025673E+00
         21   -1    0    0  502  501  0.00000000000E+00  0.00000000000E+00  0.24981532461E+03  0.24981532461E+03  0.00000000000E+00 0. -1.
         21   -1    0    0  501  502 -0.00000000000E+00 -0.00000000000E+00 -0.20894604718E+03  0.20894604718E+03  0.00000000000E+00 0. -1.
      99926    2    1    2    0    0  0.00000000000E+00  0.00000000000E+00  0.40869277425E+02  0.45876137179E+03  0.45693730249E+03 0.  0.
      99925    2    3    3    0    0 -0.19780793533E+02  0.11132414155E+03  0.46217849665E+02  0.29005909080E+03  0.26308523760E+03 0.  0.
         25    1    3    3    0    0  0.19780793533E+02 -0.11132414155E+03 -0.53485722403E+01  0.16870228098E+03  0.12509000000E+03 0.  0.
         25    1    4    4    0    0 -0.16357760202E+02  0.96669200392E+02  0.11388305756E+02  0.15934149564E+03  0.12509000000E+03 0.  0.
         25    1    4    4    0    0 -0.34230333301E+01  0.14654941155E+02  0.34829543909E+02  0.13071759517E+03  0.12509000000E+03 0.  0.
<mgrwt>
<rscale>  2 0.45693730E+03</rscale>
<asrwt>0</asrwt>
<pdfrwt beam="1">  1       21 0.36737548E-01 0.45693730E+03</pdfrwt>
<pdfrwt beam="2">  1       21 0.30727360E-01 0.45693730E+03</pdfrwt>
<totfact> 0.67225991E+04</totfact>
</mgrwt>
</event>
<event>
 7    0  0.4752811E-002  0.4596014E+03  0.7546771E-02  0.1024897E+00
         21   -1    0    0  502  501  0.00000000000E+00  0.00000000000E+00  0.54925762132E+03  0.54925762132E+03  0.00000000000E+00 0. -1.
         21   -1    0    0  501  502 -0.00000000000E+00 -0.00000000000E+00 -0.96144980695E+02  0.96144980695E+02  0.00000000000E+00 0. -1.
      99926    2    1    2    0    0  0.71054273576E-14  0.00000000000E+00  0.45311264063E+03  0.64540260202E+03  0.45960140730E+03 0.  0.
      99925    2    3    3    0    0  0.38155270065E+02 -0.10399334627E+03  0.22887858172E+03  0.36576200772E+03  0.26291823904E+03 0.  0.
         25    1    3    3    0    0 -0.38155270065E+02  0.10399334627E+03  0.22423405891E+03  0.27964059430E+03  0.12509000000E+03 0.  0.
         25    1    4    4    0    0  0.23934048533E+02 -0.66653948065E+02  0.16775156848E+03  0.22091555921E+03  0.12509000000E+03 0.  0.
         25    1    4    4    0    0  0.14221221532E+02 -0.37339398205E+02  0.61127013233E+02  0.14484644851E+03  0.12509000000E+03 0.  0.
<mgrwt>
<rscale>  2 0.45960141E+03</rscale>
<asrwt>0</asrwt>
<pdfrwt beam="1">  1       21 0.80773178E-01 0.45960141E+03</pdfrwt>
<pdfrwt beam="2">  1       21 0.14138968E-01 0.45960141E+03</pdfrwt>
<totfact> 0.53980388E+04</totfact>
</mgrwt>
</event>
<event>
 7    0  0.4752811E-002  0.4521714E+03  0.7546771E-02  0.1027076E+00
         21   -1    0    0  502  501  0.00000000000E+00  0.00000000000E+00  0.33418654584E+02  0.33418654584E+02  0.00000000000E+00 0. -1.
         21   -1    0    0  501  502 -0.00000000000E+00 -0.00000000000E+00 -0.15295271217E+04  0.15295271217E+04  0.00000000000E+00 0. -1.
      99926    2    1    2    0    0  0.00000000000E+00  0.00000000000E+00 -0.14961084671E+04  0.15629457763E+04  0.45217137706E+03 0.  0.
      99925    2    3    3    0    0 -0.97927260418E+02  0.51074665536E+02 -0.92790644558E+03  0.97074697928E+03  0.26294667947E+03 0.  0.
         25    1    4    4    0    0 -0.30296461365E+02 -0.12260500287E+02 -0.44100105117E+03  0.45956243392E+03  0.12509000000E+03 0.  0.
         25    1    3    3    0    0  0.97927260418E+02 -0.51074665536E+02 -0.56820202155E+03  0.59219879701E+03  0.12509000000E+03 0.  0.
         25    1    4    4    0    0 -0.67630799054E+02  0.63335165823E+02 -0.48690539441E+03  0.51118454536E+03  0.12509000000E+03 0.  0.
<mgrwt>
<rscale>  2 0.45217138E+03</rscale>
<asrwt>0</asrwt>
<pdfrwt beam="1">  1       21 0.49145087E-02 0.45217138E+03</pdfrwt>
<pdfrwt beam="2">  1       21 0.22493043E+00 0.45217138E+03</pdfrwt>
<totfact> 0.22773956E+04</totfact>
</mgrwt>
</event>
<event>
 7    0  0.4752811E-002  0.4575865E+03  0.7546771E-02  0.1025484E+00
         21   -1    0    0  502  501  0.00000000000E+00  0.00000000000E+00  0.19615198516E+03  0.19615198516E+03  0.00000000000E+00 0. -1.
         21   -1    0    0  501  502 -0.00000000000E+00 -0.00000000000E+00 -0.26686633626E+03  0.26686633626E+03  0.00000000000E+00 0. -1.
      99926    2    1    2    0    0 -0.35527136788E-14  0.14210854715E-13 -0.70714351098E+02  0.46301832142E+03  0.45758654538E+03 0.  0.
      99925    2    3    3    0    0 -0.16785267510E+02  0.91550189681E+02 -0.11305183490E+03  0.30145361899E+03  0.26349646030E+03 0.  0.
         25    1    3    3    0    0  0.16785267510E+02 -0.91550189681E+02  0.42337483799E+02  0.16156470243E+03  0.12509000000E+03 0.  0.
         25    1    4    4    0    0  0.87270285900E+01  0.46575393522E+02 -0.96822006649E+02  0.16512854805E+03  0.12509000000E+03 0.  0.
         25    1    4    4    0    0 -0.25512296100E+02  0.44974796158E+02 -0.16229828248E+02  0.13632507094E+03  0.12509000000E+03 0.  0.
<mgrwt>
<rscale>  2 0.45758655E+03</rscale>
<asrwt>0</asrwt>
<pdfrwt beam="1">  1       21 0.28845880E-01 0.45758655E+03</pdfrwt>
<pdfrwt beam="2">  1       21 0.39245049E-01 0.45758655E+03</pdfrwt>
<totfact> 0.66577242E+04</totfact>
</mgrwt>
</event>
<event>
 7    0  0.4752811E-002  0.4528618E+03  0.7546771E-02  0.1026872E+00
         21   -1    0    0  502  501  0.00000000000E+00  0.00000000000E+00  0.13292667168E+03  0.13292667168E+03  0.00000000000E+00 0.  1.
         21   -1    0    0  501  502 -0.00000000000E+00 -0.00000000000E+00 -0.38570851606E+03  0.38570851606E+03  0.00000000000E+00 0.  1.
      99926    2    1    2    0    0  0.14210854715E-13  0.00000000000E+00 -0.25278184438E+03  0.51863518774E+03  0.45286178588E+03 0.  0.
      99925    2    3    3    0    0 -0.10374019994E+03 -0.38264471229E+02 -0.14634923239E+03  0.32064122864E+03  0.26299524871E+03 0.  0.
         25    1    4    4    0    0 -0.25109738831E+02 -0.40041695200E+02 -0.95708794346E+02  0.16444305322E+03  0.12509000000E+03 0.  0.
         25    1    3    3    0    0  0.10374019994E+03  0.38264471229E+02 -0.10643261199E+03  0.19799395910E+03  0.12509000000E+03 0.  0.
         25    1    4    4    0    0 -0.78630461112E+02  0.17772239709E+01 -0.50640438040E+02  0.15619817542E+03  0.12509000000E+03 0.  0.
<mgrwt>
<rscale>  2 0.45286179E+03</rscale>
<asrwt>0</asrwt>
<pdfrwt beam="1">  1       21 0.19548040E-01 0.45286179E+03</pdfrwt>
<pdfrwt beam="2">  1       21 0.56721839E-01 0.45286179E+03</pdfrwt>
<totfact> 0.65077345E+04</totfact>
</mgrwt>
</event>
<event>
 7    0  0.4752811E-002  0.4450452E+03  0.7546771E-02  0.1029210E+00
         21   -1    0    0  502  501  0.00000000000E+00  0.00000000000E+00  0.90283046605E+03  0.90283046605E+03  0.00000000000E+00 0. -1.
         21   -1    0    0  501  502 -0.00000000000E+00 -0.00000000000E+00 -0.54845630446E+02  0.54845630446E+02  0.00000000000E+00 0. -1.
      99926    2    1    2    0    0  0.26645352591E-14  0.00000000000E+00  0.84798483560E+03  0.95767609650E+03  0.44504519365E+03 0.  0.
      99925    2    3    3    0    0  0.60732825303E+01 -0.95417698318E+02  0.45306728592E+03  0.53253047314E+03  0.26301581195E+03 0.  0.
         25    1    3    3    0    0 -0.60732825303E+01  0.95417698318E+02  0.39491754968E+03  0.42514562336E+03  0.12509000000E+03 0.  0.
         25    1    4    4    0    0  0.29365750063E+02 -0.39256699727E+02  0.27948178876E+03  0.31009839422E+03  0.12509000000E+03 0.  0.
         25    1    4    4    0    0 -0.23292467533E+02 -0.56160998592E+02  0.17358549716E+03  0.22243207892E+03  0.12509000000E+03 0.  0.
<mgrwt>
<rscale>  2 0.44504519E+03</rscale>
<asrwt>0</asrwt>
<pdfrwt beam="1">  1       21 0.13276918E+00 0.44504519E+03</pdfrwt>
<pdfrwt beam="2">  1       21 0.80655344E-02 0.44504519E+03</pdfrwt>
<totfact> 0.44170729E+04</totfact>
</mgrwt>
</event>
<event>
 7    0  0.4752811E-002  0.4553976E+03  0.7546771E-02  0.1026125E+00
         21   -1    0    0  502  501  0.00000000000E+00  0.00000000000E+00  0.31766137234E+02  0.31766137234E+02  0.00000000000E+00 0. -1.
         21   -1    0    0  501  502 -0.00000000000E+00 -0.00000000000E+00 -0.16321386477E+04  0.16321386477E+04  0.00000000000E+00 0. -1.
      99926    2    1    2    0    0  0.00000000000E+00  0.00000000000E+00 -0.16003725104E+04  0.16639047849E+04  0.45539758571E+03 0.  0.
      99925    2    3    3    0    0  0.72739164054E+02 -0.19731536946E+02 -0.69819589938E+03  0.74998440261E+03  0.26328458122E+03 0.  0.
         25    1    4    4    0    0  0.21794458340E+02  0.89223235662E+01 -0.24314786818E+03  0.27445036012E+03  0.12509000000E+03 0.  0.
         25    1    4    4    0    0  0.50944705714E+02 -0.28653860512E+02 -0.45504803120E+03  0.47553404249E+03  0.12509000000E+03 0.  0.
         25    1    3    3    0    0 -0.72739164054E+02  0.19731536946E+02 -0.90217661107E+03  0.91392038231E+03  0.12509000000E+03 0.  0.
<mgrwt>
<rscale>  2 0.45539759E+03</rscale>
<asrwt>0</asrwt>
<pdfrwt beam="1">  1       21 0.46714901E-02 0.45539759E+03</pdfrwt>
<pdfrwt beam="2">  1       21 0.24002042E+00 0.45539759E+03</pdfrwt>
<totfact> 0.19961789E+04</totfact>
</mgrwt>
</event>
<event>
 7    0  0.4752811E-002  0.4422512E+03  0.7546771E-02  0.1030058E+00
         21   -1    0    0  502  501  0.00000000000E+00  0.00000000000E+00  0.99976675138E+03  0.99976675138E+03  0.00000000000E+00 0.  1.
         21   -1    0    0  501  502 -0.00000000000E+00 -0.00000000000E+00 -0.48907932989E+02  0.48907932989E+02  0.00000000000E+00 0.  1.
      99926    2    1    2    0    0  0.00000000000E+00 -0.14210854715E-13  0.95085881839E+03  0.10486746844E+04  0.44225117425E+03 0.  0.
      99925    2    3    3    0    0  0.26074057705E+02 -0.94841067907E+02  0.65707637257E+03  0.71456344808E+03  0.26301497540E+03 0.  0.
         25    1    4    4    0    0  0.87850067192E+01 -0.58820949522E+02  0.43552759806E+03  0.45702174698E+03  0.12509000000E+03 0.  0.
         25    1    3    3    0    0 -0.26074057705E+02  0.94841067907E+02  0.29378244581E+03  0.33411123629E+03  0.12509000000E+03 0.  0.
         25    1    4    4    0    0  0.17289050986E+02 -0.36020118385E+02  0.22154877452E+03  0.25754170110E+03  0.12509000000E+03 0.  0.
<mgrwt>
<rscale>  2 0.44225117E+03</rscale>
<asrwt>0</asrwt>
<pdfrwt beam="1">  1       21 0.14702451E+00 0.44225117E+03</pdfrwt>
<pdfrwt beam="2">  1       21 0.71923437E-02 0.44225117E+03</pdfrwt>
<totfact> 0.41283650E+04</totfact>
</mgrwt>
</event>
<event>
 7    0  0.4752811E-002  0.4631261E+03  0.7546771E-02  0.1023878E+00
         21   -1    0    0  502  501  0.00000000000E+00  0.00000000000E+00  0.20489514120E+03  0.20489514120E+03  0.00000000000E+00 0.  1.
         21   -1    0    0  501  502 -0.00000000000E+00 -0.00000000000E+00 -0.26170192195E+03  0.26170192195E+03  0.00000000000E+00 0.  1.
      99926    2    1    2    0    0  0.00000000000E+00  0.11379786002E-14 -0.56806780746E+02  0.46659706315E+03  0.46312612645E+03 0.  0.
      99925    2    3    3    0    0  0.12043495503E+03 -0.15626537141E+00 -0.41055196753E+02  0.29224046503E+03  0.26308621668E+03 0.  0.
         25    1    4    4    0    0  0.78567393535E+02  0.28814782437E+02 -0.45137555212E+02  0.15712426294E+03  0.12509000000E+03 0.  0.
         25    1    4    4    0    0  0.41867561492E+02 -0.28971047808E+02  0.40823584587E+01  0.13511620209E+03  0.12509000000E+03 0.  0.
         25    1    3    3    0    0 -0.12043495503E+03  0.15626537141E+00 -0.15751583993E+02  0.17435659812E+03  0.12509000000E+03 0.  0.
<mgrwt>
<rscale>  2 0.46312613E+03</rscale>
<asrwt>0</asrwt>
<pdfrwt beam="1">  1       21 0.30131638E-01 0.46312613E+03</pdfrwt>
<pdfrwt beam="2">  1       21 0.38485577E-01 0.46312613E+03</pdfrwt>
<totfact> 0.63487252E+04</totfact>
</mgrwt>
</event>
<event>
 7    0  0.4752811E-002  0.4532014E+03  0.7546771E-02  0.1026772E+00
         21   -1    0    0  502  501  0.00000000000E+00  0.00000000000E+00  0.75090804897E+03  0.75090804897E+03  0.00000000000E+00 0.  1.
         21   -1    0    0  501  502 -0.00000000000E+00 -0.00000000000E+00 -0.68381053918E+02  0.68381053918E+02  0.00000000000E+00 0.  1.
      99926    2    1    2    0    0  0.00000000000E+00  0.00000000000E+00  0.68252699506E+03  0.81928910289E+03  0.45320142888E+03 0.  0.
      99925    2    3    3    0    0 -0.94684328633E+01 -0.55634017111E+02  0.25633683134E+03  0.37154993906E+03  0.26297526696E+03 0.  0.
         25    1    4    4    0    0 -0.15586559225E+02 -0.77031633309E+01  0.78059924136E+02  0.14846932144E+03  0.12509000000E+03 0.  0.
         25    1    4    4    0    0  0.61181263621E+01 -0.47930853781E+02  0.17827690721E+03  0.22308061762E+03  0.12509000000E+03 0.  0.
         25    1    3    3    0    0  0.94684328633E+01  0.55634017111E+02  0.42619016371E+03  0.44773916383E+03  0.12509000000E+03 0.  0.
<mgrwt>
<rscale>  2 0.45320143E+03</rscale>
<asrwt>0</asrwt>
<pdfrwt beam="1">  1       21 0.11042765E+00 0.45320143E+03</pdfrwt>
<pdfrwt beam="2">  1       21 0.10056038E-01 0.45320143E+03</pdfrwt>
<totfact> 0.47512940E+04</totfact>
</mgrwt>
</event>
<event>
 7    0  0.4752811E-002  0.4501395E+03  0.7546771E-02  0.1027680E+00
         21   -1    0    0  502  501  0.00000000000E+00  0.00000000000E+00  0.33856305113E+03  0.33856305113E+03  0.00000000000E+00 0. -1.
         21   -1    0    0  501  502 -0.00000000000E+00 -0.00000000000E+00 -0.14962172903E+03  0.14962172903E+03  0.00000000000E+00 0. -1.
      99926    2    1    2    0    0  0.00000000000E+00  0.00000000000E+00  0.18894132211E+03  0.48818478016E+03  0.45013948547E+03 0.  0.
      99925    2    3    3    0    0  0.14061824881E+02 -0.10523802922E+03  0.13922610464E+03  0.31674415294E+03  0.26395107974E+03 0.  0.
         25    1    4    4    0    0  0.25949535549E+02 -0.28205299817E+02  0.32594497745E+02  0.13482887938E+03  0.12509000000E+03 0.  0.
         25    1    4    4    0    0 -0.11887710668E+02 -0.77032729402E+02  0.10663160690E+03  0.18191527356E+03  0.12509000000E+03 0.  0.
         25    1    3    3    0    0 -0.14061824881E+02  0.10523802922E+03  0.49715217466E+02  0.17144062722E+03  0.12509000000E+03 0.  0.
<mgrwt>
<rscale>  2 0.45013949E+03</rscale>
<asrwt>0</asrwt>
<pdfrwt beam="1">  1       21 0.49788684E-01 0.45013949E+03</pdfrwt>
<pdfrwt beam="2">  1       21 0.22003195E-01 0.45013949E+03</pdfrwt>
<totfact> 0.68722663E+04</totfact>
</mgrwt>
</event>
<event>
 7    0  0.4752811E-002  0.4387450E+03  0.7546771E-02  0.1031133E+00
         21   -1    0    0  502  501  0.00000000000E+00  0.00000000000E+00  0.52647360813E+03  0.52647360813E+03  0.00000000000E+00 0.  1.
         21   -1    0    0  501  502 -0.00000000000E+00 -0.00000000000E+00 -0.91408734674E+02  0.91408734674E+02  0.00000000000E+00 0.  1.
      99926    2    1    2    0    0  0.00000000000E+00  0.00000000000E+00  0.43506487345E+03  0.61788234280E+03  0.43874496628E+03 0.  0.
      99925    2    3    3    0    0  0.49106729410E+02  0.82562873861E+02  0.29772789161E+03  0.40874828605E+03  0.26306874556E+03 0.  0.
         25    1    4    4    0    0  0.46716007398E+02  0.70045312912E+02  0.19425649960E+03  0.24591020098E+03  0.12509000000E+03 0.  0.
         25    1    3    3    0    0 -0.49106729410E+02 -0.82562873861E+02  0.13733698184E+03  0.20913405676E+03  0.12509000000E+03 0.  0.
         25    1    4    4    0    0  0.23907220121E+01  0.12517560950E+02  0.10347139201E+03  0.16283808507E+03  0.12509000000E+03 0.  0.
<mgrwt>
<rscale>  2 0.43874497E+03</rscale>
<asrwt>0</asrwt>
<pdfrwt beam="1">  1       21 0.77422588E-01 0.43874497E+03</pdfrwt>
<pdfrwt beam="2">  1       21 0.13442461E-01 0.43874497E+03</pdfrwt>
<totfact> 0.65615962E+04</totfact>
</mgrwt>
</event>
<event>
 7    0  0.4752811E-002  0.4580346E+03  0.7546771E-02  0.1025353E+00
         21   -1    0    0  502  501  0.00000000000E+00  0.00000000000E+00  0.76513984973E+03  0.76513984973E+03  0.00000000000E+00 0. -1.
         21   -1    0    0  501  502 -0.00000000000E+00 -0.00000000000E+00 -0.68548166784E+02  0.68548166784E+02  0.00000000000E+00 0. -1.
      99926    2    1    2    0    0  0.00000000000E+00 -0.44408920985E-15  0.69659168295E+03  0.83368801652E+03  0.45803464512E+03 0.  0.
      99925    2    3    3    0    0  0.11592331260E+03 -0.23237983894E+01  0.43479768063E+03  0.52123446446E+03  0.26304510909E+03 0.  0.
         25    1    3    3    0    0 -0.11592331260E+03  0.23237983894E+01  0.26179400232E+03  0.31245355206E+03  0.12509000000E+03 0.  0.
         25    1    4    4    0    0  0.61350847640E+02  0.48000722122E+00  0.29283774758E+03  0.32429247820E+03  0.12509000000E+03 0.  0.
         25    1    4    4    0    0  0.54572464964E+02 -0.28038056106E+01  0.14195993305E+03  0.19694198626E+03  0.12509000000E+03 0.  0.
<mgrwt>
<rscale>  2 0.45803465E+03</rscale>
<asrwt>0</asrwt>
<pdfrwt beam="1">  1       21 0.11252056E+00 0.45803465E+03</pdfrwt>
<pdfrwt beam="2">  1       21 0.10080613E-01 0.45803465E+03</pdfrwt>
<totfact> 0.45094815E+04</totfact>
</mgrwt>
</event>
<event>
 7    0  0.4752811E-002  0.4937597E+03  0.7546771E-02  0.1015421E+00
         21   -1    0    0  502  501  0.00000000000E+00  0.00000000000E+00  0.23999684038E+03  0.23999684038E+03  0.00000000000E+00 0.  1.
         21   -1    0    0  501  502 -0.00000000000E+00 -0.00000000000E+00 -0.25396023451E+03  0.25396023451E+03  0.00000000000E+00 0.  1.
      99926    2    1    2    0    0  0.00000000000E+00  0.53290705182E-14 -0.13963394131E+02  0.49395707489E+03  0.49375967379E+03 0.  0.
      99925    2    3    3    0    0  0.14076364550E+03  0.66015037688E+01 -0.48699477575E+02  0.30235308918E+03  0.26303567757E+03 0.  0.
         25    1    3    3    0    0 -0.14076364550E+03 -0.66015037688E+01  0.34736083444E+02  0.19160398571E+03  0.12509000000E+03 0.  0.
         25    1    4    4    0    0  0.82099362921E+02  0.39550775356E+02 -0.97470896627E+01  0.15507121938E+03  0.12509000000E+03 0.  0.
         25    1    4    4    0    0  0.58664282575E+02 -0.32949271588E+02 -0.38952387913E+02  0.14728186980E+03  0.12509000000E+03 0.  0.
<mgrwt>
<rscale>  2 0.49375967E+03</rscale>
<asrwt>0</asrwt>
<pdfrwt beam="1">  1       21 0.35293653E-01 0.49375967E+03</pdfrwt>
<pdfrwt beam="2">  1       21 0.37347093E-01 0.49375967E+03</pdfrwt>
<totfact> 0.48838012E+04</totfact>
</mgrwt>
</event>
<event>
 7    0  0.4752811E-002  0.4575358E+03  0.7546771E-02  0.1025498E+00
         21   -1    0    0  502  501  0.00000000000E+00  0.00000000000E+00  0.30429382496E+02  0.30429382496E+02  0.00000000000E+00 0.  1.
         21   -1    0    0  501  502 -0.00000000000E+00 -0.00000000000E+00 -0.17198759541E+04  0.17198759541E+04  0.00000000000E+00 0.  1.
      99926    2    1    2    0    0  0.00000000000E+00  0.00000000000E+00 -0.16894465716E+04  0.17503053366E+04  0.45753584889E+03 0.  0.
      99925    2    3    3    0    0 -0.52963350068E+01  0.76288122844E+02 -0.13919125542E+04  0.14186098008E+04  0.26303094790E+03 0.  0.
         25    1    3    3    0    0  0.52963350068E+01 -0.76288122844E+02 -0.29753401741E+03  0.33169553580E+03  0.12509000000E+03 0.  0.
         25    1    4    4    0    0  0.17907416059E+02  0.16113542638E+01 -0.63267722267E+03  0.64517536237E+03  0.12509000000E+03 0.  0.
         25    1    4    4    0    0 -0.23203751066E+02  0.74676768580E+02 -0.75923533154E+03  0.77343443846E+03  0.12509000000E+03 0.  0.
<mgrwt>
<rscale>  2 0.45753585E+03</rscale>
<asrwt>0</asrwt>
<pdfrwt beam="1">  1       21 0.44749090E-02 0.45753585E+03</pdfrwt>
<pdfrwt beam="2">  1       21 0.25292295E+00 0.45753585E+03</pdfrwt>
<totfact> 0.17879580E+04</totfact>
</mgrwt>
</event>
<event>
 7    0  0.4752811E-002  0.4533659E+03  0.7546771E-02  0.1026723E+00
         21   -1    0    0  502  501  0.00000000000E+00  0.00000000000E+00  0.10209852768E+03  0.10209852768E+03  0.00000000000E+00 0.  1.
         21   -1    0    0  501  502 -0.00000000000E+00 -0.00000000000E+00 -0.50328987791E+03  0.50328987791E+03  0.00000000000E+00 0.  1.
      99926    2    1    2    0    0  0.00000000000E+00  0.00000000000E+00 -0.40119135023E+03  0.60538840559E+03  0.45336588107E+03 0.  0.
      99925    2    3    3    0    0 -0.98658724403E+02  0.46419423527E+02 -0.22076528635E+03  0.36025705425E+03  0.26298198931E+03 0.  0.
         25    1    3    3    0    0  0.98658724403E+02 -0.46419423527E+02 -0.18042606388E+03  0.24513135134E+03  0.12509000000E+03 0.  0.
         25    1    4    4    0    0 -0.45038916545E+02  0.63597286226E+02 -0.11982369168E+03  0.18994300199E+03  0.12509000000E+03 0.  0.
         25    1    4    4    0    0 -0.53619807859E+02 -0.17177862699E+02 -0.10094159468E+03  0.17031405226E+03  0.12509000000E+03 0.  0.
<mgrwt>
<rscale>  2 0.45336588E+03</rscale>
<asrwt>0</asrwt>
<pdfrwt beam="1">  1       21 0.15014489E-01 0.45336588E+03</pdfrwt>
<pdfrwt beam="2">  1       21 0.74013217E-01 0.45336588E+03</pdfrwt>
<totfact> 0.59107171E+04</totfact>
</mgrwt>
</event>
<event>
 7    0  0.4752811E-002  0.4587665E+03  0.7546771E-02  0.1025140E+00
         21   -1    0    0  502  501  0.00000000000E+00  0.00000000000E+00  0.36778590845E+03  0.36778590845E+03  0.00000000000E+00 0.  1.
         21   -1    0    0  501  502 -0.00000000000E+00 -0.00000000000E+00 -0.14306334403E+03  0.14306334403E+03  0.00000000000E+00 0.  1.
      99926    2    1    2    0    0  0.00000000000E+00 -0.71054273576E-14  0.22472256442E+03  0.51084925248E+03  0.45876652864E+03 0.  0.
      99925    2    3    3    0    0  0.80627725134E+02 -0.59788095642E+02  0.20709856660E+03  0.34950006643E+03  0.26303048057E+03 0.  0.
         25    1    3    3    0    0 -0.80627725134E+02  0.59788095642E+02  0.17623997823E+02  0.16134918605E+03  0.12509000000E+03 0.  0.
         25    1    4    4    0    0  0.41044246840E+02 -0.55832652487E+02  0.68339485668E+02  0.15849198303E+03  0.12509000000E+03 0.  0.
         25    1    4    4    0    0  0.39583478294E+02 -0.39554431547E+01  0.13875908093E+03  0.19100808340E+03  0.12509000000E+03 0.  0.
<mgrwt>
<rscale>  2 0.45876653E+03</rscale>
<asrwt>0</asrwt>
<pdfrwt beam="1">  1       21 0.54086163E-01 0.45876653E+03</pdfrwt>
<pdfrwt beam="2">  1       21 0.21038727E-01 0.45876653E+03</pdfrwt>
<totfact> 0.62621972E+04</totfact>
</mgrwt>
</event>
<event>
 6    0  0.4752811E-002  0.4501972E+03  0.7546771E-02  0.1027663E+00
         21   -1    0    0  502  501  0.00000000000E+00  0.00000000000E+00  0.52635048632E+02  0.52635048632E+02  0.00000000000E+00 0.  1.
         21   -1    0    0  501  502 -0.00000000000E+00 -0.00000000000E+00 -0.96265479956E+03  0.96265479956E+03  0.00000000000E+00 0.  1.
      99926    2    1    2    0    0 -0.14210854715E-13  0.00000000000E+00 -0.91001975093E+03  0.10152898482E+04  0.45019721097E+03 0.  0.
         25    1    3    3    0    0  0.78841557683E+02  0.68952732451E+02 -0.28582994631E+03  0.32911508145E+03  0.12509000000E+03 0.  0.
         25    1    3    3    0    0 -0.80931897490E+02 -0.40100971721E+02 -0.29677032403E+03  0.33448197752E+03  0.12509000000E+03 0.  0.
         25    1    3    3    0    0  0.20903398072E+01 -0.28851760730E+02 -0.32741948060E+03  0.35169278922E+03  0.12509000000E+03 0.  0.
<mgrwt>
<rscale>  2 0.45019721E+03</rscale>
<asrwt>0</asrwt>
<pdfrwt beam="1">  1       21 0.77404491E-02 0.45019721E+03</pdfrwt>
<pdfrwt beam="2">  1       21 0.14156687E+00 0.45019721E+03</pdfrwt>
<totfact> 0.40058583E+04</totfact>
</mgrwt>
</event>
<event>
 7    0  0.4752811E-002  0.4566728E+03  0.7546771E-02  0.1025751E+00
         21   -1    0    0  502  501  0.00000000000E+00  0.00000000000E+00  0.33724045902E+03  0.33724045902E+03  0.00000000000E+00 0.  1.
         21   -1    0    0  501  502 -0.00000000000E+00 -0.00000000000E+00 -0.15460039942E+03  0.15460039942E+03  0.00000000000E+00 0.  1.
      99926    2    1    2    0    0  0.00000000000E+00  0.00000000000E+00  0.18264005960E+03  0.49184085844E+03  0.45667279168E+03 0.  0.
      99925    2    3    3    0    0  0.82141348312E+02  0.45897512815E+02  0.18570821542E+03  0.33528190959E+03  0.26281673242E+03 0.  0.
         25    1    3    3    0    0 -0.82141348312E+02 -0.45897512815E+02 -0.30681558239E+01  0.15655894885E+03  0.12509000000E+03 0.  0.
         25    1    4    4    0    0  0.94820742189E+01  0.35983552520E+01  0.10869629836E+03  0.16602786293E+03  0.12509000000E+03 0.  0.
         25    1    4    4    0    0  0.72659274093E+02  0.42299157563E+02  0.77011917068E+02  0.16925404667E+03  0.12509000000E+03 0.  0.
<mgrwt>
<rscale>  2 0.45667279E+03</rscale>
<asrwt>0</asrwt>
<pdfrwt beam="1">  1       21 0.49594185E-01 0.45667279E+03</pdfrwt>
<pdfrwt beam="2">  1       21 0.22735353E-01 0.45667279E+03</pdfrwt>
<totfact> 0.64980526E+04</totfact>
</mgrwt>
</event>
<event>
 7    0  0.4752811E-002  0.4444359E+03  0.7546771E-02  0.1029394E+00
         21   -1    0    0  502  501  0.00000000000E+00  0.00000000000E+00  0.34607325645E+03  0.34607325645E+03  0.00000000000E+00 0. -1.
         21   -1    0    0  501  502 -0.00000000000E+00 -0.00000000000E+00 -0.14268889637E+03  0.14268889637E+03  0.00000000000E+00 0. -1.
      99926    2    1    2    0    0  0.00000000000E+00  0.14210854715E-13  0.20338436008E+03  0.48876215282E+03  0.44443587176E+03 0.  0.
      99925    2    3    3    0    0  0.47512659525E+02  0.86892560036E+02  0.15913670654E+03  0.32319303508E+03  0.26328972018E+03 0.  0.
         25    1    3    3    0    0 -0.47512659525E+02 -0.86892560036E+02  0.44247653536E+02  0.16556911774E+03  0.12509000000E+03 0.  0.
         25    1    4    4    0    0  0.40405722422E+01  0.80309666623E+02  0.84578247294E+02  0.17107588022E+03  0.12509000000E+03 0.  0.
         25    1    4    4    0    0  0.43472087283E+02  0.65828934129E+01  0.74558459249E+02  0.15211715486E+03  0.12509000000E+03 0.  0.
<mgrwt>
<rscale>  2 0.44443587E+03</rscale>
<asrwt>0</asrwt>
<pdfrwt beam="1">  1       21 0.50893126E-01 0.44443587E+03</pdfrwt>
<pdfrwt beam="2">  1       21 0.20983661E-01 0.44443587E+03</pdfrwt>
<totfact> 0.71911777E+04</totfact>
</mgrwt>
</event>
<event>
 7    0  0.4752811E-002  0.4654129E+03  0.7546771E-02  0.1023223E+00
         21   -1    0    0  502  501  0.00000000000E+00  0.00000000000E+00  0.28112372170E+03  0.28112372170E+03  0.00000000000E+00 0. -1.
         21   -1    0    0  501  502 -0.00000000000E+00 -0.00000000000E+00 -0.19262800020E+03  0.19262800020E+03  0.00000000000E+00 0. -1.
      99926    2    1    2    0    0  0.14210854715E-13 -0.35527136788E-14  0.88495721500E+02  0.47375172191E+03  0.46541293631E+03 0.  0.
      99925    2    3    3    0    0 -0.93503511748E+02  0.22554898904E+02 -0.22291878524E+02  0.28094863430E+03  0.26302771164E+03 0.  0.
         25    1    4    4    0    0 -0.72218775460E+02 -0.14744219853E+02  0.74763428745E+01  0.14538344937E+03  0.12509000000E+03 0.  0.
         25    1    3    3    0    0  0.93503511748E+02 -0.22554898904E+02  0.11078760002E+03  0.19280308761E+03  0.12509000000E+03 0.  0.
         25    1    4    4    0    0 -0.21284736288E+02  0.37299118757E+02 -0.29768221399E+02  0.13556518493E+03  0.12509000000E+03 0.  0.
<mgrwt>
<rscale>  2 0.46541294E+03</rscale>
<asrwt>0</asrwt>
<pdfrwt beam="1">  1       21 0.41341724E-01 0.46541294E+03</pdfrwt>
<pdfrwt beam="2">  1       21 0.28327647E-01 0.46541294E+03</pdfrwt>
<totfact> 0.61882297E+04</totfact>
</mgrwt>
</event>
<event>
 7    0  0.4752811E-002  0.4462413E+03  0.7546771E-02  0.1028849E+00
         21   -1    0    0  502  501  0.00000000000E+00  0.00000000000E+00  0.21986488354E+03  0.21986488354E+03  0.00000000000E+00 0.  1.
         21   -1    0    0  501  502 -0.00000000000E+00 -0.00000000000E+00 -0.22642466998E+03  0.22642466998E+03  0.00000000000E+00 0.  1.
      99926    2    1    2    0    0  0.71054273576E-14 -0.35527136788E-14 -0.65597864422E+01  0.44628955352E+03  0.44624134141E+03 0.  0.
      99925    2    3    3    0    0 -0.52509513121E+02  0.29787163407E+02  0.81437759387E+02  0.28186449386E+03  0.26300372654E+03 0.  0.
         25    1    3    3    0    0  0.52509513121E+02 -0.29787163407E+02 -0.87997545830E+02  0.16442505966E+03  0.12509000000E+03 0.  0.
         25    1    4    4    0    0 -0.55819701483E+02  0.29135170388E+02  0.16879024063E+02  0.14105710468E+03  0.12509000000E+03 0.  0.
         25    1    4    4    0    0  0.33101883625E+01  0.65199301906E+00  0.64558735324E+02  0.14080738918E+03  0.12509000000E+03 0.  0.
<mgrwt>
<rscale>  2 0.44624134E+03</rscale>
<asrwt>0</asrwt>
<pdfrwt beam="1">  1       21 0.32333071E-01 0.44624134E+03</pdfrwt>
<pdfrwt beam="2">  1       21 0.33297745E-01 0.44624134E+03</pdfrwt>
<totfact> 0.74243070E+04</totfact>
</mgrwt>
</event>
<event>
 7    0  0.4752811E-002  0.4580983E+03  0.7546771E-02  0.1025334E+00
         21   -1    0    0  502  501  0.00000000000E+00  0.00000000000E+00  0.15659698068E+03  0.15659698068E+03  0.00000000000E+00 0. -1.
         21   -1    0    0  501  502 -0.00000000000E+00 -0.00000000000E+00 -0.33502248789E+03  0.33502248789E+03  0.00000000000E+00 0. -1.
      99926    2    1    2    0    0  0.71054273576E-14  0.14210854715E-13 -0.17842550721E+03  0.49161946857E+03  0.45809828667E+03 0.  0.
      99925    2    3    3    0    0 -0.40542823385E+02 -0.99182069044E+02 -0.15963384358E+03  0.32584420482E+03  0.26307922467E+03 0.  0.
         25    1    4    4    0    0 -0.56892348007E+02 -0.40234492219E+02 -0.63508073352E+02  0.15664079005E+03  0.12509000000E+03 0.  0.
         25    1    3    3    0    0  0.40542823385E+02  0.99182069044E+02 -0.18791663623E+02  0.16577526374E+03  0.12509000000E+03 0.  0.
         25    1    4    4    0    0  0.16349524622E+02 -0.58947576825E+02 -0.96125770233E+02  0.16920341478E+03  0.12509000000E+03 0.  0.
<mgrwt>
<rscale>  2 0.45809829E+03</rscale>
<asrwt>0</asrwt>
<pdfrwt beam="1">  1       21 0.23028968E-01 0.45809829E+03</pdfrwt>
<pdfrwt beam="2">  1       21 0.49268012E-01 0.45809829E+03</pdfrwt>
<totfact> 0.64268158E+04</totfact>
</mgrwt>
</event>
<event>
 7    0  0.4752811E-002  0.4595546E+03  0.7546771E-02  0.1024910E+00
         21   -1    0    0  502  501  0.00000000000E+00  0.00000000000E+00  0.14968536149E+03  0.14968536149E+03  0.00000000000E+00 0. -1.
         21   -1    0    0  501  502 -0.00000000000E+00 -0.00000000000E+00 -0.35272398607E+03  0.35272398607E+03  0.00000000000E+00 0. -1.
      99926    2    1    2    0    0  0.00000000000E+00  0.00000000000E+00 -0.20303862457E+03  0.50240934756E+03  0.45955464251E+03 0.  0.
      99925    2    3    3    0    0  0.10932175236E+03  0.34504594911E+02 -0.14870638852E+03  0.32424842990E+03  0.26435136031E+03 0.  0.
         25    1    4    4    0    0  0.50109966912E+02  0.29557335846E+02 -0.28500037838E+02  0.14087017123E+03  0.12509000000E+03 0.  0.
         25    1    3    3    0    0 -0.10932175236E+03 -0.34504594911E+02 -0.54332236051E+02  0.17816091766E+03  0.12509000000E+03 0.  0.
         25    1    4    4    0    0  0.59211785443E+02  0.49472590645E+01 -0.12020635069E+03  0.18337825867E+03  0.12509000000E+03 0.  0.
<mgrwt>
<rscale>  2 0.45955464E+03</rscale>
<asrwt>0</asrwt>
<pdfrwt beam="1">  1       21 0.22012553E-01 0.45955464E+03</pdfrwt>
<pdfrwt beam="2">  1       21 0.51871174E-01 0.45955464E+03</pdfrwt>
<totfact> 0.62800282E+04</totfact>
</mgrwt>
</event>
<event>
 7    0  0.4752811E-002  0.4669512E+03  0.7546771E-02  0.1022784E+00
         21   -1    0    0  502  501  0.00000000000E+00  0.00000000000E+00  0.75393225525E+02  0.75393225525E+02  0.00000000000E+00 0. -1.
         21   -1    0    0  501  502 -0.00000000000E+00 -0.00000000000E+00 -0.72302062851E+03  0.72302062851E+03  0.00000000000E+00 0. -1.
      99926    2    1    2    0    0 -0.35527136788E-14  0.00000000000E+00 -0.64762740298E+03  0.79841385403E+03  0.46695120646E+03 0.  0.
      99925    2    3    3    0    0  0.49835945789E+01  0.11006492114E+03 -0.30589630461E+03  0.41819447686E+03  0.26301130816E+03 0.  0.
         25    1    4    4    0    0 -0.23474704809E+02  0.21461758607E+02 -0.13125125959E+03  0.18408169407E+03  0.12509000000E+03 0.  0.
         25    1    4    4    0    0  0.28458299388E+02  0.88603162535E+02 -0.17464504501E+03  0.23411278278E+03  0.12509000000E+03 0.  0.
         25    1    3    3    0    0 -0.49835945789E+01 -0.11006492114E+03 -0.34173109838E+03  0.38021937718E+03  0.12509000000E+03 0.  0.
<mgrwt>
<rscale>  2 0.46695121E+03</rscale>
<asrwt>0</asrwt>
<pdfrwt beam="1">  1       21 0.11087240E-01 0.46695121E+03</pdfrwt>
<pdfrwt beam="2">  1       21 0.10632655E+00 0.46695121E+03</pdfrwt>
<totfact> 0.43605679E+04</totfact>
</mgrwt>
</event>
<event>
 7    0  0.4752811E-002  0.4411973E+03  0.7546771E-02  0.1030380E+00
         21   -1    0    0  502  501  0.00000000000E+00  0.00000000000E+00  0.85008062380E+02  0.85008062380E+02  0.00000000000E+00 0. -1.
         21   -1    0    0  501  502 -0.00000000000E+00 -0.00000000000E+00 -0.57246058884E+03  0.57246058884E+03  0.00000000000E+00 0. -1.
      99926    2    1    2    0    0  0.00000000000E+00  0.00000000000E+00 -0.48745252646E+03  0.65746865122E+03  0.44119730483E+03 0.  0.
      99925    2    3    3    0    0 -0.68978846006E+02 -0.70552674781E+02 -0.29085689067E+03  0.40442100111E+03  0.26310236444E+03 0.  0.
         25    1    4    4    0    0  0.10392649359E+01 -0.18012937861E+02 -0.15549115368E+03  0.20037602894E+03  0.12509000000E+03 0.  0.
         25    1    3    3    0    0  0.68978846006E+02  0.70552674781E+02 -0.19659563579E+03  0.25304765011E+03  0.12509000000E+03 0.  0.
         25    1    4    4    0    0 -0.70018110942E+02 -0.52539736920E+02 -0.13536573699E+03  0.20404497216E+03  0.12509000000E+03 0.  0.
<mgrwt>
<rscale>  2 0.44119730E+03</rscale>
<asrwt>0</asrwt>
<pdfrwt beam="1">  1       21 0.12501186E-01 0.44119730E+03</pdfrwt>
<pdfrwt beam="2">  1       21 0.84185380E-01 0.44119730E+03</pdfrwt>
<totfact> 0.61719014E+04</totfact>
</mgrwt>
</event>
<event>
 7    0  0.4752811E-002  0.4537583E+03  0.7546771E-02  0.1026607E+00
         21   -1    0    0  502  501  0.00000000000E+00  0.00000000000E+00  0.36510096485E+03  0.36510096485E+03  0.00000000000E+00 0.  1.
         21   -1    0    0  501  502 -0.00000000000E+00 -0.00000000000E+00 -0.14098604354E+03  0.14098604354E+03  0.00000000000E+00 0.  1.
      99926    2    1    2    0    0  0.14210854715E-13  0.35527136788E-14  0.22411492131E+03  0.50608700838E+03  0.45375826395E+03 0.  0.
      99925    2    3    3    0    0  0.10963889080E+03  0.20354315401E+02  0.13918485357E+03  0.31821575183E+03  0.26354099627E+03 0.  0.
         25    1    3    3    0    0 -0.10963889080E+03 -0.20354315401E+02  0.84930067740E+02  0.18787125655E+03  0.12509000000E+03 0.  0.
         25    1    4    4    0    0  0.24205888312E+02  0.20408106596E+01  0.30918804787E+02  0.13112425606E+03  0.12509000000E+03 0.  0.
         25    1    4    4    0    0  0.85433002493E+02  0.18313504742E+02  0.10826604878E+03  0.18709149577E+03  0.12509000000E+03 0.  0.
<mgrwt>
<rscale>  2 0.45375826E+03</rscale>
<asrwt>0</asrwt>
<pdfrwt beam="1">  1       21 0.53691318E-01 0.45375826E+03</pdfrwt>
<pdfrwt beam="2">  1       21 0.20733242E-01 0.45375826E+03</pdfrwt>
<totfact> 0.65488161E+04</totfact>
</mgrwt>
</event>
<event>
 7    0  0.4752811E-002  0.4513380E+03  0.7546771E-02  0.1027324E+00
         21   -1    0    0  502  501  0.00000000000E+00  0.00000000000E+00  0.21375652442E+04  0.21375652442E+04  0.00000000000E+00 0. -1.
         21   -1    0    0  501  502 -0.00000000000E+00 -0.00000000000E+00 -0.23824529921E+02  0.23824529921E+02  0.00000000000E+00 0. -1.
      99926    2    1    2    0    0  0.71054273576E-14  0.71054273576E-14  0.21137407143E+04  0.21613897741E+04  0.45133795373E+03 0.  0.
      99925    2    3    3    0    0  0.59298960176E+02 -0.43538297462E+02  0.17245908436E+04  0.17460620963E+04  0.26288270434E+03 0.  0.
         25    1    4    4    0    0  0.62060495530E+02 -0.46240850150E+02  0.86755171529E+03  0.87993363848E+03  0.12509000000E+03 0.  0.
         25    1    3    3    0    0 -0.59298960176E+02  0.43538297462E+02  0.38914987065E+03  0.41532767780E+03  0.12509000000E+03 0.  0.
         25    1    4    4    0    0 -0.27615353542E+01  0.27025526877E+01  0.85703912835E+03  0.86612845785E+03  0.12509000000E+03 0.  0.
<mgrwt>
<rscale>  2 0.45133795E+03</rscale>
<asrwt>0</asrwt>
<pdfrwt beam="1">  1       21 0.31434770E+00 0.45133795E+03</pdfrwt>
<pdfrwt beam="2">  1       21 0.35036088E-02 0.45133795E+03</pdfrwt>
<totfact> 0.11575001E+04</totfact>
</mgrwt>
</event>
<event>
 7    0  0.4752811E-002  0.5215099E+03  0.7546771E-02  0.1008312E+00
         21   -1    0    0  502  501  0.00000000000E+00  0.00000000000E+00  0.85743269865E+02  0.85743269865E+02  0.00000000000E+00 0.  1.
         21   -1    0    0  501  502 -0.00000000000E+00 -0.00000000000E+00 -0.79298526652E+03  0.79298526652E+03  0.00000000000E+00 0.  1.
      99926    2    1    2    0    0 -0.35527136788E-14  0.00000000000E+00 -0.70724199666E+03  0.87872853639E+03  0.52150992208E+03 0.  0.
      99925    2    3    3    0    0 -0.30522038793E+02 -0.31347031868E+02 -0.14998100289E+03  0.30592703976E+03  0.26302627468E+03 0.  0.
         25    1    3    3    0    0  0.30522038793E+02  0.31347031868E+02 -0.55726099377E+03  0.57280149662E+03  0.12509000000E+03 0.  0.
         25    1    4    4    0    0  0.28445410698E+01 -0.17683208667E+02 -0.32277148048E+02  0.13042281115E+03  0.12509000000E+03 0.  0.
         25    1    4    4    0    0 -0.33366579863E+02 -0.13663823201E+02 -0.11770385484E+03  0.17550422861E+03  0.12509000000E+03 0.  0.
<mgrwt>
<rscale>  2 0.52150992E+03</rscale>
<asrwt>0</asrwt>
<pdfrwt beam="1">  1       21 0.12609304E-01 0.52150992E+03</pdfrwt>
<pdfrwt beam="2">  1       21 0.11661549E+00 0.52150992E+03</pdfrwt>
<totfact> 0.27057436E+04</totfact>
</mgrwt>
</event>
<event>
 7    0  0.4752811E-002  0.4547120E+03  0.7546771E-02  0.1026326E+00
         21   -1    0    0  502  501  0.00000000000E+00  0.00000000000E+00  0.10349248608E+04  0.10349248608E+04  0.00000000000E+00 0. -1.
         21   -1    0    0  501  502 -0.00000000000E+00 -0.00000000000E+00 -0.49946375931E+02  0.49946375931E+02  0.00000000000E+00 0. -1.
      99926    2    1    2    0    0 -0.14210854715E-13  0.71054273576E-14  0.98497848491E+03  0.10848712368E+04  0.45471197987E+03 0.  0.
      99925    2    3    3    0    0 -0.85049457352E+02  0.45352489034E+02  0.47952614414E+03  0.55532441604E+03  0.26296316411E+03 0.  0.
         25    1    4    4    0    0 -0.50564536913E+02  0.39884211362E+02  0.32038284597E+03  0.34991455929E+03  0.12509000000E+03 0.  0.
         25    1    3    3    0    0  0.85049457352E+02 -0.45352489034E+02  0.50545234078E+03  0.52954682074E+03  0.12509000000E+03 0.  0.
         25    1    4    4    0    0 -0.34484920439E+02  0.54682776722E+01  0.15914329816E+03  0.20540985675E+03  0.12509000000E+03 0.  0.
<mgrwt>
<rscale>  2 0.45471198E+03</rscale>
<asrwt>0</asrwt>
<pdfrwt beam="1">  1       21 0.15219482E+00 0.45471198E+03</pdfrwt>
<pdfrwt beam="2">  1       21 0.73450559E-02 0.45471198E+03</pdfrwt>
<totfact> 0.36104335E+04</totfact>
</mgrwt>
</event>
<event>
 7    0  0.4752811E-002  0.4529376E+03  0.7546771E-02  0.1026850E+00
         21   -1    0    0  502  501  0.00000000000E+00  0.00000000000E+00  0.62872435705E+02  0.62872435705E+02  0.00000000000E+00 0. -1.
         21   -1    0    0  501  502 -0.00000000000E+00 -0.00000000000E+00 -0.81574874744E+03  0.81574874744E+03  0.00000000000E+00 0. -1.
      99926    2    1    2    0    0  0.00000000000E+00  0.00000000000E+00 -0.75287631174E+03  0.87862118315E+03  0.45293757042E+03 0.  0.
      99925    2    3    3    0    0  0.65959947686E+02  0.47795380551E+02 -0.32741132338E+03  0.42772975772E+03  0.26290579656E+03 0.  0.
         25    1    3    3    0    0 -0.65959947686E+02 -0.47795380551E+02 -0.42546498836E+03  0.45089142542E+03  0.12509000000E+03 0.  0.
         25    1    4    4    0    0  0.65744428401E+01 -0.86554234225E+01 -0.15621730207E+03  0.20042328513E+03  0.12509000000E+03 0.  0.
         25    1    4    4    0    0  0.59385504846E+02  0.56450803974E+02 -0.17119402130E+03  0.22730647260E+03  0.12509000000E+03 0.  0.
<mgrwt>
<rscale>  2 0.45293757E+03</rscale>
<asrwt>0</asrwt>
<pdfrwt beam="1">  1       21 0.92459463E-02 0.45293757E+03</pdfrwt>
<pdfrwt beam="2">  1       21 0.11996305E+00 0.45293757E+03</pdfrwt>
<totfact> 0.44891733E+04</totfact>
</mgrwt>
</event>
<event>
 7    0  0.4752811E-002  0.4571941E+03  0.7546771E-02  0.1025598E+00
         21   -1    0    0  502  501  0.00000000000E+00  0.00000000000E+00  0.29479404115E+03  0.29479404115E+03  0.00000000000E+00 0. -1.
         21   -1    0    0  501  502 -0.00000000000E+00 -0.00000000000E+00 -0.17726479395E+03  0.17726479395E+03  0.00000000000E+00 0. -1.
      99926    2    1    2    0    0  0.00000000000E+00  0.00000000000E+00  0.11752924720E+03  0.47205883511E+03  0.45719407242E+03 0.  0.
      99925    2    3    3    0    0  0.79179834219E+02  0.80667727309E+02  0.96700145397E+02  0.30218215054E+03  0.26303308843E+03 0.  0.
         25    1    4    4    0    0  0.18478853085E+01  0.34463687880E+02  0.24906520924E+02  0.13213252191E+03  0.12509000000E+03 0.  0.
         25    1    4    4    0    0  0.77331948911E+02  0.46204039429E+02  0.71793624473E+02  0.17004962863E+03  0.12509000000E+03 0.  0.
         25    1    3    3    0    0 -0.79179834219E+02 -0.80667727309E+02  0.20829101806E+02  0.16987668456E+03  0.12509000000E+03 0.  0.
<mgrwt>
<rscale>  2 0.45719407E+03</rscale>
<asrwt>0</asrwt>
<pdfrwt beam="1">  1       21 0.43352065E-01 0.45719407E+03</pdfrwt>
<pdfrwt beam="2">  1       21 0.26068352E-01 0.45719407E+03</pdfrwt>
<totfact> 0.66124420E+04</totfact>
</mgrwt>
</event>
<event>
 7    0  0.4752811E-002  0.4310057E+03  0.7546771E-02  0.1033543E+00
         21   -1    0    0  502  501  0.00000000000E+00  0.00000000000E+00  0.10091672089E+03  0.10091672089E+03  0.00000000000E+00 0.  1.
         21   -1    0    0  501  502 -0.00000000000E+00 -0.00000000000E+00 -0.46019615900E+03  0.46019615900E+03  0.00000000000E+00 0.  1.
      99926    2    1    2    0    0  0.00000000000E+00  0.71054273576E-14 -0.35927943811E+03  0.56111287989E+03  0.43100574164E+03 0.  0.
      99925    2    3    3    0    0  0.29968572381E+02  0.60380474887E+02 -0.15481297380E+03  0.31211898396E+03  0.26250197374E+03 0.  0.
         25    1    3    3    0    0 -0.29968572381E+02 -0.60380474887E+02 -0.20446646431E+03  0.24899389592E+03  0.12509000000E+03 0.  0.
         25    1    4    4    0    0  0.50125697932E+02  0.15434195832E+02 -0.64769223833E+02  0.15031087935E+03  0.12509000000E+03 0.  0.
         25    1    4    4    0    0 -0.20157125551E+02  0.44946279055E+02 -0.90043749968E+02  0.16180810462E+03  0.12509000000E+03 0.  0.
<mgrwt>
<rscale>  2 0.43100574E+03</rscale>
<asrwt>0</asrwt>
<pdfrwt beam="1">  1       21 0.14840695E-01 0.43100574E+03</pdfrwt>
<pdfrwt beam="2">  1       21 0.67675903E-01 0.43100574E+03</pdfrwt>
<totfact> 0.74259008E+04</totfact>
</mgrwt>
</event>
<event>
 7    0  0.4752811E-002  0.4566958E+03  0.7546771E-02  0.1025744E+00
         21   -1    0    0  502  501  0.00000000000E+00  0.00000000000E+00  0.10924850975E+03  0.10924850975E+03  0.00000000000E+00 0.  1.
         21   -1    0    0  501  502 -0.00000000000E+00 -0.00000000000E+00 -0.47728580915E+03  0.47728580915E+03  0.00000000000E+00 0.  1.
      99926    2    1    2    0    0  0.00000000000E+00  0.00000000000E+00 -0.36803729940E+03  0.58653431890E+03  0.45669579973E+03 0.  0.
      99925    2    3    3    0    0 -0.85500982815E+02 -0.12085674463E+02 -0.32855267738E+03  0.42948965943E+03  0.26278893462E+03 0.  0.
         25    1    4    4    0    0 -0.18502666721E+02 -0.14110972834E+02 -0.10632681972E+03  0.16581426031E+03  0.12509000000E+03 0.  0.
         25    1    3    3    0    0  0.85500982815E+02  0.12085674463E+02 -0.39484622025E+02  0.15704465946E+03  0.12509000000E+03 0.  0.
         25    1    4    4    0    0 -0.66998316093E+02  0.20252983707E+01 -0.22222585765E+03  0.26367539912E+03  0.12509000000E+03 0.  0.
<mgrwt>
<rscale>  2 0.45669580E+03</rscale>
<asrwt>0</asrwt>
<pdfrwt beam="1">  1       21 0.16065957E-01 0.45669580E+03</pdfrwt>
<pdfrwt beam="2">  1       21 0.70189090E-01 0.45669580E+03</pdfrwt>
<totfact> 0.58723753E+04</totfact>
</mgrwt>
</event>
<event>
 7    0  0.4752811E-002  0.4529163E+03  0.7546771E-02  0.1026856E+00
         21   -1    0    0  502  501  0.00000000000E+00  0.00000000000E+00  0.68725523506E+03  0.68725523506E+03  0.00000000000E+00 0.  1.
         21   -1    0    0  501  502 -0.00000000000E+00 -0.00000000000E+00 -0.74620432285E+02  0.74620432285E+02  0.00000000000E+00 0.  1.
      99926    2    1    2    0    0  0.00000000000E+00  0.00000000000E+00  0.61263480278E+03  0.76187566735E+03  0.45291625155E+03 0.  0.
      99925    2    3    3    0    0 -0.63914363995E+02  0.90167552003E+02  0.36568822964E+03  0.46380629380E+03  0.26300791531E+03 0.  0.
         25    1    4    4    0    0  0.46015473309E+01  0.61287148410E+02  0.19108820236E+03  0.23651532293E+03  0.12509000000E+03 0.  0.
         25    1    3    3    0    0  0.63914363995E+02 -0.90167552003E+02  0.24694657314E+03  0.29806937354E+03  0.12509000000E+03 0.  0.
         25    1    4    4    0    0 -0.68515911326E+02  0.28880403593E+02  0.17460002728E+03  0.22729097088E+03  0.12509000000E+03 0.  0.
<mgrwt>
<rscale>  2 0.45291625E+03</rscale>
<asrwt>0</asrwt>
<pdfrwt beam="1">  1       21 0.10106694E+00 0.45291625E+03</pdfrwt>
<pdfrwt beam="2">  1       21 0.10973593E-01 0.45291625E+03</pdfrwt>
<totfact> 0.50484636E+04</totfact>
</mgrwt>
</event>
<event>
 7    0  0.4752811E-002  0.4616202E+03  0.7546771E-02  0.1024312E+00
         21   -1    0    0  502  501  0.00000000000E+00  0.00000000000E+00  0.39817729883E+03  0.39817729883E+03  0.00000000000E+00 0.  1.
         21   -1    0    0  501  502 -0.00000000000E+00 -0.00000000000E+00 -0.13379293146E+03  0.13379293146E+03  0.00000000000E+00 0.  1.
      99926    2    1    2    0    0  0.00000000000E+00  0.00000000000E+00  0.26438436736E+03  0.53197023029E+03  0.46162022508E+03 0.  0.
      99925    2    3    3    0    0  0.53736631930E+02 -0.12992065353E+02  0.28715512564E+03  0.39332523432E+03  0.26304040450E+03 0.  0.
         25    1    3    3    0    0 -0.53736631930E+02  0.12992065353E+02 -0.22770758280E+02  0.13864499596E+03  0.12509000000E+03 0.  0.
         25    1    4    4    0    0  0.30500368756E+02  0.18159595094E+02  0.19002504873E+03  0.23025436072E+03  0.12509000000E+03 0.  0.
         25    1    4    4    0    0  0.23236263173E+02 -0.31151660447E+02  0.97130076917E+02  0.16307087360E+03  0.12509000000E+03 0.  0.
<mgrwt>
<rscale>  2 0.46162023E+03</rscale>
<asrwt>0</asrwt>
<pdfrwt beam="1">  1       21 0.58555485E-01 0.46162023E+03</pdfrwt>
<pdfrwt beam="2">  1       21 0.19675431E-01 0.46162023E+03</pdfrwt>
<totfact> 0.59869476E+04</totfact>
</mgrwt>
</event>
<event>
 7    0  0.4752811E-002  0.4539805E+03  0.7546771E-02  0.1026542E+00
         21   -1    0    0  502  501  0.00000000000E+00  0.00000000000E+00  0.22305762570E+03  0.22305762570E+03  0.00000000000E+00 0. -1.
         21   -1    0    0  501  502 -0.00000000000E+00 -0.00000000000E+00 -0.23099224517E+03  0.23099224517E+03  0.00000000000E+00 0. -1.
      99926    2    1    2    0    0  0.00000000000E+00  0.00000000000E+00 -0.79346194664E+01  0.45404987087E+03  0.45398053599E+03 0.  0.
      99925    2    3    3    0    0 -0.11057905709E+03 -0.72968869873E+01 -0.22333672260E+02  0.28631253678E+03  0.26304962151E+03 0.  0.
         25    1    4    4    0    0 -0.99320163480E+02 -0.22147798340E+01 -0.12970568275E+02  0.16026585371E+03  0.12509000000E+03 0.  0.
         25    1    3    3    0    0  0.11057905709E+03  0.72968869873E+01  0.14399052793E+02  0.16773733409E+03  0.12509000000E+03 0.  0.
         25    1    4    4    0    0 -0.11258893608E+02 -0.50821071533E+01 -0.93631039848E+01  0.12604668308E+03  0.12509000000E+03 0.  0.
<mgrwt>
<rscale>  2 0.45398054E+03</rscale>
<asrwt>0</asrwt>
<pdfrwt beam="1">  1       21 0.32802592E-01 0.45398054E+03</pdfrwt>
<pdfrwt beam="2">  1       21 0.33969448E-01 0.45398054E+03</pdfrwt>
<totfact> 0.69176444E+04</totfact>
</mgrwt>
</event>
<event>
 7    0  0.4752811E-002  0.4499815E+03  0.7546771E-02  0.1027728E+00
         21   -1    0    0  502  501  0.00000000000E+00  0.00000000000E+00  0.81042873442E+02  0.81042873442E+02  0.00000000000E+00 0.  1.
         21   -1    0    0  501  502 -0.00000000000E+00 -0.00000000000E+00 -0.62461798729E+03  0.62461798729E+03  0.00000000000E+00 0.  1.
      99926    2    1    2    0    0  0.35527136788E-14  0.35527136788E-14 -0.54357511385E+03  0.70566086074E+03  0.44998149515E+03 0.  0.
      99925    2    3    3    0    0  0.30426105793E+02  0.29514682259E+02 -0.18888553834E+03  0.32717827533E+03  0.26376317573E+03 0.  0.
         25    1    3    3    0    0 -0.30426105793E+02 -0.29514682259E+02 -0.35468957551E+03  0.37848258541E+03  0.12509000000E+03 0.  0.
         25    1    4    4    0    0 -0.11298251478E+02  0.11508987039E+02 -0.52496653285E+02  0.13661447206E+03  0.12509000000E+03 0.  0.
         25    1    4    4    0    0  0.41724357271E+02  0.18005695220E+02 -0.13638888505E+03  0.19056380327E+03  0.12509000000E+03 0.  0.
<mgrwt>
<rscale>  2 0.44998150E+03</rscale>
<asrwt>0</asrwt>
<pdfrwt beam="1">  1       21 0.11918070E-01 0.44998150E+03</pdfrwt>
<pdfrwt beam="2">  1       21 0.91855582E-01 0.44998150E+03</pdfrwt>
<totfact> 0.54725903E+04</totfact>
</mgrwt>
</event>
<event>
 7    0  0.4752811E-002  0.4366947E+03  0.7546771E-02  0.1031766E+00
         21   -1    0    0  502  501  0.00000000000E+00  0.00000000000E+00  0.14707486252E+04  0.14707486252E+04  0.00000000000E+00 0.  1.
         21   -1    0    0  501  502 -0.00000000000E+00 -0.00000000000E+00 -0.32415845907E+02  0.32415845907E+02  0.00000000000E+00 0.  1.
      99926    2    1    2    0    0  0.00000000000E+00  0.71054273576E-14  0.14383327793E+04  0.15031644711E+04  0.43669467962E+03 0.  0.
      99925    2    3    3    0    0  0.66720965830E+02 -0.46297413612E+02  0.75147500834E+03  0.80030158020E+03  0.26300721156E+03 0.  0.
         25    1    3    3    0    0 -0.66720965830E+02  0.46297413612E+02  0.68685777098E+03  0.70286289093E+03  0.12509000000E+03 0.  0.
         25    1    4    4    0    0  0.13759880935E+02 -0.11757640593E+02  0.25782340510E+03  0.28713758506E+03  0.12509000000E+03 0.  0.
         25    1    4    4    0    0  0.52961084895E+02 -0.34539773018E+02  0.49365160323E+03  0.51316399514E+03  0.12509000000E+03 0.  0.
<mgrwt>
<rscale>  2 0.43669468E+03</rscale>
<asrwt>0</asrwt>
<pdfrwt beam="1">  1       21 0.21628652E+00 0.43669468E+03</pdfrwt>
<pdfrwt beam="2">  1       21 0.47670372E-02 0.43669468E+03</pdfrwt>
<totfact> 0.27394739E+04</totfact>
</mgrwt>
</event>
<event>
 7    0  0.4752811E-002  0.4459032E+03  0.7546771E-02  0.1028951E+00
         21   -1    0    0  502  501  0.00000000000E+00  0.00000000000E+00  0.24562467267E+03  0.24562467267E+03  0.00000000000E+00 0. -1.
         21   -1    0    0  501  502 -0.00000000000E+00 -0.00000000000E+00 -0.20237138806E+03  0.20237138806E+03  0.00000000000E+00 0. -1.
      99926    2    1    2    0    0  0.00000000000E+00  0.71054273576E-14  0.43253284611E+02  0.44799606072E+03  0.44590315517E+03 0.  0.
      99925    2    3    3    0    0 -0.88343468195E+02 -0.36818406123E+02  0.69110538841E+02  0.28838318812E+03  0.26311296664E+03 0.  0.
         25    1    4    4    0    0 -0.85164274208E+02 -0.22332203738E+02  0.25483616772E+02  0.15507612243E+03  0.12509000000E+03 0.  0.
         25    1    3    3    0    0  0.88343468195E+02  0.36818406123E+02 -0.25857254231E+02  0.15961287260E+03  0.12509000000E+03 0.  0.
         25    1    4    4    0    0 -0.31791939872E+01 -0.14486202385E+02  0.43626922069E+02  0.13330706569E+03  0.12509000000E+03 0.  0.
<mgrwt>
<rscale>  2 0.44590316E+03</rscale>
<asrwt>0</asrwt>
<pdfrwt beam="1">  1       21 0.36121276E-01 0.44590316E+03</pdfrwt>
<pdfrwt beam="2">  1       21 0.29760498E-01 0.44590316E+03</pdfrwt>
<totfact> 0.74310739E+04</totfact>
</mgrwt>
</event>
<event>
 7    0  0.4752811E-002  0.4448203E+03  0.7546771E-02  0.1029278E+00
         21   -1    0    0  502  501  0.00000000000E+00  0.00000000000E+00  0.20051220666E+03  0.20051220666E+03  0.00000000000E+00 0.  1.
         21   -1    0    0  501  502 -0.00000000000E+00 -0.00000000000E+00 -0.24669960185E+03  0.24669960185E+03  0.00000000000E+00 0.  1.
      99926    2    1    2    0    0  0.00000000000E+00  0.00000000000E+00 -0.46187395193E+02  0.44721180851E+03  0.44482033025E+03 0.  0.
      99925    2    3    3    0    0  0.83006643509E+02  0.27570507195E+02 -0.84595036303E+02  0.28981774659E+03  0.26303568263E+03 0.  0.
         25    1    4    4    0    0  0.69893794440E+02  0.15860366647E+02 -0.76580163477E+02  0.16324436673E+03  0.12509000000E+03 0.  0.
         25    1    3    3    0    0 -0.83006643509E+02 -0.27570507195E+02  0.38407641110E+02  0.15739406193E+03  0.12509000000E+03 0.  0.
         25    1    4    4    0    0  0.13112849069E+02  0.11710140547E+02 -0.80148728263E+01  0.12657337986E+03  0.12509000000E+03 0.  0.
<mgrwt>
<rscale>  2 0.44482033E+03</rscale>
<asrwt>0</asrwt>
<pdfrwt beam="1">  1       21 0.29487089E-01 0.44482033E+03</pdfrwt>
<pdfrwt beam="2">  1       21 0.36279353E-01 0.44482033E+03</pdfrwt>
<totfact> 0.75031401E+04</totfact>
</mgrwt>
</event>
<event>
 7    0  0.4752811E-002  0.4530747E+03  0.7546771E-02  0.1026809E+00
         21   -1    0    0  502  501  0.00000000000E+00  0.00000000000E+00  0.10528834740E+03  0.10528834740E+03  0.00000000000E+00 0.  1.
         21   -1    0    0  501  502 -0.00000000000E+00 -0.00000000000E+00 -0.48741556549E+03  0.48741556549E+03  0.00000000000E+00 0.  1.
      99926    2    1    2    0    0  0.71054273576E-14 -0.14210854715E-13 -0.38212721808E+03  0.59270391289E+03  0.45307473727E+03 0.  0.
      99925    2    3    3    0    0  0.57813606450E+02 -0.93729591309E+02 -0.26229401709E+03  0.38743542155E+03  0.26302168179E+03 0.  0.
         25    1    3    3    0    0 -0.57813606450E+02  0.93729591309E+02 -0.11983320099E+03  0.20526849134E+03  0.12509000000E+03 0.  0.
         25    1    4    4    0    0  0.15003702512E+02 -0.26183562237E+02 -0.76847922293E+02  0.14987928903E+03  0.12509000000E+03 0.  0.
         25    1    4    4    0    0  0.42809903938E+02 -0.67546029072E+02 -0.18544609480E+03  0.23755613251E+03  0.12509000000E+03 0.  0.
<mgrwt>
<rscale>  2 0.45307474E+03</rscale>
<asrwt>0</asrwt>
<pdfrwt beam="1">  1       21 0.15483581E-01 0.45307474E+03</pdfrwt>
<pdfrwt beam="2">  1       21 0.71678758E-01 0.45307474E+03</pdfrwt>
<totfact> 0.60037901E+04</totfact>
</mgrwt>
</event>
<event>
 7    0  0.4752811E-002  0.4512329E+03  0.7546771E-02  0.1027355E+00
         21   -1    0    0  502  501  0.00000000000E+00  0.00000000000E+00  0.16629147346E+03  0.16629147346E+03  0.00000000000E+00 0.  1.
         21   -1    0    0  501  502 -0.00000000000E+00 -0.00000000000E+00 -0.30610573039E+03  0.30610573039E+03  0.00000000000E+00 0.  1.
      99926    2    1    2    0    0  0.00000000000E+00  0.00000000000E+00 -0.13981425693E+03  0.47239720385E+03  0.45123285758E+03 0.  0.
      99925    2    3    3    0    0 -0.70859646831E+02  0.35214818481E+02 -0.16769905928E+03  0.32177767227E+03  0.26297665847E+03 0.  0.
         25    1    4    4    0    0 -0.60550046887E+02 -0.97633096122E+01 -0.10492893938E+03  0.17441106849E+03  0.12509000000E+03 0.  0.
         25    1    3    3    0    0  0.70859646831E+02 -0.35214818481E+02  0.27884802345E+02  0.15061953157E+03  0.12509000000E+03 0.  0.
         25    1    4    4    0    0 -0.10309599944E+02  0.44978128094E+02 -0.62770119898E+02  0.14736660378E+03  0.12509000000E+03 0.  0.
<mgrwt>
<rscale>  2 0.45123286E+03</rscale>
<asrwt>0</asrwt>
<pdfrwt beam="1">  1       21 0.24454629E-01 0.45123286E+03</pdfrwt>
<pdfrwt beam="2">  1       21 0.45015548E-01 0.45123286E+03</pdfrwt>
<totfact> 0.69306691E+04</totfact>
</mgrwt>
</event>
<event>
 7    0  0.4752811E-002  0.4619129E+03  0.7546771E-02  0.1024228E+00
         21   -1    0    0  502  501  0.00000000000E+00  0.00000000000E+00  0.54467266042E+03  0.54467266042E+03  0.00000000000E+00 0.  1.
         21   -1    0    0  501  502 -0.00000000000E+00 -0.00000000000E+00 -0.97931978012E+02  0.97931978012E+02  0.00000000000E+00 0.  1.
      99926    2    1    2    0    0  0.00000000000E+00 -0.17763568394E-14  0.44674068241E+03  0.64260463843E+03  0.46191285327E+03 0.  0.
      99925    2    3    3    0    0 -0.70614123114E+02 -0.59822130318E+01  0.41333167059E+03  0.49500446422E+03  0.26299089039E+03 0.  0.
         25    1    4    4    0    0 -0.29172894674E+02  0.19392894493E+02  0.14297882062E+03  0.19317762134E+03  0.12509000000E+03 0.  0.
         25    1    3    3    0    0  0.70614123114E+02  0.59822130318E+01  0.33409011814E+02  0.14760017421E+03  0.12509000000E+03 0.  0.
         25    1    4    4    0    0 -0.41441228440E+02 -0.25375107524E+02  0.27035284997E+03  0.30182684288E+03  0.12509000000E+03 0.  0.
<mgrwt>
<rscale>  2 0.46191285E+03</rscale>
<asrwt>0</asrwt>
<pdfrwt beam="1">  1       21 0.80098920E-01 0.46191285E+03</pdfrwt>
<pdfrwt beam="2">  1       21 0.14401762E-01 0.46191285E+03</pdfrwt>
<totfact> 0.53169191E+04</totfact>
</mgrwt>
</event>
<event>
 7    0  0.4752811E-002  0.4554280E+03  0.7546771E-02  0.1026116E+00
         21   -1    0    0  502  501  0.00000000000E+00  0.00000000000E+00  0.26081791211E+02  0.26081791211E+02  0.00000000000E+00 0. -1.
         21   -1    0    0  501  502 -0.00000000000E+00 -0.00000000000E+00 -0.19881173108E+04  0.19881173108E+04  0.00000000000E+00 0. -1.
      99926    2    1    2    0    0  0.00000000000E+00  0.00000000000E+00 -0.19620355196E+04  0.20141991020E+04  0.45542797720E+03 0.  0.
      99925    2    3    3    0    0  0.82738503855E+02 -0.59810338354E+02 -0.10156740181E+04  0.10541623651E+04  0.26313807095E+03 0.  0.
         25    1    4    4    0    0  0.31494675495E+02 -0.15449387537E+02 -0.34705536221E+03  0.37057459532E+03  0.12509000000E+03 0.  0.
         25    1    3    3    0    0 -0.82738503855E+02  0.59810338354E+02 -0.94636150147E+03  0.96003673688E+03  0.12509000000E+03 0.  0.
         25    1    4    4    0    0  0.51243828360E+02 -0.44360950818E+02 -0.66861865588E+03  0.68358776978E+03  0.12509000000E+03 0.  0.
<mgrwt>
<rscale>  2 0.45542798E+03</rscale>
<asrwt>0</asrwt>
<pdfrwt beam="1">  1       21 0.38355579E-02 0.45542798E+03</pdfrwt>
<pdfrwt beam="2">  1       21 0.29237016E+00 0.45542798E+03</pdfrwt>
<totfact> 0.13434515E+04</totfact>
</mgrwt>
</event>
<event>
 7    0  0.4752811E-002  0.4567491E+03  0.7546771E-02  0.1025728E+00
         21   -1    0    0  502  501  0.00000000000E+00  0.00000000000E+00  0.15252439737E+03  0.15252439737E+03  0.00000000000E+00 0. -1.
         21   -1    0    0  501  502 -0.00000000000E+00 -0.00000000000E+00 -0.34194479881E+03  0.34194479881E+03  0.00000000000E+00 0. -1.
      99926    2    1    2    0    0  0.00000000000E+00  0.00000000000E+00 -0.18942040144E+03  0.49446919618E+03  0.45674905308E+03 0.  0.
      99925    2    3    3    0    0  0.59430014660E+02 -0.93352191614E+02 -0.15204242546E+03  0.32332253536E+03  0.26300951392E+03 0.  0.
         25    1    4    4    0    0 -0.10574286665E+02 -0.33036163446E+02 -0.70748653800E+02  0.14783803214E+03  0.12509000000E+03 0.  0.
         25    1    4    4    0    0  0.70004301326E+02 -0.60316028168E+02 -0.81293771659E+02  0.17548450322E+03  0.12509000000E+03 0.  0.
         25    1    3    3    0    0 -0.59430014660E+02  0.93352191614E+02 -0.37377975982E+02  0.17114666082E+03  0.12509000000E+03 0.  0.
<mgrwt>
<rscale>  2 0.45674905E+03</rscale>
<asrwt>0</asrwt>
<pdfrwt beam="1">  1       21 0.22430059E-01 0.45674905E+03</pdfrwt>
<pdfrwt beam="2">  1       21 0.50285999E-01 0.45674905E+03</pdfrwt>
<totfact> 0.64757146E+04</totfact>
</mgrwt>
</event>
<event>
 7    0  0.4752811E-002  0.4519795E+03  0.7546771E-02  0.1027133E+00
         21   -1    0    0  502  501  0.00000000000E+00  0.00000000000E+00  0.37859641382E+03  0.37859641382E+03  0.00000000000E+00 0.  1.
         21   -1    0    0  501  502 -0.00000000000E+00 -0.00000000000E+00 -0.13489660048E+03  0.13489660048E+03  0.00000000000E+00 0.  1.
      99926    2    1    2    0    0  0.00000000000E+00  0.71054273576E-14  0.24369981333E+03  0.51349301430E+03  0.45197950917E+03 0.  0.
      99925    2    3    3    0    0 -0.87429060051E+02 -0.46927647050E+02  0.20789207114E+03  0.34986004971E+03  0.26331900148E+03 0.  0.
         25    1    3    3    0    0  0.87429060051E+02  0.46927647050E+02  0.35807742189E+02  0.16363296459E+03  0.12509000000E+03 0.  0.
         25    1    4    4    0    0 -0.15709560713E+02 -0.52315156634E+02  0.89598380907E+02  0.16327597457E+03  0.12509000000E+03 0.  0.
         25    1    4    4    0    0 -0.71719499338E+02  0.53875095848E+01  0.11829369024E+03  0.18658407514E+03  0.12509000000E+03 0.  0.
<mgrwt>
<rscale>  2 0.45197951E+03</rscale>
<asrwt>0</asrwt>
<pdfrwt beam="1">  1       21 0.55675943E-01 0.45197951E+03</pdfrwt>
<pdfrwt beam="2">  1       21 0.19837736E-01 0.45197951E+03</pdfrwt>
<totfact> 0.65898073E+04</totfact>
</mgrwt>
</event>
<event>
 7    0  0.4752811E-002  0.4586495E+03  0.7546771E-02  0.1025174E+00
         21   -1    0    0  502  501  0.00000000000E+00  0.00000000000E+00  0.17637301413E+03  0.17637301413E+03  0.00000000000E+00 0. -1.
         21   -1    0    0  501  502 -0.00000000000E+00 -0.00000000000E+00 -0.29817390681E+03  0.29817390681E+03  0.00000000000E+00 0. -1.
      99926    2    1    2    0    0  0.00000000000E+00  0.88817841970E-15 -0.12180089267E+03  0.47454692094E+03  0.45864945516E+03 0.  0.
      99925    2    3    3    0    0  0.43098704280E+02 -0.53865365499E+01  0.35411656254E+02  0.26899934317E+03  0.26309722184E+03 0.  0.
         25    1    4    4    0    0  0.39465426822E+02 -0.15746073757E+02  0.52721492573E+02  0.14224107224E+03  0.12509000000E+03 0.  0.
         25    1    3    3    0    0 -0.43098704280E+02  0.53865365499E+01 -0.15721254892E+03  0.20554757777E+03  0.12509000000E+03 0.  0.
         25    1    4    4    0    0  0.36332774580E+01  0.10359537207E+02 -0.17309836319E+02  0.12675827093E+03  0.12509000000E+03 0.  0.
<mgrwt>
<rscale>  2 0.45864946E+03</rscale>
<asrwt>0</asrwt>
<pdfrwt beam="1">  1       21 0.25937208E-01 0.45864946E+03</pdfrwt>
<pdfrwt beam="2">  1       21 0.43849104E-01 0.45864946E+03</pdfrwt>
<totfact> 0.65191004E+04</totfact>
</mgrwt>
</event>
<event>
 7    0  0.4752811E-002  0.4546011E+03  0.7546771E-02  0.1026359E+00
         21   -1    0    0  502  501  0.00000000000E+00  0.00000000000E+00  0.40305633509E+03  0.40305633509E+03  0.00000000000E+00 0.  1.
         21   -1    0    0  501  502 -0.00000000000E+00 -0.00000000000E+00 -0.12818440483E+03  0.12818440483E+03  0.00000000000E+00 0.  1.
      99926    2    1    2    0    0  0.00000000000E+00  0.00000000000E+00  0.27487193026E+03  0.53124073992E+03  0.45460108414E+03 0.  0.
      99925    2    3    3    0    0 -0.92901517521E+02  0.48904373469E+02  0.12419069569E+03  0.30903661698E+03  0.26278883544E+03 0.  0.
         25    1    3    3    0    0  0.92901517521E+02 -0.48904373469E+02  0.15068123456E+03  0.22220412294E+03  0.12509000000E+03 0.  0.
         25    1    4    4    0    0 -0.49955378746E+02  0.59650807069E+02  0.42940368171E+02  0.15344426339E+03  0.12509000000E+03 0.  0.
         25    1    4    4    0    0 -0.42946138775E+02 -0.10746433600E+02  0.81250327521E+02  0.15559235358E+03  0.12509000000E+03 0.  0.
<mgrwt>
<rscale>  2 0.45460108E+03</rscale>
<asrwt>0</asrwt>
<pdfrwt beam="1">  1       21 0.59272990E-01 0.45460108E+03</pdfrwt>
<pdfrwt beam="2">  1       21 0.18850648E-01 0.45460108E+03</pdfrwt>
<totfact> 0.63322564E+04</totfact>
</mgrwt>
</event>
<event>
 7    0  0.4752811E-002  0.4561526E+03  0.7546771E-02  0.1025903E+00
         21   -1    0    0  502  501  0.00000000000E+00  0.00000000000E+00  0.19799602476E+03  0.19799602476E+03  0.00000000000E+00 0. -1.
         21   -1    0    0  501  502 -0.00000000000E+00 -0.00000000000E+00 -0.26272651185E+03  0.26272651185E+03  0.00000000000E+00 0. -1.
      99926    2    1    2    0    0  0.00000000000E+00  0.00000000000E+00 -0.64730487090E+02  0.46072253660E+03  0.45615262772E+03 0.  0.
      99925    2    3    3    0    0 -0.42348909673E+02  0.98633717609E+02 -0.80104397492E+02  0.29517524541E+03  0.26303929479E+03 0.  0.
         25    1    4    4    0    0 -0.38193869396E+02  0.27100313861E+02 -0.69649106377E+02  0.15063766060E+03  0.12509000000E+03 0.  0.
         25    1    3    3    0    0  0.42348909673E+02 -0.98633717609E+02  0.15373910402E+02  0.16554729119E+03  0.12509000000E+03 0.  0.
         25    1    4    4    0    0 -0.41550402764E+01  0.71533403748E+02 -0.10455291115E+02  0.14453758481E+03  0.12509000000E+03 0.  0.
<mgrwt>
<rscale>  2 0.45615263E+03</rscale>
<asrwt>0</asrwt>
<pdfrwt beam="1">  1       21 0.29117063E-01 0.45615263E+03</pdfrwt>
<pdfrwt beam="2">  1       21 0.38636252E-01 0.45615263E+03</pdfrwt>
<totfact> 0.67505312E+04</totfact>
</mgrwt>
</event>
<event>
 7    0  0.4752811E-002  0.4536874E+03  0.7546771E-02  0.1026628E+00
         21   -1    0    0  502  501  0.00000000000E+00  0.00000000000E+00  0.11379080019E+03  0.11379080019E+03  0.00000000000E+00 0. -1.
         21   -1    0    0  501  502 -0.00000000000E+00 -0.00000000000E+00 -0.45221636999E+03  0.45221636999E+03  0.00000000000E+00 0. -1.
      99926    2    1    2    0    0  0.00000000000E+00  0.00000000000E+00 -0.33842556981E+03  0.56600717018E+03  0.45368739281E+03 0.  0.
      99925    2    3    3    0    0  0.85342107590E+02 -0.71790897834E+02 -0.20109287053E+03  0.34933925208E+03  0.26298738017E+03 0.  0.
         25    1    4    4    0    0  0.71821355771E+01 -0.35658723519E+02 -0.12031084138E+03  0.17732832342E+03  0.12509000000E+03 0.  0.
         25    1    4    4    0    0  0.78159972013E+02 -0.36132174315E+02 -0.80782029143E+02  0.17201092866E+03  0.12509000000E+03 0.  0.
         25    1    3    3    0    0 -0.85342107590E+02  0.71790897834E+02 -0.13733269928E+03  0.21666791810E+03  0.12509000000E+03 0.  0.
<mgrwt>
<rscale>  2 0.45368739E+03</rscale>
<asrwt>0</asrwt>
<pdfrwt beam="1">  1       21 0.16733941E-01 0.45368739E+03</pdfrwt>
<pdfrwt beam="2">  1       21 0.66502407E-01 0.45368739E+03</pdfrwt>
<totfact> 0.61456469E+04</totfact>
</mgrwt>
</event>
<event>
 7    0  0.4752811E-002  0.4552944E+03  0.7546771E-02  0.1026155E+00
         21   -1    0    0  502  501  0.00000000000E+00  0.00000000000E+00  0.22496994826E+02  0.22496994826E+02  0.00000000000E+00 0.  1.
         21   -1    0    0  501  502 -0.00000000000E+00 -0.00000000000E+00 -0.23035633618E+04  0.23035633618E+04  0.00000000000E+00 0.  1.
      99926    2    1    2    0    0  0.00000000000E+00  0.00000000000E+00 -0.22810663670E+04  0.23260603566E+04  0.45529442356E+03 0.  0.
      99925    2    3    3    0    0  0.18316916533E+02 -0.65446025936E+02 -0.18991828164E+04  0.19185051505E+04  0.26295997915E+03 0.  0.
         25    1    4    4    0    0 -0.23198063185E+01  0.72318052652E+01 -0.84563246283E+03  0.85486808971E+03  0.12509000000E+03 0.  0.
         25    1    4    4    0    0  0.20636722851E+02 -0.72677831201E+02 -0.10535503536E+04  0.10636370608E+04  0.12509000000E+03 0.  0.
         25    1    3    3    0    0 -0.18316916533E+02  0.65446025936E+02 -0.38188355055E+03  0.40755520611E+03  0.12509000000E+03 0.  0.
<mgrwt>
<rscale>  2 0.45529442E+03</rscale>
<asrwt>0</asrwt>
<pdfrwt beam="1">  1       21 0.33083841E-02 0.45529442E+03</pdfrwt>
<pdfrwt beam="2">  1       21 0.33875906E+00 0.45529442E+03</pdfrwt>
<totfact> 0.90588095E+03</totfact>
</mgrwt>
</event>
<event>
 7    0  0.4752811E-002  0.4549517E+03  0.7546771E-02  0.1026256E+00
         21   -1    0    0  502  501  0.00000000000E+00  0.00000000000E+00  0.12864526433E+03  0.12864526433E+03  0.00000000000E+00 0.  1.
         21   -1    0    0  501  502 -0.00000000000E+00 -0.00000000000E+00 -0.40223210159E+03  0.40223210159E+03  0.00000000000E+00 0.  1.
      99926    2    1    2    0    0  0.00000000000E+00  0.00000000000E+00 -0.27358683726E+03  0.53087736592E+03  0.45495166790E+03 0.  0.
      99925    2    3    3    0    0 -0.11237651343E+03  0.15827592638E+02 -0.17734910097E+03  0.33648548480E+03  0.26247054008E+03 0.  0.
         25    1    4    4    0    0 -0.83468029280E+02 -0.21491280933E+02 -0.10255330947E+03  0.18328523250E+03  0.12509000000E+03 0.  0.
         25    1    3    3    0    0  0.11237651343E+03 -0.15827592638E+02 -0.96237736289E+02  0.19439188112E+03  0.12509000000E+03 0.  0.
         25    1    4    4    0    0 -0.28908484149E+02  0.37318873570E+02 -0.74795791498E+02  0.15320025230E+03  0.12509000000E+03 0.  0.
<mgrwt>
<rscale>  2 0.45495167E+03</rscale>
<asrwt>0</asrwt>
<pdfrwt beam="1">  1       21 0.18918421E-01 0.45495167E+03</pdfrwt>
<pdfrwt beam="2">  1       21 0.59151780E-01 0.45495167E+03</pdfrwt>
<totfact> 0.63171360E+04</totfact>
</mgrwt>
</event>
<event>
 7    0  0.4752811E-002  0.4533425E+03  0.7546771E-02  0.1026730E+00
         21   -1    0    0  502  501  0.00000000000E+00  0.00000000000E+00  0.11768635039E+04  0.11768635039E+04  0.00000000000E+00 0.  1.
         21   -1    0    0  501  502 -0.00000000000E+00 -0.00000000000E+00 -0.43658289016E+02  0.43658289016E+02  0.00000000000E+00 0.  1.
      99926    2    1    2    0    0  0.35527136788E-14  0.00000000000E+00  0.11332052149E+04  0.12205217929E+04  0.45334246210E+03 0.  0.
      99925    2    3    3    0    0 -0.23820983069E+02  0.36646561109E+02  0.99065754613E+03  0.10258997088E+04  0.26297800108E+03 0.  0.
         25    1    4    4    0    0 -0.21422215735E+02  0.22655697524E+02  0.34994265093E+03  0.37293371931E+03  0.12509000000E+03 0.  0.
         25    1    3    3    0    0  0.23820983069E+02 -0.36646561109E+02  0.14254766877E+03  0.19462208417E+03  0.12509000000E+03 0.  0.
         25    1    4    4    0    0 -0.23987673341E+01  0.13990863585E+02  0.64071489520E+03  0.65296598945E+03  0.12509000000E+03 0.  0.
<mgrwt>
<rscale>  2 0.45334246E+03</rscale>
<asrwt>0</asrwt>
<pdfrwt beam="1">  1       21 0.17306814E+00 0.45334246E+03</pdfrwt>
<pdfrwt beam="2">  1       21 0.64203374E-02 0.45334246E+03</pdfrwt>
<totfact> 0.31922301E+04</totfact>
</mgrwt>
</event>
<event>
 7    0  0.4752811E-002  0.4520409E+03  0.7546771E-02  0.1027115E+00
         21   -1    0    0  502  501  0.00000000000E+00  0.00000000000E+00  0.39403626797E+03  0.39403626797E+03  0.00000000000E+00 0.  1.
         21   -1    0    0  501  502 -0.00000000000E+00 -0.00000000000E+00 -0.12964605528E+03  0.12964605528E+03  0.00000000000E+00 0.  1.
      99926    2    1    2    0    0 -0.71054273576E-14  0.71054273576E-14  0.26439021269E+03  0.52368232324E+03  0.45204091752E+03 0.  0.
      99925    2    3    3    0    0 -0.59643463614E+02  0.63130193349E+02  0.24510047799E+03  0.37018194530E+03  0.26347232160E+03 0.  0.
         25    1    4    4    0    0  0.28044003519E+01  0.32501444199E+02  0.81544976844E+02  0.15284403778E+03  0.12509000000E+03 0.  0.
         25    1    3    3    0    0  0.59643463614E+02 -0.63130193349E+02  0.19289734693E+02  0.15350037794E+03  0.12509000000E+03 0.  0.
         25    1    4    4    0    0 -0.62447863966E+02  0.30628749150E+02  0.16355550115E+03  0.21733790752E+03  0.12509000000E+03 0.  0.
<mgrwt>
<rscale>  2 0.45204092E+03</rscale>
<asrwt>0</asrwt>
<pdfrwt beam="1">  1       21 0.57946510E-01 0.45204092E+03</pdfrwt>
<pdfrwt beam="2">  1       21 0.19065596E-01 0.45204092E+03</pdfrwt>
<totfact> 0.65151108E+04</totfact>
</mgrwt>
</event>
<event>
 7    0  0.4752811E-002  0.4571277E+03  0.7546771E-02  0.1025618E+00
         21   -1    0    0  502  501  0.00000000000E+00  0.00000000000E+00  0.39289911200E+03  0.39289911200E+03  0.00000000000E+00 0.  1.
         21   -1    0    0  501  502 -0.00000000000E+00 -0.00000000000E+00 -0.13296398175E+03  0.13296398175E+03  0.00000000000E+00 0.  1.
      99926    2    1    2    0    0  0.00000000000E+00  0.00000000000E+00  0.25993513025E+03  0.52586309375E+03  0.45712768614E+03 0.  0.
      99925    2    3    3    0    0 -0.39926123361E+02 -0.59544854381E+02  0.59707887573E+02  0.27912813105E+03  0.26307374764E+03 0.  0.
         25    1    4    4    0    0 -0.15903851336E+02  0.11064334067E+02  0.35753576993E+02  0.13153394369E+03  0.12509000000E+03 0.  0.
         25    1    3    3    0    0  0.39926123361E+02  0.59544854381E+02  0.20022724267E+03  0.24673496270E+03  0.12509000000E+03 0.  0.
         25    1    4    4    0    0 -0.24022272026E+02 -0.70609188448E+02  0.23954310581E+02  0.14759418736E+03  0.12509000000E+03 0.  0.
<mgrwt>
<rscale>  2 0.45712769E+03</rscale>
<asrwt>0</asrwt>
<pdfrwt beam="1">  1       21 0.57779281E-01 0.45712769E+03</pdfrwt>
<pdfrwt beam="2">  1       21 0.19553527E-01 0.45712769E+03</pdfrwt>
<totfact> 0.62427799E+04</totfact>
</mgrwt>
</event>
<event>
 7    0  0.4752811E-002  0.4605591E+03  0.7546771E-02  0.1024619E+00
         21   -1    0    0  502  501  0.00000000000E+00  0.00000000000E+00  0.62226198957E+03  0.62226198957E+03  0.00000000000E+00 0.  1.
         21   -1    0    0  501  502 -0.00000000000E+00 -0.00000000000E+00 -0.85219196176E+02  0.85219196176E+02  0.00000000000E+00 0.  1.
      99926    2    1    2    0    0 -0.17763568394E-14 -0.71054273576E-14  0.53704279340E+03  0.70748118575E+03  0.46055908008E+03 0.  0.
      99925    2    3    3    0    0  0.30272064115E+01 -0.59801357684E+02  0.49298406351E+03  0.56196814118E+03  0.26303904362E+03 0.  0.
         25    1    4    4    0    0  0.25254222172E+02 -0.37027921147E+02  0.31700926087E+03  0.34373132278E+03  0.12509000000E+03 0.  0.
         25    1    3    3    0    0 -0.30272064115E+01  0.59801357684E+02  0.44058729882E+02  0.14551304456E+03  0.12509000000E+03 0.  0.
         25    1    4    4    0    0 -0.22227015760E+02 -0.22773436537E+02  0.17597480264E+03  0.21823681840E+03  0.12509000000E+03 0.  0.
<mgrwt>
<rscale>  2 0.46055908E+03</rscale>
<asrwt>0</asrwt>
<pdfrwt beam="1">  1       21 0.91509114E-01 0.46055908E+03</pdfrwt>
<pdfrwt beam="2">  1       21 0.12532235E-01 0.46055908E+03</pdfrwt>
<totfact> 0.50263745E+04</totfact>
</mgrwt>
</event>
<event>
 6    0  0.4752811E-002  0.4527954E+03  0.7546771E-02  0.1026892E+00
         21   -1    0    0  502  501  0.00000000000E+00  0.00000000000E+00  0.16076603031E+03  0.16076603031E+03  0.00000000000E+00 0. -1.
         21   -1    0    0  501  502 -0.00000000000E+00 -0.00000000000E+00 -0.31882311182E+03  0.31882311182E+03  0.00000000000E+00 0. -1.
      99926    2    1    2    0    0  0.35527136788E-14 -0.71054273576E-14 -0.15805708151E+03  0.47958914213E+03  0.45279543310E+03 0.  0.
         25    1    3    3    0    0 -0.58080096006E+01  0.24074420615E+02 -0.51037490103E+02  0.13735226318E+03  0.12509000000E+03 0.  0.
         25    1    3    3    0    0  0.18813262587E+02 -0.62044903204E+02 -0.14827535301E+03  0.20453996498E+03  0.12509000000E+03 0.  0.
         25    1    3    3    0    0 -0.13005252986E+02  0.37970482590E+02  0.41255761608E+02  0.13769691398E+03  0.12509000000E+03 0.  0.
<mgrwt>
<rscale>  2 0.45279543E+03</rscale>
<asrwt>0</asrwt>
<pdfrwt beam="1">  1       21 0.23642064E-01 0.45279543E+03</pdfrwt>
<pdfrwt beam="2">  1       21 0.46885751E-01 0.45279543E+03</pdfrwt>
<totfact> 0.67910633E+04</totfact>
</mgrwt>
</event>
<event>
 7    0  0.4752811E-002  0.4583905E+03  0.7546771E-02  0.1025249E+00
         21   -1    0    0  502  501  0.00000000000E+00  0.00000000000E+00  0.24264806242E+03  0.24264806242E+03  0.00000000000E+00 0.  1.
         21   -1    0    0  501  502 -0.00000000000E+00 -0.00000000000E+00 -0.21648827648E+03  0.21648827648E+03  0.00000000000E+00 0.  1.
      99926    2    1    2    0    0  0.00000000000E+00  0.00000000000E+00  0.26159785938E+02  0.45913633890E+03  0.45839049215E+03 0.  0.
      99925    2    3    3    0    0  0.98371195343E+02 -0.29612088360E+02  0.69621579306E+02  0.29153501601E+03  0.26380245148E+03 0.  0.
         25    1    4    4    0    0  0.22418698647E+02  0.14799908605E+02  0.13596880901E+02  0.12866242114E+03  0.12509000000E+03 0.  0.
         25    1    4    4    0    0  0.75952496697E+02 -0.44411996965E+02  0.56024698405E+02  0.16287259487E+03  0.12509000000E+03 0.  0.
         25    1    3    3    0    0 -0.98371195343E+02  0.29612088360E+02 -0.43461793369E+02  0.16760132289E+03  0.12509000000E+03 0.  0.
<mgrwt>
<rscale>  2 0.45839049E+03</rscale>
<asrwt>0</asrwt>
<pdfrwt beam="1">  1       21 0.35683539E-01 0.45839049E+03</pdfrwt>
<pdfrwt beam="2">  1       21 0.31836511E-01 0.45839049E+03</pdfrwt>
<totfact> 0.66428551E+04</totfact>
</mgrwt>
</event>
<event>
 7    0  0.4752811E-002  0.4584016E+03  0.7546771E-02  0.1025246E+00
         21   -1    0    0  502  501  0.00000000000E+00  0.00000000000E+00  0.26866990750E+03  0.26866990750E+03  0.00000000000E+00 0. -1.
         21   -1    0    0  501  502 -0.00000000000E+00 -0.00000000000E+00 -0.19552995212E+03  0.19552995212E+03  0.00000000000E+00 0. -1.
      99926    2    1    2    0    0 -0.71054273576E-14  0.00000000000E+00  0.73139955374E+02  0.46419985962E+03  0.45840163242E+03 0.  0.
      99925    2    3    3    0    0  0.50315317005E+02  0.10371355066E+03  0.39892880438E+02  0.29087643995E+03  0.26406349557E+03 0.  0.
         25    1    4    4    0    0 -0.48206999498E+01  0.66931304690E+02  0.45888141939E+02  0.14918534903E+03  0.12509000000E+03 0.  0.
         25    1    4    4    0    0  0.55136016955E+02  0.36782245970E+02 -0.59952615012E+01  0.14169109092E+03  0.12509000000E+03 0.  0.
         25    1    3    3    0    0 -0.50315317005E+02 -0.10371355066E+03  0.33247074937E+02  0.17332341967E+03  0.12509000000E+03 0.  0.
<mgrwt>
<rscale>  2 0.45840163E+03</rscale>
<asrwt>0</asrwt>
<pdfrwt beam="1">  1       21 0.39510281E-01 0.45840163E+03</pdfrwt>
<pdfrwt beam="2">  1       21 0.28754405E-01 0.45840163E+03</pdfrwt>
<totfact> 0.66064910E+04</totfact>
</mgrwt>
</event>
<event>
 7    0  0.4752811E-002  0.4448524E+03  0.7546771E-02  0.1029268E+00
         21   -1    0    0  502  501  0.00000000000E+00  0.00000000000E+00  0.15406329871E+03  0.15406329871E+03  0.00000000000E+00 0. -1.
         21   -1    0    0  501  502 -0.00000000000E+00 -0.00000000000E+00 -0.32112394642E+03  0.32112394642E+03  0.00000000000E+00 0. -1.
      99926    2    1    2    0    0  0.00000000000E+00  0.00000000000E+00 -0.16706064770E+03  0.47518724513E+03  0.44485240015E+03 0.  0.
      99925    2    3    3    0    0 -0.75671477598E+02 -0.31537539717E+02 -0.17347742685E+03  0.32548930898E+03  0.26292220085E+03 0.  0.
         25    1    3    3    0    0  0.75671477598E+02  0.31537539717E+02  0.64167791440E+01  0.14969793615E+03  0.12509000000E+03 0.  0.
         25    1    4    4    0    0 -0.27010787899E+02 -0.14959112042E+02 -0.13097592049E+03  0.18372685581E+03  0.12509000000E+03 0.  0.
         25    1    4    4    0    0 -0.48660689699E+02 -0.16578427675E+02 -0.42501506354E+02  0.14176245317E+03  0.12509000000E+03 0.  0.
<mgrwt>
<rscale>  2 0.44485240E+03</rscale>
<asrwt>0</asrwt>
<pdfrwt beam="1">  1       21 0.22656368E-01 0.44485240E+03</pdfrwt>
<pdfrwt beam="2">  1       21 0.47224109E-01 0.44485240E+03</pdfrwt>
<totfact> 0.72736705E+04</totfact>
</mgrwt>
</event>
<event>
 7    0  0.4752811E-002  0.4527634E+03  0.7546771E-02  0.1026901E+00
         21   -1    0    0  502  501  0.00000000000E+00  0.00000000000E+00  0.12584989379E+03  0.12584989379E+03  0.00000000000E+00 0. -1.
         21   -1    0    0  501  502 -0.00000000000E+00 -0.00000000000E+00 -0.40722068306E+03  0.40722068306E+03  0.00000000000E+00 0. -1.
      99926    2    1    2    0    0  0.00000000000E+00  0.00000000000E+00 -0.28137078927E+03  0.53307057685E+03  0.45276342482E+03 0.  0.
      99925    2    3    3    0    0 -0.18840666897E+02 -0.55864902215E+02 -0.28825808569E+03  0.39461191522E+03  0.26296384093E+03 0.  0.
         25    1    3    3    0    0  0.18840666897E+02  0.55864902215E+02  0.68872964293E+01  0.13845866163E+03  0.12509000000E+03 0.  0.
         25    1    4    4    0    0 -0.23230577297E+02 -0.49557971813E+02 -0.10339163059E+03  0.17126876443E+03  0.12509000000E+03 0.  0.
         25    1    4    4    0    0  0.43899104006E+01 -0.63069304021E+01 -0.18486645510E+03  0.22334315080E+03  0.12509000000E+03 0.  0.
<mgrwt>
<rscale>  2 0.45276342E+03</rscale>
<asrwt>0</asrwt>
<pdfrwt beam="1">  1       21 0.18507338E-01 0.45276342E+03</pdfrwt>
<pdfrwt beam="2">  1       21 0.59885394E-01 0.45276342E+03</pdfrwt>
<totfact> 0.64127006E+04</totfact>
</mgrwt>
</event>
<event>
 7    0  0.4752811E-002  0.4769552E+03  0.7546771E-02  0.1019975E+00
         21   -1    0    0  502  501  0.00000000000E+00  0.00000000000E+00  0.32979121193E+03  0.32979121193E+03  0.00000000000E+00 0. -1.
         21   -1    0    0  501  502 -0.00000000000E+00 -0.00000000000E+00 -0.17244721115E+03  0.17244721115E+03  0.00000000000E+00 0. -1.
      99926    2    1    2    0    0  0.35527136788E-14 -0.44408920985E-14  0.15734400078E+03  0.50223842308E+03  0.47695523798E+03 0.  0.
      99925    2    3    3    0    0 -0.25651780284E+02 -0.66856452946E+01  0.23397815322E+03  0.35316457190E+03  0.26320472446E+03 0.  0.
         25    1    3    3    0    0  0.25651780284E+02  0.66856452946E+01 -0.76634152439E+02  0.14907385118E+03  0.12509000000E+03 0.  0.
         25    1    4    4    0    0 -0.68174636768E+01 -0.41458141728E+02  0.13538278266E+03  0.18905359364E+03  0.12509000000E+03 0.  0.
         25    1    4    4    0    0 -0.18834316607E+02  0.34772496434E+02  0.98595370553E+02  0.16411097826E+03  0.12509000000E+03 0.  0.
<mgrwt>
<rscale>  2 0.47695524E+03</rscale>
<asrwt>0</asrwt>
<pdfrwt beam="1">  1       21 0.48498708E-01 0.47695524E+03</pdfrwt>
<pdfrwt beam="2">  1       21 0.25359884E-01 0.47695524E+03</pdfrwt>
<totfact> 0.54902529E+04</totfact>
</mgrwt>
</event>
<event>
 7    0  0.4752811E-002  0.4521134E+03  0.7546771E-02  0.1027094E+00
         21   -1    0    0  502  501  0.00000000000E+00  0.00000000000E+00  0.30810508077E+02  0.30810508077E+02  0.00000000000E+00 0. -1.
         21   -1    0    0  501  502 -0.00000000000E+00 -0.00000000000E+00 -0.16585780068E+04  0.16585780068E+04  0.00000000000E+00 0. -1.
      99926    2    1    2    0    0  0.00000000000E+00  0.00000000000E+00 -0.16277674988E+04  0.16893885149E+04  0.45211339762E+03 0.  0.
      99925    2    3    3    0    0 -0.50857279878E+02  0.13022483653E+02 -0.13898734995E+04  0.14155325108E+04  0.26311194683E+03 0.  0.
         25    1    4    4    0    0 -0.11158143221E+02 -0.89702168686E+00 -0.87719643894E+03  0.88614130329E+03  0.12509000000E+03 0.  0.
         25    1    4    4    0    0 -0.39699136657E+02  0.13919505340E+02 -0.51267706059E+03  0.52939120755E+03  0.12509000000E+03 0.  0.
         25    1    3    3    0    0  0.50857279878E+02 -0.13022483653E+02 -0.23789399925E+03  0.27385600409E+03  0.12509000000E+03 0.  0.
<mgrwt>
<rscale>  2 0.45211340E+03</rscale>
<asrwt>0</asrwt>
<pdfrwt beam="1">  1       21 0.45309550E-02 0.45211340E+03</pdfrwt>
<pdfrwt beam="2">  1       21 0.24390864E+00 0.45211340E+03</pdfrwt>
<totfact> 0.19926106E+04</totfact>
</mgrwt>
</event>
<event>
 7    0  0.4752811E-002  0.4562117E+03  0.7546771E-02  0.1025886E+00
         21   -1    0    0  502  501  0.00000000000E+00  0.00000000000E+00  0.24755427557E+03  0.24755427557E+03  0.00000000000E+00 0.  1.
         21   -1    0    0  501  502 -0.00000000000E+00 -0.00000000000E+00 -0.21018537417E+03  0.21018537417E+03  0.00000000000E+00 0.  1.
      99926    2    1    2    0    0  0.00000000000E+00  0.00000000000E+00  0.37368901402E+02  0.45773964974E+03  0.45621174048E+03 0.  0.
      99925    2    3    3    0    0 -0.53705961875E+02  0.10016935386E+03  0.11075134121E+02  0.28669257992E+03  0.26296719756E+03 0.  0.
         25    1    3    3    0    0  0.53705961875E+02 -0.10016935386E+03  0.26293767282E+02  0.17104706981E+03  0.12509000000E+03 0.  0.
         25    1    4    4    0    0 -0.49051100679E+02  0.75903142980E+02 -0.19565238896E+02  0.15555579149E+03  0.12509000000E+03 0.  0.
         25    1    4    4    0    0 -0.46548611961E+01  0.24266210878E+02  0.30640373017E+02  0.13113678844E+03  0.12509000000E+03 0.  0.
<mgrwt>
<rscale>  2 0.45621174E+03</rscale>
<asrwt>0</asrwt>
<pdfrwt beam="1">  1       21 0.36405040E-01 0.45621174E+03</pdfrwt>
<pdfrwt beam="2">  1       21 0.30909614E-01 0.45621174E+03</pdfrwt>
<totfact> 0.67688790E+04</totfact>
</mgrwt>
</event>
<event>
 7    0  0.4752811E-002  0.4577181E+03  0.7546771E-02  0.1025445E+00
         21   -1    0    0  502  501  0.00000000000E+00  0.00000000000E+00  0.31395252200E+02  0.31395252200E+02  0.00000000000E+00 0. -1.
         21   -1    0    0  501  502 -0.00000000000E+00 -0.00000000000E+00 -0.16682926666E+04  0.16682926666E+04  0.00000000000E+00 0. -1.
      99926    2    1    2    0    0  0.00000000000E+00 -0.71054273576E-14 -0.16368974144E+04  0.16996879188E+04  0.45771811854E+03 0.  0.
      99925    2    3    3    0    0 -0.10547895395E+03 -0.47318331208E+02 -0.10480263356E+04  0.10866777315E+04  0.26295333772E+03 0.  0.
         25    1    3    3    0    0  0.10547895395E+03  0.47318331208E+02 -0.58887107883E+03  0.61301018733E+03  0.12509000000E+03 0.  0.
         25    1    4    4    0    0 -0.58328481586E+02 -0.64267813387E+02 -0.57820233148E+03  0.59791137121E+03  0.12509000000E+03 0.  0.
         25    1    4    4    0    0 -0.47150472362E+02  0.16949482178E+02 -0.46982400410E+03  0.48876636025E+03  0.12509000000E+03 0.  0.
<mgrwt>
<rscale>  2 0.45771812E+03</rscale>
<asrwt>0</asrwt>
<pdfrwt beam="1">  1       21 0.46169473E-02 0.45771812E+03</pdfrwt>
<pdfrwt beam="2">  1       21 0.24533724E+00 0.45771812E+03</pdfrwt>
<totfact> 0.18866814E+04</totfact>
</mgrwt>
</event>
<event>
 7    0  0.4752811E-002  0.4484259E+03  0.7546771E-02  0.1028193E+00
         21   -1    0    0  502  501  0.00000000000E+00  0.00000000000E+00  0.28414154864E+03  0.28414154864E+03  0.00000000000E+00 0. -1.
         21   -1    0    0  501  502 -0.00000000000E+00 -0.00000000000E+00 -0.17692392849E+03  0.17692392849E+03  0.00000000000E+00 0. -1.
      99926    2    1    2    0    0  0.00000000000E+00  0.00000000000E+00  0.10721762016E+03  0.46106547713E+03  0.44842586470E+03 0.  0.
      99925    2    3    3    0    0  0.20617404334E+02  0.64758858773E+02  0.15261534385E+03  0.31164242480E+03  0.26307939981E+03 0.  0.
         25    1    3    3    0    0 -0.20617404334E+02 -0.64758858773E+02 -0.45397723698E+02  0.14942305233E+03  0.12509000000E+03 0.  0.
         25    1    4    4    0    0 -0.89817155328E+00  0.72435938592E+02  0.80236460446E+02  0.16532746171E+03  0.12509000000E+03 0.  0.
         25    1    4    4    0    0  0.21515575887E+02 -0.76770798190E+01  0.72378883407E+02  0.14631496309E+03  0.12509000000E+03 0.  0.
<mgrwt>
<rscale>  2 0.44842586E+03</rscale>
<asrwt>0</asrwt>
<pdfrwt beam="1">  1       21 0.41785522E-01 0.44842586E+03</pdfrwt>
<pdfrwt beam="2">  1       21 0.26018225E-01 0.44842586E+03</pdfrwt>
<totfact> 0.71776759E+04</totfact>
</mgrwt>
</event>
<event>
 7    0  0.4752811E-002  0.4525155E+03  0.7546771E-02  0.1026975E+00
         21   -1    0    0  502  501  0.00000000000E+00  0.00000000000E+00  0.52926324162E+03  0.52926324162E+03  0.00000000000E+00 0. -1.
         21   -1    0    0  501  502 -0.00000000000E+00 -0.00000000000E+00 -0.96724201667E+02  0.96724201667E+02  0.00000000000E+00 0. -1.
      99926    2    1    2    0    0  0.71054273576E-14 -0.71054273576E-14  0.43253903996E+03  0.62598744329E+03  0.45251547827E+03 0.  0.
      99925    2    3    3    0    0  0.54128393960E+02 -0.50650383349E+02  0.38663290404E+03  0.47350719611E+03  0.26311350766E+03 0.  0.
         25    1    4    4    0    0  0.39400541243E+02 -0.63002562812E+02  0.18361897517E+03  0.23427582400E+03  0.12509000000E+03 0.  0.
         25    1    4    4    0    0  0.14727852717E+02  0.12352179463E+02  0.20301392887E+03  0.23923137210E+03  0.12509000000E+03 0.  0.
         25    1    3    3    0    0 -0.54128393960E+02  0.50650383349E+02  0.45906135920E+02  0.15248024718E+03  0.12509000000E+03 0.  0.
<mgrwt>
<rscale>  2 0.45251548E+03</rscale>
<asrwt>0</asrwt>
<pdfrwt beam="1">  1       21 0.77832828E-01 0.45251548E+03</pdfrwt>
<pdfrwt beam="2">  1       21 0.14224148E-01 0.45251548E+03</pdfrwt>
<totfact> 0.58240534E+04</totfact>
</mgrwt>
</event>
<event>
 7    0  0.4752811E-002  0.4543805E+03  0.7546771E-02  0.1026424E+00
         21   -1    0    0  502  501  0.00000000000E+00  0.00000000000E+00  0.57910629821E+03  0.57910629821E+03  0.00000000000E+00 0.  1.
         21   -1    0    0  501  502 -0.00000000000E+00 -0.00000000000E+00 -0.89129406865E+02  0.89129406865E+02  0.00000000000E+00 0.  1.
      99926    2    1    2    0    0 -0.71054273576E-14  0.00000000000E+00  0.48997689135E+03  0.66823570508E+03  0.45438046116E+03 0.  0.
      99925    2    3    3    0    0 -0.39645274989E+02  0.83263518076E+02  0.40338862277E+03  0.49033236720E+03  0.26305681530E+03 0.  0.
         25    1    3    3    0    0  0.39645274989E+02 -0.83263518076E+02  0.86588268579E+02  0.17790333787E+03  0.12509000000E+03 0.  0.
         25    1    4    4    0    0  0.21026174001E+02  0.37551251804E+02  0.18441326848E+03  0.22695364768E+03  0.12509000000E+03 0.  0.
         25    1    4    4    0    0 -0.60671448990E+02  0.45712266271E+02  0.21897535429E+03  0.26337871952E+03  0.12509000000E+03 0.  0.
<mgrwt>
<rscale>  2 0.45438046E+03</rscale>
<asrwt>0</asrwt>
<pdfrwt beam="1">  1       21 0.85162688E-01 0.45438046E+03</pdfrwt>
<pdfrwt beam="2">  1       21 0.13107266E-01 0.45438046E+03</pdfrwt>
<totfact> 0.54929479E+04</totfact>
</mgrwt>
</event>
<event>
 7    0  0.4752811E-002  0.4636699E+03  0.7546771E-02  0.1023722E+00
         21   -1    0    0  502  501  0.00000000000E+00  0.00000000000E+00  0.24286835017E+03  0.24286835017E+03  0.00000000000E+00 0. -1.
         21   -1    0    0  501  502 -0.00000000000E+00 -0.00000000000E+00 -0.22130278372E+03  0.22130278372E+03  0.00000000000E+00 0. -1.
      99926    2    1    2    0    0  0.00000000000E+00  0.00000000000E+00  0.21565566443E+02  0.46417113389E+03  0.46366989107E+03 0.  0.
      99925    2    3    3    0    0 -0.87369652970E+02 -0.70518671210E+02 -0.32938996647E+02  0.28746631011E+03  0.26257487065E+03 0.  0.
         25    1    3    3    0    0  0.87369652970E+02  0.70518671210E+02  0.54504563090E+02  0.17670482378E+03  0.12509000000E+03 0.  0.
         25    1    4    4    0    0 -0.26857974344E+02 -0.66063483567E+02 -0.35929024788E+02  0.14840531516E+03  0.12509000000E+03 0.  0.
         25    1    4    4    0    0 -0.60511678625E+02 -0.44551876437E+01  0.29900281410E+01  0.13906099495E+03  0.12509000000E+03 0.  0.
<mgrwt>
<rscale>  2 0.46366989E+03</rscale>
<asrwt>0</asrwt>
<pdfrwt beam="1">  1       21 0.35715934E-01 0.46366989E+03</pdfrwt>
<pdfrwt beam="2">  1       21 0.32544527E-01 0.46366989E+03</pdfrwt>
<totfact> 0.63379947E+04</totfact>
</mgrwt>
</event>
<event>
 7    0  0.4752811E-002  0.4560158E+03  0.7546771E-02  0.1025943E+00
         21   -1    0    0  502  501  0.00000000000E+00  0.00000000000E+00  0.36824777170E+03  0.36824777170E+03  0.00000000000E+00 0. -1.
         21   -1    0    0  501  502 -0.00000000000E+00 -0.00000000000E+00 -0.14117559468E+03  0.14117559468E+03  0.00000000000E+00 0. -1.
      99926    2    1    2    0    0  0.00000000000E+00  0.00000000000E+00  0.22707217703E+03  0.50942336638E+03  0.45601578112E+03 0.  0.
      99925    2    3    3    0    0  0.10173553833E+03 -0.27180736462E+02  0.19165157370E+03  0.34211813802E+03  0.26310754924E+03 0.  0.
         25    1    4    4    0    0  0.83837609366E+02 -0.30892648251E+02  0.13069192068E+03  0.20176963769E+03  0.12509000000E+03 0.  0.
         25    1    4    4    0    0  0.17897928968E+02  0.37119117893E+01  0.60959653021E+02  0.14034850034E+03  0.12509000000E+03 0.  0.
         25    1    3    3    0    0 -0.10173553833E+03  0.27180736462E+02  0.35420603323E+02  0.16730522835E+03  0.12509000000E+03 0.  0.
<mgrwt>
<rscale>  2 0.45601578E+03</rscale>
<asrwt>0</asrwt>
<pdfrwt beam="1">  1       21 0.54154084E-01 0.45601578E+03</pdfrwt>
<pdfrwt beam="2">  1       21 0.20761117E-01 0.45601578E+03</pdfrwt>
<totfact> 0.64095299E+04</totfact>
</mgrwt>
</event>
<event>
 7    0  0.4752811E-002  0.4280694E+03  0.7546771E-02  0.1034472E+00
         21   -1    0    0  502  501  0.00000000000E+00  0.00000000000E+00  0.37226712952E+02  0.37226712952E+02  0.00000000000E+00 0. -1.
         21   -1    0    0  501  502 -0.00000000000E+00 -0.00000000000E+00 -0.12305907243E+04  0.12305907243E+04  0.00000000000E+00 0. -1.
      99926    2    1    2    0    0  0.00000000000E+00  0.00000000000E+00 -0.11933640114E+04  0.12678174373E+04  0.42806937595E+03 0.  0.
      99925    2    3    3    0    0 -0.76963977964E+02 -0.37466833995E+02 -0.75696274026E+03  0.80584255151E+03  0.26279727952E+03 0.  0.
         25    1    4    4    0    0 -0.35220980729E+02 -0.49283952278E+02 -0.46362279310E+03  0.48400726009E+03  0.12509000000E+03 0.  0.
         25    1    3    3    0    0  0.76963977964E+02  0.37466833995E+02 -0.43640127111E+03  0.46197488577E+03  0.12509000000E+03 0.  0.
         25    1    4    4    0    0 -0.41742997235E+02  0.11817118282E+02 -0.29333994716E+03  0.32183529142E+03  0.12509000000E+03 0.  0.
<mgrwt>
<rscale>  2 0.42806938E+03</rscale>
<asrwt>0</asrwt>
<pdfrwt beam="1">  1       21 0.54745170E-02 0.42806938E+03</pdfrwt>
<pdfrwt beam="2">  1       21 0.18096921E+00 0.42806938E+03</pdfrwt>
<totfact> 0.37284335E+04</totfact>
</mgrwt>
</event>
<event>
 7    0  0.4752811E-002  0.4587205E+03  0.7546771E-02  0.1025153E+00
         21   -1    0    0  502  501  0.00000000000E+00  0.00000000000E+00  0.19616144389E+03  0.19616144389E+03  0.00000000000E+00 0.  1.
         21   -1    0    0  501  502 -0.00000000000E+00 -0.00000000000E+00 -0.26817770822E+03  0.26817770822E+03  0.00000000000E+00 0.  1.
      99926    2    1    2    0    0  0.00000000000E+00  0.00000000000E+00 -0.72016264325E+02  0.46433915211E+03  0.45872050952E+03 0.  0.
      99925    2    3    3    0    0 -0.11429349469E+03  0.13477424963E+02 -0.65742191937E+02  0.29424648326E+03  0.26270575402E+03 0.  0.
         25    1    3    3    0    0  0.11429349469E+03 -0.13477424963E+02 -0.62740723884E+01  0.17009266885E+03  0.12509000000E+03 0.  0.
         25    1    4    4    0    0 -0.82844237964E+02 -0.24453741072E+02 -0.27647180593E+02  0.15450898974E+03  0.12509000000E+03 0.  0.
         25    1    4    4    0    0 -0.31449256728E+02  0.37931166035E+02 -0.38095011343E+02  0.13973749352E+03  0.12509000000E+03 0.  0.
<mgrwt>
<rscale>  2 0.45872051E+03</rscale>
<asrwt>0</asrwt>
<pdfrwt beam="1">  1       21 0.28847271E-01 0.45872051E+03</pdfrwt>
<pdfrwt beam="2">  1       21 0.39437898E-01 0.45872051E+03</pdfrwt>
<totfact> 0.65888771E+04</totfact>
</mgrwt>
</event>
<event>
 7    0  0.4752811E-002  0.4562718E+03  0.7546771E-02  0.1025868E+00
         21   -1    0    0  502  501  0.00000000000E+00  0.00000000000E+00  0.25288190485E+02  0.25288190485E+02  0.00000000000E+00 0. -1.
         21   -1    0    0  501  502 -0.00000000000E+00 -0.00000000000E+00 -0.20581147706E+04  0.20581147706E+04  0.00000000000E+00 0. -1.
      99926    2    1    2    0    0  0.00000000000E+00  0.00000000000E+00 -0.20328265801E+04  0.20834029611E+04  0.45627184160E+03 0.  0.
      99925    2    3    3    0    0  0.10359318369E+03  0.47556586776E+02 -0.12562496465E+04  0.12885995775E+04  0.26331069124E+03 0.  0.
         25    1    3    3    0    0 -0.10359318369E+03 -0.47556586776E+02 -0.77657693364E+03  0.79480338362E+03  0.12509000000E+03 0.  0.
         25    1    4    4    0    0  0.36793764131E+02  0.21153478090E+02 -0.42926877432E+03  0.44913298634E+03  0.12509000000E+03 0.  0.
         25    1    4    4    0    0  0.66799419558E+02  0.26403108685E+02 -0.82698087219E+03  0.83946659116E+03  0.12509000000E+03 0.  0.
<mgrwt>
<rscale>  2 0.45627184E+03</rscale>
<asrwt>0</asrwt>
<pdfrwt beam="1">  1       21 0.37188515E-02 0.45627184E+03</pdfrwt>
<pdfrwt beam="2">  1       21 0.30266394E+00 0.45627184E+03</pdfrwt>
<totfact> 0.12273950E+04</totfact>
</mgrwt>
</event>
<event>
 7    0  0.4752811E-002  0.4739984E+03  0.7546771E-02  0.1020798E+00
         21   -1    0    0  502  501  0.00000000000E+00  0.00000000000E+00  0.12570430633E+03  0.12570430633E+03  0.00000000000E+00 0.  1.
         21   -1    0    0  501  502 -0.00000000000E+00 -0.00000000000E+00 -0.44683122619E+03  0.44683122619E+03  0.00000000000E+00 0.  1.
      99926    2    1    2    0    0  0.00000000000E+00  0.00000000000E+00 -0.32112691987E+03  0.57253553252E+03  0.47399835162E+03 0.  0.
      99925    2    3    3    0    0 -0.97591490410E+02 -0.85795779235E+02 -0.18977027551E+03  0.34940532199E+03  0.26303290067E+03 0.  0.
         25    1    3    3    0    0  0.97591490410E+02  0.85795779235E+02 -0.13135664435E+03  0.22313021053E+03  0.12509000000E+03 0.  0.
         25    1    4    4    0    0 -0.34197234027E+02 -0.22395650547E+02 -0.12796037763E+03  0.18355484826E+03  0.12509000000E+03 0.  0.
         25    1    4    4    0    0 -0.63394256383E+02 -0.63400128688E+02 -0.61809897888E+02  0.16585047373E+03  0.12509000000E+03 0.  0.
<mgrwt>
<rscale>  2 0.47399835E+03</rscale>
<asrwt>0</asrwt>
<pdfrwt beam="1">  1       21 0.18485928E-01 0.47399835E+03</pdfrwt>
<pdfrwt beam="2">  1       21 0.65710474E-01 0.47399835E+03</pdfrwt>
<totfact> 0.52118754E+04</totfact>
</mgrwt>
</event>
<event>
 7    0  0.4752811E-002  0.4521943E+03  0.7546771E-02  0.1027070E+00
         21   -1    0    0  502  501  0.00000000000E+00  0.00000000000E+00  0.91850655823E+03  0.91850655823E+03  0.00000000000E+00 0.  1.
         21   -1    0    0  501  502 -0.00000000000E+00 -0.00000000000E+00 -0.55655470091E+02  0.55655470091E+02  0.00000000000E+00 0.  1.
      99926    2    1    2    0    0  0.00000000000E+00  0.71054273576E-14  0.86285108814E+03  0.97416202832E+03  0.45219426923E+03 0.  0.
      99925    2    3    3    0    0  0.68442011778E+02  0.53134143043E+02  0.39657249205E+03  0.48368187235E+03  0.26300354761E+03 0.  0.
         25    1    4    4    0    0 -0.64759973405E+01  0.23087980988E+02  0.19967064810E+03  0.23683510977E+03  0.12509000000E+03 0.  0.
         25    1    3    3    0    0 -0.68442011778E+02 -0.53134143043E+02  0.46627859609E+03  0.49048015597E+03  0.12509000000E+03 0.  0.
         25    1    4    4    0    0  0.74918009118E+02  0.30046162055E+02  0.19690184396E+03  0.24684676258E+03  0.12509000000E+03 0.  0.
<mgrwt>
<rscale>  2 0.45219427E+03</rscale>
<asrwt>0</asrwt>
<pdfrwt beam="1">  1       21 0.13507448E+00 0.45219427E+03</pdfrwt>
<pdfrwt beam="2">  1       21 0.81846285E-02 0.45219427E+03</pdfrwt>
<totfact> 0.41071041E+04</totfact>
</mgrwt>
</event>
<event>
 7    0  0.4752811E-002  0.4509844E+03  0.7546771E-02  0.1027429E+00
         21   -1    0    0  502  501  0.00000000000E+00  0.00000000000E+00  0.66060551484E+03  0.66060551484E+03  0.00000000000E+00 0.  1.
         21   -1    0    0  501  502 -0.00000000000E+00 -0.00000000000E+00 -0.76969891531E+02  0.76969891531E+02  0.00000000000E+00 0.  1.
      99926    2    1    2    0    0  0.00000000000E+00  0.00000000000E+00  0.58363562330E+03  0.73757540637E+03  0.45098441136E+03 0.  0.
      99925    2    3    3    0    0 -0.83033444764E+02 -0.40985393049E+02  0.27327523584E+03  0.39037887182E+03  0.26294857605E+03 0.  0.
         25    1    3    3    0    0  0.83033444764E+02  0.40985393049E+02  0.31036038746E+03  0.34719653454E+03  0.12509000000E+03 0.  0.
         25    1    4    4    0    0 -0.31758855157E+02 -0.11223309451E+02  0.18623463257E+03  0.22685994363E+03  0.12509000000E+03 0.  0.
         25    1    4    4    0    0 -0.51274589608E+02 -0.29762083599E+02  0.87040603275E+02  0.16351892820E+03  0.12509000000E+03 0.  0.
<mgrwt>
<rscale>  2 0.45098441E+03</rscale>
<asrwt>0</asrwt>
<pdfrwt beam="1">  1       21 0.97147867E-01 0.45098441E+03</pdfrwt>
<pdfrwt beam="2">  1       21 0.11319102E-01 0.45098441E+03</pdfrwt>
<totfact> 0.52549347E+04</totfact>
</mgrwt>
</event>
<event>
 7    0  0.4752811E-002  0.4548519E+03  0.7546771E-02  0.1026285E+00
         21   -1    0    0  502  501  0.00000000000E+00  0.00000000000E+00  0.12297574548E+03  0.12297574548E+03  0.00000000000E+00 0.  1.
         21   -1    0    0  501  502 -0.00000000000E+00 -0.00000000000E+00 -0.42059150812E+03  0.42059150812E+03  0.00000000000E+00 0.  1.
      99926    2    1    2    0    0  0.00000000000E+00  0.00000000000E+00 -0.29761576264E+03  0.54356725359E+03  0.45485186271E+03 0.  0.
      99925    2    3    3    0    0 -0.78328912155E+02 -0.24979560779E+02 -0.94516931941E+02  0.29126576714E+03  0.26295037507E+03 0.  0.
         25    1    4    4    0    0 -0.31737857196E+02 -0.21120707756E+02 -0.57160974163E+01  0.13089521666E+03  0.12509000000E+03 0.  0.
         25    1    3    3    0    0  0.78328912155E+02  0.24979560779E+02 -0.20309883070E+03  0.25230148645E+03  0.12509000000E+03 0.  0.
         25    1    4    4    0    0 -0.46591054960E+02 -0.38588530229E+01 -0.88800834524E+02  0.16037055048E+03  0.12509000000E+03 0.  0.
<mgrwt>
<rscale>  2 0.45485186E+03</rscale>
<asrwt>0</asrwt>
<pdfrwt beam="1">  1       21 0.18084669E-01 0.45485186E+03</pdfrwt>
<pdfrwt beam="2">  1       21 0.61851692E-01 0.45485186E+03</pdfrwt>
<totfact> 0.62366682E+04</totfact>
</mgrwt>
</event>
<event>
 7    0  0.4752811E-002  0.4564483E+03  0.7546771E-02  0.1025816E+00
         21   -1    0    0  502  501  0.00000000000E+00  0.00000000000E+00  0.22399883832E+03  0.22399883832E+03  0.00000000000E+00 0. -1.
         21   -1    0    0  501  502 -0.00000000000E+00 -0.00000000000E+00 -0.23252916714E+03  0.23252916714E+03  0.00000000000E+00 0. -1.
      99926    2    1    2    0    0 -0.71054273576E-14  0.00000000000E+00 -0.85303288233E+01  0.45652800546E+03  0.45644830294E+03 0.  0.
      99925    2    3    3    0    0 -0.37111739188E+02  0.73093211725E+02 -0.85229157057E+02  0.28845029386E+03  0.26309630181E+03 0.  0.
         25    1    4    4    0    0 -0.89102674187E+01  0.49407849591E+02 -0.40548178806E+01  0.13484983543E+03  0.12509000000E+03 0.  0.
         25    1    3    3    0    0  0.37111739188E+02 -0.73093211725E+02  0.76698828233E+02  0.16807771160E+03  0.12509000000E+03 0.  0.
         25    1    4    4    0    0 -0.28201471769E+02  0.23685362134E+02 -0.81174339176E+02  0.15360045843E+03  0.12509000000E+03 0.  0.
<mgrwt>
<rscale>  2 0.45644830E+03</rscale>
<asrwt>0</asrwt>
<pdfrwt beam="1">  1       21 0.32941006E-01 0.45644830E+03</pdfrwt>
<pdfrwt beam="2">  1       21 0.34195465E-01 0.45644830E+03</pdfrwt>
<totfact> 0.67648867E+04</totfact>
</mgrwt>
</event>
<event>
 7    0  0.4752811E-002  0.4569539E+03  0.7546771E-02  0.1025668E+00
         21   -1    0    0  502  501  0.00000000000E+00  0.00000000000E+00  0.38452585967E+03  0.38452585967E+03  0.00000000000E+00 0.  1.
         21   -1    0    0  501  502 -0.00000000000E+00 -0.00000000000E+00 -0.13575605634E+03  0.13575605634E+03  0.00000000000E+00 0.  1.
      99926    2    1    2    0    0  0.00000000000E+00  0.35527136788E-14  0.24876980333E+03  0.52028191601E+03  0.45695388944E+03 0.  0.
      99925    2    3    3    0    0 -0.11046920923E+03  0.24522140922E+02  0.13837822100E+03  0.31869175967E+03  0.26383920113E+03 0.  0.
         25    1    4    4    0    0 -0.28871931950E+02 -0.21775185515E+02  0.72328184023E+02  0.14895174206E+03  0.12509000000E+03 0.  0.
         25    1    4    4    0    0 -0.81597277277E+02  0.46297326437E+02  0.66050036973E+02  0.16974001761E+03  0.12509000000E+03 0.  0.
         25    1    3    3    0    0  0.11046920923E+03 -0.24522140922E+02  0.11039158233E+03  0.20159015634E+03  0.12509000000E+03 0.  0.
<mgrwt>
<rscale>  2 0.45695389E+03</rscale>
<asrwt>0</asrwt>
<pdfrwt beam="1">  1       21 0.56547921E-01 0.45695389E+03</pdfrwt>
<pdfrwt beam="2">  1       21 0.19964126E-01 0.45695389E+03</pdfrwt>
<totfact> 0.62887502E+04</totfact>
</mgrwt>
</event>
<event>
 7    0  0.4752811E-002  0.4621024E+03  0.7546771E-02  0.1024173E+00
         21   -1    0    0  502  501  0.00000000000E+00  0.00000000000E+00  0.60083706570E+02  0.60083706570E+02  0.00000000000E+00 0.  1.
         21   -1    0    0  501  502 -0.00000000000E+00 -0.00000000000E+00 -0.88850460179E+03  0.88850460179E+03  0.00000000000E+00 0.  1.
      99926    2    1    2    0    0 -0.26645352591E-14  0.00000000000E+00 -0.82842089522E+03  0.94858830836E+03  0.46210236866E+03 0.  0.
      99925    2    3    3    0    0  0.73002011790E+01  0.11075225726E+03 -0.61019340842E+03  0.67365177110E+03  0.26296645718E+03 0.  0.
         25    1    3    3    0    0 -0.73002011790E+01 -0.11075225726E+03 -0.21822748680E+03  0.27493653726E+03  0.12509000000E+03 0.  0.
         25    1    4    4    0    0  0.21089203709E+02  0.49389915465E+02 -0.38630751026E+03  0.40959140476E+03  0.12509000000E+03 0.  0.
         25    1    4    4    0    0 -0.13789002530E+02  0.61362341795E+02 -0.22388589815E+03  0.26406036634E+03  0.12509000000E+03 0.  0.
<mgrwt>
<rscale>  2 0.46210237E+03</rscale>
<asrwt>0</asrwt>
<pdfrwt beam="1">  1       21 0.88358402E-02 0.46210237E+03</pdfrwt>
<pdfrwt beam="2">  1       21 0.13066243E+00 0.46210237E+03</pdfrwt>
<totfact> 0.38987179E+04</totfact>
</mgrwt>
</event>
<event>
 7    0  0.4752811E-002  0.4594621E+03  0.7546771E-02  0.1024937E+00
         21   -1    0    0  502  501  0.00000000000E+00  0.00000000000E+00  0.52631882605E+03  0.52631882605E+03  0.00000000000E+00 0.  1.
         21   -1    0    0  501  502 -0.00000000000E+00 -0.00000000000E+00 -0.10027450879E+03  0.10027450879E+03  0.00000000000E+00 0.  1.
      99926    2    1    2    0    0  0.71054273576E-14  0.00000000000E+00  0.42604431726E+03  0.62659333485E+03  0.45946212793E+03 0.  0.
      99925    2    3    3    0    0  0.60971601684E+02  0.61176235920E+02  0.15872022278E+03  0.31907138825E+03  0.26297219173E+03 0.  0.
         25    1    4    4    0    0  0.17067581876E+02 -0.76922363504E+01  0.59874917492E+02  0.13993922501E+03  0.12509000000E+03 0.  0.
         25    1    3    3    0    0 -0.60971601684E+02 -0.61176235920E+02  0.26732409448E+03  0.30752194660E+03  0.12509000000E+03 0.  0.
         25    1    4    4    0    0  0.43904019808E+02  0.68868472271E+02  0.98845305292E+02  0.17913216324E+03  0.12509000000E+03 0.  0.
<mgrwt>
<rscale>  2 0.45946213E+03</rscale>
<asrwt>0</asrwt>
<pdfrwt beam="1">  1       21 0.77399826E-01 0.45946213E+03</pdfrwt>
<pdfrwt beam="2">  1       21 0.14746252E-01 0.45946213E+03</pdfrwt>
<totfact> 0.55103463E+04</totfact>
</mgrwt>
</event>
<event>
 7    0  0.4752811E-002  0.4606899E+03  0.7546771E-02  0.1024581E+00
         21   -1    0    0  502  501  0.00000000000E+00  0.00000000000E+00  0.83213009090E+02  0.83213009090E+02  0.00000000000E+00 0.  1.
         21   -1    0    0  501  502 -0.00000000000E+00 -0.00000000000E+00 -0.63762607677E+03  0.63762607677E+03  0.00000000000E+00 0.  1.
      99926    2    1    2    0    0  0.00000000000E+00  0.00000000000E+00 -0.55441306768E+03  0.72083908586E+03  0.46068985021E+03 0.  0.
      99925    2    3    3    0    0  0.49971914212E+02  0.89248529471E+02 -0.25348873639E+03  0.37927583625E+03  0.26292799064E+03 0.  0.
         25    1    3    3    0    0 -0.49971914212E+02 -0.89248529471E+02 -0.30092433129E+03  0.34156324961E+03  0.12509000000E+03 0.  0.
         25    1    4    4    0    0  0.28807316702E+02  0.72162229073E+01 -0.14171868412E+03  0.19134688108E+03  0.12509000000E+03 0.  0.
         25    1    4    4    0    0  0.21164597510E+02  0.82032306563E+02 -0.11177005227E+03  0.18792895517E+03  0.12509000000E+03 0.  0.
<mgrwt>
<rscale>  2 0.46068985E+03</rscale>
<asrwt>0</asrwt>
<pdfrwt beam="1">  1       21 0.12237207E-01 0.46068985E+03</pdfrwt>
<pdfrwt beam="2">  1       21 0.93768544E-01 0.46068985E+03</pdfrwt>
<totfact> 0.49531899E+04</totfact>
</mgrwt>
</event>
<event>
 7    0  0.4752811E-002  0.4639963E+03  0.7546771E-02  0.1023629E+00
         21   -1    0    0  502  501  0.00000000000E+00  0.00000000000E+00  0.28746457756E+03  0.28746457756E+03  0.00000000000E+00 0.  1.
         21   -1    0    0  501  502 -0.00000000000E+00 -0.00000000000E+00 -0.18723397631E+03  0.18723397631E+03  0.00000000000E+00 0.  1.
      99926    2    1    2    0    0  0.00000000000E+00  0.14210854715E-13  0.10023060125E+03  0.47469855387E+03  0.46399627544E+03 0.  0.
      99925    2    3    3    0    0 -0.24581444927E+02 -0.86234634790E+02  0.14627402004E+03  0.31404935784E+03  0.26304039718E+03 0.  0.
         25    1    4    4    0    0  0.15364316852E+01 -0.17077269237E+02  0.10152113135E+03  0.16201247470E+03  0.12509000000E+03 0.  0.
         25    1    4    4    0    0 -0.26117876612E+02 -0.69157365553E+02  0.44752888692E+02  0.15203688314E+03  0.12509000000E+03 0.  0.
         25    1    3    3    0    0  0.24581444927E+02  0.86234634790E+02 -0.46043418787E+02  0.16064919603E+03  0.12509000000E+03 0.  0.
<mgrwt>
<rscale>  2 0.46399628E+03</rscale>
<asrwt>0</asrwt>
<pdfrwt beam="1">  1       21 0.42274203E-01 0.46399628E+03</pdfrwt>
<pdfrwt beam="2">  1       21 0.27534408E-01 0.46399628E+03</pdfrwt>
<totfact> 0.62505528E+04</totfact>
</mgrwt>
</event>
<event>
 7    0  0.4752811E-002  0.4574401E+03  0.7546771E-02  0.1025526E+00
         21   -1    0    0  502  501  0.00000000000E+00  0.00000000000E+00  0.11572152910E+03  0.11572152910E+03  0.00000000000E+00 0. -1.
         21   -1    0    0  501  502 -0.00000000000E+00 -0.00000000000E+00 -0.45205818750E+03  0.45205818750E+03  0.00000000000E+00 0. -1.
      99926    2    1    2    0    0 -0.14210854715E-13  0.88817841970E-15 -0.33633665841E+03  0.56777971660E+03  0.45744011498E+03 0.  0.
      99925    2    3    3    0    0 -0.99651628448E+02 -0.60133388255E+01 -0.28317147867E+03  0.39913615244E+03  0.26297713694E+03 0.  0.
         25    1    4    4    0    0 -0.85567352007E+02 -0.21876985838E+02 -0.13575987120E+03  0.20464267631E+03  0.12509000000E+03 0.  0.
         25    1    3    3    0    0  0.99651628448E+02  0.60133388255E+01 -0.53165179737E+02  0.16864356416E+03  0.12509000000E+03 0.  0.
         25    1    4    4    0    0 -0.14084276441E+02  0.15863647013E+02 -0.14741160747E+03  0.19449347613E+03  0.12509000000E+03 0.  0.
<mgrwt>
<rscale>  2 0.45744011E+03</rscale>
<asrwt>0</asrwt>
<pdfrwt beam="1">  1       21 0.17017872E-01 0.45744011E+03</pdfrwt>
<pdfrwt beam="2">  1       21 0.66479146E-01 0.45744011E+03</pdfrwt>
<totfact> 0.59549196E+04</totfact>
</mgrwt>
</event>
<event>
 7    0  0.4752811E-002  0.4549306E+03  0.7546771E-02  0.1026262E+00
         21   -1    0    0  502  501  0.00000000000E+00  0.00000000000E+00  0.31205971127E+03  0.31205971127E+03  0.00000000000E+00 0.  1.
         21   -1    0    0  501  502 -0.00000000000E+00 -0.00000000000E+00 -0.16580305184E+03  0.16580305184E+03  0.00000000000E+00 0.  1.
      99926    2    1    2    0    0 -0.22204460493E-15  0.00000000000E+00  0.14625665943E+03  0.47786276310E+03  0.45493055507E+03 0.  0.
      99925    2    3    3    0    0  0.16941488277E+01  0.53029274076E+02 -0.12784069886E+02  0.26868237270E+03  0.26308137697E+03 0.  0.
         25    1    4    4    0    0  0.59599530984E+01  0.67663070597E+02 -0.84386022278E+01  0.14259218166E+03  0.12509000000E+03 0.  0.
         25    1    4    4    0    0 -0.42658042707E+01 -0.14633796520E+02 -0.43454676578E+01  0.12609019104E+03  0.12509000000E+03 0.  0.
         25    1    3    3    0    0 -0.16941488277E+01 -0.53029274076E+02  0.15904072931E+03  0.20918039041E+03  0.12509000000E+03 0.  0.
<mgrwt>
<rscale>  2 0.45493056E+03</rscale>
<asrwt>0</asrwt>
<pdfrwt beam="1">  1       21 0.45891134E-01 0.45493056E+03</pdfrwt>
<pdfrwt beam="2">  1       21 0.24382802E-01 0.45493056E+03</pdfrwt>
<totfact> 0.66892863E+04</totfact>
</mgrwt>
</event>
<event>
 7    0  0.4752811E-002  0.4579580E+03  0.7546771E-02  0.1025375E+00
         21   -1    0    0  502  501  0.00000000000E+00  0.00000000000E+00  0.28029153300E+02  0.28029153300E+02  0.00000000000E+00 0. -1.
         21   -1    0    0  501  502 -0.00000000000E+00 -0.00000000000E+00 -0.18706015680E+04  0.18706015680E+04  0.00000000000E+00 0. -1.
      99926    2    1    2    0    0 -0.14210854715E-13  0.71054273576E-14 -0.18425724147E+04  0.18986307213E+04  0.45795798110E+03 0.  0.
      99925    2    3    3    0    0  0.10466297994E+03 -0.49280374290E+02 -0.11252857501E+04  0.11613854690E+04  0.26299295366E+03 0.  0.
         25    1    4    4    0    0  0.75337518643E+02 -0.53048367764E+02 -0.52569831976E+03  0.54817524802E+03  0.12509000000E+03 0.  0.
         25    1    4    4    0    0  0.29325461292E+02  0.37679934744E+01 -0.59958743031E+03  0.61321022100E+03  0.12509000000E+03 0.  0.
         25    1    3    3    0    0 -0.10466297994E+03  0.49280374290E+02 -0.71728666464E+03  0.73724525229E+03  0.12509000000E+03 0.  0.
<mgrwt>
<rscale>  2 0.45795798E+03</rscale>
<asrwt>0</asrwt>
<pdfrwt beam="1">  1       21 0.41219347E-02 0.45795798E+03</pdfrwt>
<pdfrwt beam="2">  1       21 0.27508844E+00 0.45795798E+03</pdfrwt>
<totfact> 0.15086871E+04</totfact>
</mgrwt>
</event>
<event>
 7    0  0.4752811E-002  0.4531732E+03  0.7546771E-02  0.1026780E+00
         21   -1    0    0  502  501  0.00000000000E+00  0.00000000000E+00  0.76630027343E+02  0.76630027343E+02  0.00000000000E+00 0.  1.
         21   -1    0    0  501  502 -0.00000000000E+00 -0.00000000000E+00 -0.66999174841E+03  0.66999174841E+03  0.00000000000E+00 0.  1.
      99926    2    1    2    0    0  0.00000000000E+00  0.00000000000E+00 -0.59336172106E+03  0.74662177575E+03  0.45317319427E+03 0.  0.
      99925    2    3    3    0    0  0.69779000790E+02 -0.80586443011E+02 -0.42767033769E+03  0.51324562793E+03  0.26297504273E+03 0.  0.
         25    1    4    4    0    0  0.42452530940E+02 -0.50029032857E+01 -0.16511124821E+03  0.21150999695E+03  0.12509000000E+03 0.  0.
         25    1    4    4    0    0  0.27326469850E+02 -0.75583539726E+02 -0.26255908948E+03  0.30173563098E+03  0.12509000000E+03 0.  0.
         25    1    3    3    0    0 -0.69779000790E+02  0.80586443011E+02 -0.16569138337E+03  0.23337614782E+03  0.12509000000E+03 0.  0.
<mgrwt>
<rscale>  2 0.45317319E+03</rscale>
<asrwt>0</asrwt>
<pdfrwt beam="1">  1       21 0.11269122E-01 0.45317319E+03</pdfrwt>
<pdfrwt beam="2">  1       21 0.98528194E-01 0.45317319E+03</pdfrwt>
<totfact> 0.51174571E+04</totfact>
</mgrwt>
</event>
<event>
 7    0  0.4752811E-002  0.4503448E+03  0.7546771E-02  0.1027619E+00
         21   -1    0    0  502  501  0.00000000000E+00  0.00000000000E+00  0.26454265485E+03  0.26454265485E+03  0.00000000000E+00 0.  1.
         21   -1    0    0  501  502 -0.00000000000E+00 -0.00000000000E+00 -0.19166136402E+03  0.19166136402E+03  0.00000000000E+00 0.  1.
      99926    2    1    2    0    0  0.14210854715E-13  0.71054273576E-14  0.72881290835E+02  0.45620401887E+03  0.45034478379E+03 0.  0.
      99925    2    3    3    0    0  0.10273594732E+03 -0.34641232605E+02  0.54091661300E+02  0.28960495481E+03  0.26304074240E+03 0.  0.
         25    1    4    4    0    0  0.86450258842E+02 -0.26868655450E+02  0.52875261070E+02  0.16321419434E+03  0.12509000000E+03 0.  0.
         25    1    4    4    0    0  0.16285688474E+02 -0.77725771553E+01  0.12164002292E+01  0.12639076048E+03  0.12509000000E+03 0.  0.
         25    1    3    3    0    0 -0.10273594732E+03  0.34641232605E+02  0.18789629535E+02  0.16659906406E+03  0.12509000000E+03 0.  0.
<mgrwt>
<rscale>  2 0.45034478E+03</rscale>
<asrwt>0</asrwt>
<pdfrwt beam="1">  1       21 0.38903332E-01 0.45034478E+03</pdfrwt>
<pdfrwt beam="2">  1       21 0.28185495E-01 0.45034478E+03</pdfrwt>
<totfact> 0.71059588E+04</totfact>
</mgrwt>
</event>
<event>
 7    0  0.4752811E-002  0.4520251E+03  0.7546771E-02  0.1027120E+00
         21   -1    0    0  502  501  0.00000000000E+00  0.00000000000E+00  0.12663741402E+03  0.12663741402E+03  0.00000000000E+00 0.  1.
         21   -1    0    0  501  502 -0.00000000000E+00 -0.00000000000E+00 -0.40336950599E+03  0.40336950599E+03  0.00000000000E+00 0.  1.
      99926    2    1    2    0    0  0.00000000000E+00  0.71054273576E-14 -0.27673209197E+03  0.53000692001E+03  0.45202509282E+03 0.  0.
      99925    2    3    3    0    0 -0.94637814430E+02 -0.40308310868E+02 -0.12752633326E+03  0.30980032979E+03  0.26293003408E+03 0.  0.
         25    1    4    4    0    0 -0.89524254772E+02 -0.23428972521E+02 -0.78656890379E+02  0.17435000272E+03  0.12509000000E+03 0.  0.
         25    1    4    4    0    0 -0.51135596571E+01 -0.16879338347E+02 -0.48869442880E+02  0.13545032707E+03  0.12509000000E+03 0.  0.
         25    1    3    3    0    0  0.94637814430E+02  0.40308310868E+02 -0.14920575871E+03  0.22020659022E+03  0.12509000000E+03 0.  0.
<mgrwt>
<rscale>  2 0.45202509E+03</rscale>
<asrwt>0</asrwt>
<pdfrwt beam="1">  1       21 0.18623149E-01 0.45202509E+03</pdfrwt>
<pdfrwt beam="2">  1       21 0.59319046E-01 0.45202509E+03</pdfrwt>
<totfact> 0.64717950E+04</totfact>
</mgrwt>
</event>
<event>
 7    0  0.4752811E-002  0.4567884E+03  0.7546771E-02  0.1025717E+00
         21   -1    0    0  502  501  0.00000000000E+00  0.00000000000E+00  0.40035450198E+03  0.40035450198E+03  0.00000000000E+00 0. -1.
         21   -1    0    0  501  502 -0.00000000000E+00 -0.00000000000E+00 -0.13029431767E+03  0.13029431767E+03  0.00000000000E+00 0. -1.
      99926    2    1    2    0    0  0.00000000000E+00  0.00000000000E+00  0.27006018432E+03  0.53064881965E+03  0.45678842656E+03 0.  0.
      99925    2    3    3    0    0 -0.32368833456E+02  0.10402485182E+03  0.12754964563E+03  0.31195800385E+03  0.26302086019E+03 0.  0.
         25    1    4    4    0    0 -0.47011628540E+02  0.52244389835E+02  0.36185210995E+02  0.14797448118E+03  0.12509000000E+03 0.  0.
         25    1    4    4    0    0  0.14642795084E+02  0.51780461985E+02  0.91364434631E+02  0.16398352267E+03  0.12509000000E+03 0.  0.
         25    1    3    3    0    0  0.32368833456E+02 -0.10402485182E+03  0.14251053869E+03  0.21869081580E+03  0.12509000000E+03 0.  0.
<mgrwt>
<rscale>  2 0.45678843E+03</rscale>
<asrwt>0</asrwt>
<pdfrwt beam="1">  1       21 0.58875662E-01 0.45678843E+03</pdfrwt>
<pdfrwt beam="2">  1       21 0.19160929E-01 0.45678843E+03</pdfrwt>
<totfact> 0.62275174E+04</totfact>
</mgrwt>
</event>
<event>
 7    0  0.4752811E-002  0.4551314E+03  0.7546771E-02  0.1026203E+00
         21   -1    0    0  502  501  0.00000000000E+00  0.00000000000E+00  0.88621035840E+02  0.88621035840E+02  0.00000000000E+00 0.  1.
         21   -1    0    0  501  502 -0.00000000000E+00 -0.00000000000E+00 -0.58435512383E+03  0.58435512383E+03  0.00000000000E+00 0.  1.
      99926    2    1    2    0    0  0.00000000000E+00  0.00000000000E+00 -0.49573408799E+03  0.67297615967E+03  0.45513143760E+03 0.  0.
      99925    2    3    3    0    0  0.31491025832E+02 -0.10409312843E+03 -0.35834714224E+03  0.45768625034E+03  0.26312917989E+03 0.  0.
         25    1    3    3    0    0 -0.31491025832E+02  0.10409312843E+03 -0.13738694575E+03  0.21528990933E+03  0.12509000000E+03 0.  0.
         25    1    4    4    0    0  0.46343635433E+02 -0.78783256909E+02 -0.17394221013E+03  0.23293332668E+03  0.12509000000E+03 0.  0.
         25    1    4    4    0    0 -0.14852609601E+02 -0.25309871523E+02 -0.18440493210E+03  0.22475292366E+03  0.12509000000E+03 0.  0.
<mgrwt>
<rscale>  2 0.45513144E+03</rscale>
<asrwt>0</asrwt>
<pdfrwt beam="1">  1       21 0.13032505E-01 0.45513144E+03</pdfrwt>
<pdfrwt beam="2">  1       21 0.85934576E-01 0.45513144E+03</pdfrwt>
<totfact> 0.54338824E+04</totfact>
</mgrwt>
</event>
<event>
 7    0  0.4752811E-002  0.4506784E+03  0.7546771E-02  0.1027520E+00
         21   -1    0    0  502  501  0.00000000000E+00  0.00000000000E+00  0.34021743675E+03  0.34021743675E+03  0.00000000000E+00 0.  1.
         21   -1    0    0  501  502 -0.00000000000E+00 -0.00000000000E+00 -0.14925088002E+03  0.14925088002E+03  0.00000000000E+00 0.  1.
      99926    2    1    2    0    0  0.00000000000E+00 -0.44408920985E-15  0.19096655673E+03  0.48946831677E+03  0.45067838570E+03 0.  0.
      99925    2    3    3    0    0  0.88137875260E+02  0.14718662772E+01  0.19017399803E+03  0.33643698764E+03  0.26316011416E+03 0.  0.
         25    1    4    4    0    0  0.66910322545E+02 -0.23634088114E+01  0.14180915155E+03  0.20059890460E+03  0.12509000000E+03 0.  0.
         25    1    4    4    0    0  0.21227552715E+02  0.38352750886E+01  0.48364846479E+02  0.13583808304E+03  0.12509000000E+03 0.  0.
         25    1    3    3    0    0 -0.88137875260E+02 -0.14718662772E+01  0.79255869845E+00  0.15303132913E+03  0.12509000000E+03 0.  0.
<mgrwt>
<rscale>  2 0.45067839E+03</rscale>
<asrwt>0</asrwt>
<pdfrwt beam="1">  1       21 0.50031976E-01 0.45067839E+03</pdfrwt>
<pdfrwt beam="2">  1       21 0.21948659E-01 0.45067839E+03</pdfrwt>
<totfact> 0.68331452E+04</totfact>
</mgrwt>
</event>
<event>
 7    0  0.4752811E-002  0.4579186E+03  0.7546771E-02  0.1025387E+00
         21   -1    0    0  502  501  0.00000000000E+00  0.00000000000E+00  0.59893485090E+03  0.59893485090E+03  0.00000000000E+00 0. -1.
         21   -1    0    0  501  502 -0.00000000000E+00 -0.00000000000E+00 -0.87525968097E+02  0.87525968097E+02  0.00000000000E+00 0. -1.
      99926    2    1    2    0    0  0.00000000000E+00  0.00000000000E+00  0.51140888281E+03  0.68646081900E+03  0.45791856329E+03 0.  0.
      99925    2    3    3    0    0 -0.48936365645E+02  0.50644477695E+02  0.45895181026E+03  0.53362468596E+03  0.26298081739E+03 0.  0.
         25    1    4    4    0    0 -0.18409111980E+01  0.15225082755E+02  0.28337729592E+03  0.31013769852E+03  0.12509000000E+03 0.  0.
         25    1    4    4    0    0 -0.47095454447E+02  0.35419394940E+02  0.17557451434E+03  0.22348698744E+03  0.12509000000E+03 0.  0.
         25    1    3    3    0    0  0.48936365645E+02 -0.50644477695E+02  0.52457072541E+02  0.15283613304E+03  0.12509000000E+03 0.  0.
<mgrwt>
<rscale>  2 0.45791856E+03</rscale>
<asrwt>0</asrwt>
<pdfrwt beam="1">  1       21 0.88078653E-01 0.45791856E+03</pdfrwt>
<pdfrwt beam="2">  1       21 0.12871466E-01 0.45791856E+03</pdfrwt>
<totfact> 0.52429304E+04</totfact>
</mgrwt>
</event>
<event>
 7    0  0.4752811E-002  0.4526251E+03  0.7546771E-02  0.1026942E+00
         21   -1    0    0  502  501  0.00000000000E+00  0.00000000000E+00  0.88334550467E+03  0.88334550467E+03  0.00000000000E+00 0. -1.
         21   -1    0    0  501  502 -0.00000000000E+00 -0.00000000000E+00 -0.57981121311E+02  0.57981121311E+02  0.00000000000E+00 0. -1.
      99926    2    1    2    0    0  0.00000000000E+00  0.00000000000E+00  0.82536438336E+03  0.94132662598E+03  0.45262506720E+03 0.  0.
      99925    2    3    3    0    0 -0.99614717025E+02  0.48474074443E+02  0.51388051303E+03  0.58785450923E+03  0.26311008079E+03 0.  0.
         25    1    4    4    0    0 -0.21193148614E+02  0.14722733268E+02  0.29729995001E+03  0.32357483957E+03  0.12509000000E+03 0.  0.
         25    1    4    4    0    0 -0.78421568411E+02  0.33751341175E+02  0.21658056301E+03  0.26427966967E+03  0.12509000000E+03 0.  0.
         25    1    3    3    0    0  0.99614717025E+02 -0.48474074443E+02  0.31148387033E+03  0.35347211675E+03  0.12509000000E+03 0.  0.
<mgrwt>
<rscale>  2 0.45262507E+03</rscale>
<asrwt>0</asrwt>
<pdfrwt beam="1">  1       21 0.12990374E+00 0.45262507E+03</pdfrwt>
<pdfrwt beam="2">  1       21 0.85266360E-02 0.45262507E+03</pdfrwt>
<totfact> 0.42273732E+04</totfact>
</mgrwt>
</event>
<event>
 7    0  0.4752811E-002  0.4541722E+03  0.7546771E-02  0.1026485E+00
         21   -1    0    0  502  501  0.00000000000E+00  0.00000000000E+00  0.33652506763E+03  0.33652506763E+03  0.00000000000E+00 0. -1.
         21   -1    0    0  501  502 -0.00000000000E+00 -0.00000000000E+00 -0.15323703297E+03  0.15323703297E+03  0.00000000000E+00 0. -1.
      99926    2    1    2    0    0  0.00000000000E+00 -0.35527136788E-14  0.18328803466E+03  0.48976210060E+03  0.45417222673E+03 0.  0.
      99925    2    3    3    0    0 -0.73453146615E+02  0.25571373385E+02  0.20320212909E+03  0.34112381771E+03  0.26272627173E+03 0.  0.
         25    1    3    3    0    0  0.73453146615E+02 -0.25571373385E+02 -0.19914094427E+02  0.14863828289E+03  0.12509000000E+03 0.  0.
         25    1    4    4    0    0 -0.49649014560E+02 -0.24997983651E+02  0.10624227269E+03  0.17327680872E+03  0.12509000000E+03 0.  0.
         25    1    4    4    0    0 -0.23804132055E+02  0.50569357035E+02  0.96959856398E+02  0.16784700899E+03  0.12509000000E+03 0.  0.
<mgrwt>
<rscale>  2 0.45417223E+03</rscale>
<asrwt>0</asrwt>
<pdfrwt beam="1">  1       21 0.49488981E-01 0.45417223E+03</pdfrwt>
<pdfrwt beam="2">  1       21 0.22534858E-01 0.45417223E+03</pdfrwt>
<totfact> 0.66431539E+04</totfact>
</mgrwt>
</event>
<event>
 7    0  0.4752811E-002  0.4495953E+03  0.7546771E-02  0.1027843E+00
         21   -1    0    0  502  501  0.00000000000E+00  0.00000000000E+00  0.62761440404E+03  0.62761440404E+03  0.00000000000E+00 0.  1.
         21   -1    0    0  501  502 -0.00000000000E+00 -0.00000000000E+00 -0.80517572491E+02  0.80517572491E+02  0.00000000000E+00 0.  1.
      99926    2    1    2    0    0  0.00000000000E+00  0.14210854715E-13  0.54709683155E+03  0.70813197653E+03  0.44959532148E+03 0.  0.
      99925    2    3    3    0    0  0.75933791476E+02  0.75201986062E+02  0.36937803603E+03  0.46594866213E+03  0.26314775857E+03 0.  0.
         25    1    4    4    0    0  0.56176437825E+02  0.29319799834E+01  0.19912343782E+03  0.24178924761E+03  0.12509000000E+03 0.  0.
         25    1    3    3    0    0 -0.75933791476E+02 -0.75201986062E+02  0.17771879552E+03  0.24218331441E+03  0.12509000000E+03 0.  0.
         25    1    4    4    0    0  0.19757353651E+02  0.72270006079E+02  0.17025459821E+03  0.22415941451E+03  0.12509000000E+03 0.  0.
<mgrwt>
<rscale>  2 0.44959532E+03</rscale>
<asrwt>0</asrwt>
<pdfrwt beam="1">  1       21 0.92296234E-01 0.44959532E+03</pdfrwt>
<pdfrwt beam="2">  1       21 0.11840820E-01 0.44959532E+03</pdfrwt>
<totfact> 0.54755190E+04</totfact>
</mgrwt>
</event>
<event>
 7    0  0.4752811E-002  0.4562180E+03  0.7546771E-02  0.1025884E+00
         21   -1    0    0  502  501  0.00000000000E+00  0.00000000000E+00  0.18844307458E+03  0.18844307458E+03  0.00000000000E+00 0.  1.
         21   -1    0    0  501  502 -0.00000000000E+00 -0.00000000000E+00 -0.27612426548E+03  0.27612426548E+03  0.00000000000E+00 0.  1.
      99926    2    1    2    0    0  0.00000000000E+00  0.31086244690E-14 -0.87681190899E+02  0.46456734007E+03  0.45621795473E+03 0.  0.
      99925    2    3    3    0    0 -0.66590732487E+02 -0.12966075050E+01 -0.14966375737E+03  0.30988911441E+03  0.26305135643E+03 0.  0.
         25    1    3    3    0    0  0.66590732487E+02  0.12966075050E+01  0.61982566469E+02  0.15467822565E+03  0.12509000000E+03 0.  0.
         25    1    4    4    0    0 -0.46355574064E+02  0.22364960568E+02 -0.11193959050E+03  0.17557622484E+03  0.12509000000E+03 0.  0.
         25    1    4    4    0    0 -0.20235158423E+02 -0.23661568072E+02 -0.37724166869E+02  0.13431288958E+03  0.12509000000E+03 0.  0.
<mgrwt>
<rscale>  2 0.45621795E+03</rscale>
<asrwt>0</asrwt>
<pdfrwt beam="1">  1       21 0.27712217E-01 0.45621795E+03</pdfrwt>
<pdfrwt beam="2">  1       21 0.40606509E-01 0.45621795E+03</pdfrwt>
<totfact> 0.67189438E+04</totfact>
</mgrwt>
</event>
<event>
 7    0  0.4752811E-002  0.4533030E+03  0.7546771E-02  0.1026742E+00
         21   -1    0    0  502  501  0.00000000000E+00  0.00000000000E+00  0.44569641205E+02  0.44569641205E+02  0.00000000000E+00 0.  1.
         21   -1    0    0  501  502 -0.00000000000E+00 -0.00000000000E+00 -0.11525983785E+04  0.11525983785E+04  0.00000000000E+00 0.  1.
      99926    2    1    2    0    0  0.14210854715E-13  0.00000000000E+00 -0.11080287373E+04  0.11971680197E+04  0.45330297233E+03 0.  0.
      99925    2    3    3    0    0  0.70938544141E+02 -0.70514525399E+02 -0.82843550638E+03  0.87494999070E+03  0.26311123630E+03 0.  0.
         25    1    3    3    0    0 -0.70938544141E+02  0.70514525399E+02 -0.27959323089E+03  0.32221802897E+03  0.12509000000E+03 0.  0.
         25    1    4    4    0    0  0.63880583148E+02 -0.66890713275E+02 -0.43097851808E+03  0.45819765121E+03  0.12509000000E+03 0.  0.
         25    1    4    4    0    0  0.70579609929E+01 -0.36238121238E+01 -0.39745698829E+03  0.41675233949E+03  0.12509000000E+03 0.  0.
<mgrwt>
<rscale>  2 0.45330297E+03</rscale>
<asrwt>0</asrwt>
<pdfrwt beam="1">  1       21 0.65543594E-02 0.45330297E+03</pdfrwt>
<pdfrwt beam="2">  1       21 0.16949975E+00 0.45330297E+03</pdfrwt>
<totfact> 0.32675674E+04</totfact>
</mgrwt>
</event>
<event>
 7    0  0.4752811E-002  0.4517943E+03  0.7546771E-02  0.1027188E+00
         21   -1    0    0  502  501  0.00000000000E+00  0.00000000000E+00  0.50495407158E+02  0.50495407158E+02  0.00000000000E+00 0. -1.
         21   -1    0    0  501  502 -0.00000000000E+00 -0.00000000000E+00 -0.10105773260E+04  0.10105773260E+04  0.00000000000E+00 0. -1.
      99926    2    1    2    0    0  0.00000000000E+00  0.00000000000E+00 -0.96008191885E+03  0.10610727332E+04  0.45179426088E+03 0.  0.
      99925    2    3    3    0    0  0.81866964230E+02  0.35554331116E+02 -0.45417299247E+03  0.53234060799E+03  0.26295837226E+03 0.  0.
         25    1    3    3    0    0 -0.81866964230E+02 -0.35554331116E+02 -0.50590892638E+03  0.52873212517E+03  0.12509000000E+03 0.  0.
         25    1    4    4    0    0  0.41850308255E+02  0.35463480603E+02 -0.30119771016E+03  0.33072144694E+03  0.12509000000E+03 0.  0.
         25    1    4    4    0    0  0.40016655975E+02  0.90850513312E-01 -0.15297528231E+03  0.20161916106E+03  0.12509000000E+03 0.  0.
<mgrwt>
<rscale>  2 0.45179426E+03</rscale>
<asrwt>0</asrwt>
<pdfrwt beam="1">  1       21 0.74257961E-02 0.45179426E+03</pdfrwt>
<pdfrwt beam="2">  1       21 0.14861429E+00 0.45179426E+03</pdfrwt>
<totfact> 0.37810860E+04</totfact>
</mgrwt>
</event>
<event>
 7    0  0.4752811E-002  0.4615371E+03  0.7546771E-02  0.1024336E+00
         21   -1    0    0  502  501  0.00000000000E+00  0.00000000000E+00  0.14564707859E+04  0.14564707859E+04  0.00000000000E+00 0. -1.
         21   -1    0    0  501  502 -0.00000000000E+00 -0.00000000000E+00 -0.36563818325E+02  0.36563818325E+02  0.00000000000E+00 0. -1.
      99926    2    1    2    0    0 -0.71054273576E-14  0.00000000000E+00  0.14199069676E+04  0.14930346042E+04  0.46153714135E+03 0.  0.
      99925    2    3    3    0    0  0.34256181227E+02 -0.62292950760E+02  0.11977678401E+04  0.12283702929E+04  0.26304349425E+03 0.  0.
         25    1    3    3    0    0 -0.34256181227E+02  0.62292950760E+02  0.22213912743E+03  0.26466431135E+03  0.12509000000E+03 0.  0.
         25    1    4    4    0    0  0.44329333568E+02 -0.54746861416E+02  0.54401208366E+03  0.56263572932E+03  0.12509000000E+03 0.  0.
         25    1    4    4    0    0 -0.10073152341E+02 -0.75460893439E+01  0.65375575649E+03  0.66573456355E+03  0.12509000000E+03 0.  0.
<mgrwt>
<rscale>  2 0.46153714E+03</rscale>
<asrwt>0</asrwt>
<pdfrwt beam="1">  1       21 0.21418684E+00 0.46153714E+03</pdfrwt>
<pdfrwt beam="2">  1       21 0.53770331E-02 0.46153714E+03</pdfrwt>
<totfact> 0.22771943E+04</totfact>
</mgrwt>
</event>
<event>
 7    0  0.4752811E-002  0.4573180E+03  0.7546771E-02  0.1025562E+00
         21   -1    0    0  502  501  0.00000000000E+00  0.00000000000E+00  0.24346059417E+03  0.24346059417E+03  0.00000000000E+00 0. -1.
         21   -1    0    0  501  502 -0.00000000000E+00 -0.00000000000E+00 -0.21475732411E+03  0.21475732411E+03  0.00000000000E+00 0. -1.
      99926    2    1    2    0    0  0.00000000000E+00  0.00000000000E+00  0.28703270063E+02  0.45821791828E+03  0.45731803258E+03 0.  0.
      99925    2    3    3    0    0 -0.64582742656E+02  0.62297922012E+02  0.89953399186E+02  0.29253433988E+03  0.26350097580E+03 0.  0.
         25    1    3    3    0    0  0.64582742656E+02 -0.62297922012E+02 -0.61250129122E+02  0.16568357841E+03  0.12509000000E+03 0.  0.
         25    1    4    4    0    0 -0.38012199118E+02  0.61865817671E+02  0.77383153121E+02  0.16403648120E+03  0.12509000000E+03 0.  0.
         25    1    4    4    0    0 -0.26570543537E+02  0.43210434147E+00  0.12570246065E+02  0.12849785868E+03  0.12509000000E+03 0.  0.
<mgrwt>
<rscale>  2 0.45731803E+03</rscale>
<asrwt>0</asrwt>
<pdfrwt beam="1">  1       21 0.35803029E-01 0.45731803E+03</pdfrwt>
<pdfrwt beam="2">  1       21 0.31581959E-01 0.45731803E+03</pdfrwt>
<totfact> 0.67061801E+04</totfact>
</mgrwt>
</event>
<event>
 7    0  0.4752811E-002  0.5029326E+03  0.7546771E-02  0.1013016E+00
         21   -1    0    0  502  501  0.00000000000E+00  0.00000000000E+00  0.18206373454E+03  0.18206373454E+03  0.00000000000E+00 0. -1.
         21   -1    0    0  501  502 -0.00000000000E+00 -0.00000000000E+00 -0.34732510365E+03  0.34732510365E+03  0.00000000000E+00 0. -1.
      99926    2    1    2    0    0  0.00000000000E+00  0.00000000000E+00 -0.16526136911E+03  0.52938883820E+03  0.50293262162E+03 0.  0.
      99925    2    3    3    0    0  0.82594987790E+02  0.90067444957E+01  0.36074096112E+02  0.27821851528E+03  0.26306111150E+03 0.  0.
         25    1    4    4    0    0  0.41874691662E+01  0.40667760766E+01  0.36732351270E+02  0.13050228847E+03  0.12509000000E+03 0.  0.
         25    1    3    3    0    0 -0.82594987790E+02 -0.90067444957E+01 -0.20133546522E+03  0.25117032291E+03  0.12509000000E+03 0.  0.
         25    1    4    4    0    0  0.78407518624E+02  0.49399684191E+01 -0.65825515785E+00  0.14771622682E+03  0.12509000000E+03 0.  0.
<mgrwt>
<rscale>  2 0.50293262E+03</rscale>
<asrwt>0</asrwt>
<pdfrwt beam="1">  1       21 0.26774079E-01 0.50293262E+03</pdfrwt>
<pdfrwt beam="2">  1       21 0.51077221E-01 0.50293262E+03</pdfrwt>
<totfact> 0.43983377E+04</totfact>
</mgrwt>
</event>
<event>
 7    0  0.4752811E-002  0.4504958E+03  0.7546771E-02  0.1027574E+00
         21   -1    0    0  502  501  0.00000000000E+00  0.00000000000E+00  0.12211886902E+03  0.12211886902E+03  0.00000000000E+00 0.  1.
         21   -1    0    0  501  502 -0.00000000000E+00 -0.00000000000E+00 -0.41546916633E+03  0.41546916633E+03  0.00000000000E+00 0.  1.
      99926    2    1    2    0    0 -0.35527136788E-14 -0.71054273576E-14 -0.29335029732E+03  0.53758803535E+03  0.45049583662E+03 0.  0.
      99925    2    3    3    0    0 -0.20448221900E+02 -0.56840586393E+02 -0.77482761579E+02  0.28088726962E+03  0.26314463295E+03 0.  0.
         25    1    3    3    0    0  0.20448221900E+02  0.56840586393E+02 -0.21586753574E+03  0.25670076573E+03  0.12509000000E+03 0.  0.
         25    1    4    4    0    0 -0.88847261148E+01 -0.44219434985E+02 -0.42479750535E+00  0.13297362649E+03  0.12509000000E+03 0.  0.
         25    1    4    4    0    0 -0.11563495786E+02 -0.12621151408E+02 -0.77057964074E+02  0.14791364313E+03  0.12509000000E+03 0.  0.
<mgrwt>
<rscale>  2 0.45049584E+03</rscale>
<asrwt>0</asrwt>
<pdfrwt beam="1">  1       21 0.17958657E-01 0.45049584E+03</pdfrwt>
<pdfrwt beam="2">  1       21 0.61098407E-01 0.45049584E+03</pdfrwt>
<totfact> 0.64979802E+04</totfact>
</mgrwt>
</event>
<event>
 7    0  0.4752811E-002  0.4573379E+03  0.7546771E-02  0.1025556E+00
         21   -1    0    0  502  501  0.00000000000E+00  0.00000000000E+00  0.59181583225E+03  0.59181583225E+03  0.00000000000E+00 0.  1.
         21   -1    0    0  501  502 -0.00000000000E+00 -0.00000000000E+00 -0.88354308606E+02  0.88354308606E+02  0.00000000000E+00 0.  1.
      99926    2    1    2    0    0  0.71054273576E-14 -0.35527136788E-14  0.50346152365E+03  0.68017014086E+03  0.45733785621E+03 0.  0.
      99925    2    3    3    0    0 -0.48486091320E+02 -0.27091500723E+02  0.46652959639E+03  0.53840863052E+03  0.26296223806E+03 0.  0.
         25    1    4    4    0    0 -0.11341593449E+02 -0.51901562336E+01  0.30308061501E+03  0.32811726068E+03  0.12509000000E+03 0.  0.
         25    1    3    3    0    0  0.48486091320E+02  0.27091500723E+02  0.36931927254E+02  0.14176151034E+03  0.12509000000E+03 0.  0.
         25    1    4    4    0    0 -0.37144497871E+02 -0.21901344490E+02  0.16344898138E+03  0.21029136984E+03  0.12509000000E+03 0.  0.
<mgrwt>
<rscale>  2 0.45733786E+03</rscale>
<asrwt>0</asrwt>
<pdfrwt beam="1">  1       21 0.87031738E-01 0.45733786E+03</pdfrwt>
<pdfrwt beam="2">  1       21 0.12993281E-01 0.45733786E+03</pdfrwt>
<totfact> 0.53010267E+04</totfact>
</mgrwt>
</event>
<event>
 7    0  0.4752811E-002  0.4557830E+03  0.7546771E-02  0.1026011E+00
         21   -1    0    0  502  501  0.00000000000E+00  0.00000000000E+00  0.13065367228E+03  0.13065367228E+03  0.00000000000E+00 0. -1.
         21   -1    0    0  501  502 -0.00000000000E+00 -0.00000000000E+00 -0.39749765452E+03  0.39749765452E+03  0.00000000000E+00 0. -1.
      99926    2    1    2    0    0  0.00000000000E+00  0.00000000000E+00 -0.26684398224E+03  0.52815132681E+03  0.45578296716E+03 0.  0.
      99925    2    3    3    0    0  0.96968515019E+02 -0.57008689232E+02 -0.14537063882E+03  0.32065153207E+03  0.26273922211E+03 0.  0.
         25    1    3    3    0    0 -0.96968515019E+02  0.57008689232E+02 -0.12147334342E+03  0.20749979474E+03  0.12509000000E+03 0.  0.
         25    1    4    4    0    0  0.26042700840E+02 -0.58137913389E+02 -0.54745368980E+02  0.15067449275E+03  0.12509000000E+03 0.  0.
         25    1    4    4    0    0  0.70925814179E+02  0.11292241562E+01 -0.90625269835E+02  0.16997703932E+03  0.12509000000E+03 0.  0.
<mgrwt>
<rscale>  2 0.45578297E+03</rscale>
<asrwt>0</asrwt>
<pdfrwt beam="1">  1       21 0.19213775E-01 0.45578297E+03</pdfrwt>
<pdfrwt beam="2">  1       21 0.58455538E-01 0.45578297E+03</pdfrwt>
<totfact> 0.62940326E+04</totfact>
</mgrwt>
</event>
<event>
 7    0  0.4752811E-002  0.4508901E+03  0.7546771E-02  0.1027457E+00
         21   -1    0    0  502  501  0.00000000000E+00  0.00000000000E+00  0.20481057824E+03  0.20481057824E+03  0.00000000000E+00 0.  1.
         21   -1    0    0  501  502 -0.00000000000E+00 -0.00000000000E+00 -0.24815845935E+03  0.24815845935E+03  0.00000000000E+00 0.  1.
      99926    2    1    2    0    0  0.00000000000E+00  0.00000000000E+00 -0.43347881108E+02  0.45296903758E+03  0.45089013098E+03 0.  0.
      99925    2    3    3    0    0  0.25922635944E+02  0.71426587380E+02  0.51478481621E+02  0.27857497918E+03  0.26302137653E+03 0.  0.
         25    1    3    3    0    0 -0.25922635944E+02 -0.71426587380E+02 -0.94826362730E+02  0.17439405841E+03  0.12509000000E+03 0.  0.
         25    1    4    4    0    0 -0.20699692325E+01  0.36860523992E+02 -0.12836405864E+02  0.13105443303E+03  0.12509000000E+03 0.  0.
         25    1    4    4    0    0  0.27992605177E+02  0.34566063388E+02  0.64314887486E+02  0.14752054615E+03  0.12509000000E+03 0.  0.
<mgrwt>
<rscale>  2 0.45089013E+03</rscale>
<asrwt>0</asrwt>
<pdfrwt beam="1">  1       21 0.30119203E-01 0.45089013E+03</pdfrwt>
<pdfrwt beam="2">  1       21 0.36493891E-01 0.45089013E+03</pdfrwt>
<totfact> 0.70994408E+04</totfact>
</mgrwt>
</event>
<event>
 7    0  0.4752811E-002  0.4452438E+03  0.7546771E-02  0.1029150E+00
         21   -1    0    0  502  501  0.00000000000E+00  0.00000000000E+00  0.83553344001E+03  0.83553344001E+03  0.00000000000E+00 0.  1.
         21   -1    0    0  501  502 -0.00000000000E+00 -0.00000000000E+00 -0.59316006720E+02  0.59316006720E+02  0.00000000000E+00 0.  1.
      99926    2    1    2    0    0  0.14210854715E-13  0.71054273576E-14  0.77621743329E+03  0.89484944673E+03  0.44524378555E+03 0.  0.
      99925    2    3    3    0    0 -0.71107911258E+02 -0.36952445560E+02  0.62551341754E+03  0.68323416671E+03  0.26290696597E+03 0.  0.
         25    1    4    4    0    0 -0.42542022380E+02  0.18391542363E+02  0.34364599143E+03  0.36863009647E+03  0.12509000000E+03 0.  0.
         25    1    3    3    0    0  0.71107911258E+02  0.36952445560E+02  0.15070401575E+03  0.21161528003E+03  0.12509000000E+03 0.  0.
         25    1    4    4    0    0 -0.28565888878E+02 -0.55343987923E+02  0.28186742611E+03  0.31460407023E+03  0.12509000000E+03 0.  0.
<mgrwt>
<rscale>  2 0.44524379E+03</rscale>
<asrwt>0</asrwt>
<pdfrwt beam="1">  1       21 0.12287256E+00 0.44524379E+03</pdfrwt>
<pdfrwt beam="2">  1       21 0.87229427E-02 0.44524379E+03</pdfrwt>
<totfact> 0.46940626E+04</totfact>
</mgrwt>
</event>
<event>
 7    0  0.4752811E-002  0.4524206E+03  0.7546771E-02  0.1027003E+00
         21   -1    0    0  502  501  0.00000000000E+00  0.00000000000E+00  0.45363495743E+03  0.45363495743E+03  0.00000000000E+00 0. -1.
         21   -1    0    0  501  502 -0.00000000000E+00 -0.00000000000E+00 -0.11280236786E+03  0.11280236786E+03  0.00000000000E+00 0. -1.
      99926    2    1    2    0    0 -0.14210854715E-13  0.00000000000E+00  0.34083258957E+03  0.56643732529E+03  0.45242058902E+03 0.  0.
      99925    2    3    3    0    0  0.67608576826E+02 -0.79208031289E+02  0.16762723918E+03  0.32875595584E+03  0.26293869115E+03 0.  0.
         25    1    4    4    0    0  0.73834347086E+02 -0.30863813693E+02  0.84625333051E+02  0.17091822869E+03  0.12509000000E+03 0.  0.
         25    1    4    4    0    0 -0.62257702594E+01 -0.48344217596E+02  0.83001906134E+02  0.15783772715E+03  0.12509000000E+03 0.  0.
         25    1    3    3    0    0 -0.67608576826E+02  0.79208031289E+02  0.17320535038E+03  0.23768136945E+03  0.12509000000E+03 0.  0.
<mgrwt>
<rscale>  2 0.45242059E+03</rscale>
<asrwt>0</asrwt>
<pdfrwt beam="1">  1       21 0.66711023E-01 0.45242059E+03</pdfrwt>
<pdfrwt beam="2">  1       21 0.16588584E-01 0.45242059E+03</pdfrwt>
<totfact> 0.62049320E+04</totfact>
</mgrwt>
</event>
<event>
 7    0  0.4752811E-002  0.4499709E+03  0.7546771E-02  0.1027731E+00
         21   -1    0    0  502  501  0.00000000000E+00  0.00000000000E+00  0.15247424903E+03  0.15247424903E+03  0.00000000000E+00 0. -1.
         21   -1    0    0  501  502 -0.00000000000E+00 -0.00000000000E+00 -0.33198027367E+03  0.33198027367E+03  0.00000000000E+00 0. -1.
      99926    2    1    2    0    0  0.00000000000E+00  0.00000000000E+00 -0.17950602464E+03  0.48445452270E+03  0.44997085648E+03 0.  0.
      99925    2    3    3    0    0  0.37192410508E+02 -0.51263126677E+02 -0.20853444983E+03  0.34127162873E+03  0.26261859084E+03 0.  0.
         25    1    4    4    0    0  0.39999795908E+02 -0.60596356021E+02 -0.10862635160E+03  0.18088420163E+03  0.12509000000E+03 0.  0.
         25    1    4    4    0    0 -0.28073853998E+01  0.93332293439E+01 -0.99908098225E+02  0.16038742711E+03  0.12509000000E+03 0.  0.
         25    1    3    3    0    0 -0.37192410508E+02  0.51263126677E+02  0.29028425184E+02  0.14318289397E+03  0.12509000000E+03 0.  0.
<mgrwt>
<rscale>  2 0.44997086E+03</rscale>
<asrwt>0</asrwt>
<pdfrwt beam="1">  1       21 0.22422684E-01 0.44997086E+03</pdfrwt>
<pdfrwt beam="2">  1       21 0.48820628E-01 0.44997086E+03</pdfrwt>
<totfact> 0.69094875E+04</totfact>
</mgrwt>
</event>
<event>
 7    0  0.4752811E-002  0.4600649E+03  0.7546771E-02  0.1024762E+00
         21   -1    0    0  502  501  0.00000000000E+00  0.00000000000E+00  0.28052388986E+02  0.28052388986E+02  0.00000000000E+00 0.  1.
         21   -1    0    0  501  502 -0.00000000000E+00 -0.00000000000E+00 -0.18862897971E+04  0.18862897971E+04  0.00000000000E+00 0.  1.
      99926    2    1    2    0    0  0.44408920985E-15 -0.14210854715E-13 -0.18582374082E+04  0.19143421861E+04  0.46006493076E+03 0.  0.
      99925    2    3    3    0    0 -0.25688039450E+01 -0.93417672874E+02 -0.86486922375E+03  0.90877701258E+03  0.26295137202E+03 0.  0.
         25    1    4    4    0    0 -0.22256913354E+02 -0.25987327862E+02 -0.31859059446E+03  0.34397410713E+03  0.12509000000E+03 0.  0.
         25    1    4    4    0    0  0.19688109409E+02 -0.67430345012E+02 -0.54627862929E+03  0.56480290544E+03  0.12509000000E+03 0.  0.
         25    1    3    3    0    0  0.25688039450E+01  0.93417672874E+02 -0.99336818441E+03  0.10055651736E+04  0.12509000000E+03 0.  0.
<mgrwt>
<rscale>  2 0.46006493E+03</rscale>
<asrwt>0</asrwt>
<pdfrwt beam="1">  1       21 0.41253515E-02 0.46006493E+03</pdfrwt>
<pdfrwt beam="2">  1       21 0.27739555E+00 0.46006493E+03</pdfrwt>
<totfact> 0.14577586E+04</totfact>
</mgrwt>
</event>
<event>
 7    0  0.4752811E-002  0.4550672E+03  0.7546771E-02  0.1026222E+00
         21   -1    0    0  502  501  0.00000000000E+00  0.00000000000E+00  0.25081726846E+03  0.25081726846E+03  0.00000000000E+00 0.  1.
         21   -1    0    0  501  502 -0.00000000000E+00 -0.00000000000E+00 -0.20641142155E+03  0.20641142155E+03  0.00000000000E+00 0.  1.
      99926    2    1    2    0    0  0.00000000000E+00  0.71054273576E-14  0.44405846912E+02  0.45722869001E+03  0.45506724309E+03 0.  0.
      99925    2    3    3    0    0 -0.61747603806E+02 -0.45200110600E+02 -0.56199722958E+02  0.27939504482E+03  0.26276865421E+03 0.  0.
         25    1    4    4    0    0 -0.33290448254E+02 -0.63299352819E+02 -0.27339688942E+02  0.14666297659E+03  0.12509000000E+03 0.  0.
         25    1    4    4    0    0 -0.28457155553E+02  0.18099242219E+02 -0.28860034016E+02  0.13273206822E+03  0.12509000000E+03 0.  0.
         25    1    3    3    0    0  0.61747603806E+02  0.45200110600E+02  0.10060556987E+03  0.17783364519E+03  0.12509000000E+03 0.  0.
<mgrwt>
<rscale>  2 0.45506724E+03</rscale>
<asrwt>0</asrwt>
<pdfrwt beam="1">  1       21 0.36884892E-01 0.45506724E+03</pdfrwt>
<pdfrwt beam="2">  1       21 0.30354621E-01 0.45506724E+03</pdfrwt>
<totfact> 0.68346152E+04</totfact>
</mgrwt>
</event>
<event>
 7    0  0.4752811E-002  0.4623651E+03  0.7546771E-02  0.1024098E+00
         21   -1    0    0  502  501  0.00000000000E+00  0.00000000000E+00  0.26337103001E+02  0.26337103001E+02  0.00000000000E+00 0. -1.
         21   -1    0    0  501  502 -0.00000000000E+00 -0.00000000000E+00 -0.20292802528E+04  0.20292802528E+04  0.00000000000E+00 0. -1.
      99926    2    1    2    0    0  0.00000000000E+00  0.00000000000E+00 -0.20029431498E+04  0.20556173558E+04  0.46236506371E+03 0.  0.
      99925    2    3    3    0    0 -0.65512242769E+02 -0.62808092078E+02 -0.90024000797E+03  0.94213702931E+03  0.26258979353E+03 0.  0.
         25    1    4    4    0    0 -0.22729169056E+01 -0.23332525554E+01 -0.41372795866E+03  0.43223713641E+03  0.12509000000E+03 0.  0.
         25    1    3    3    0    0  0.65512242769E+02  0.62808092078E+02 -0.11027031418E+04  0.11134803265E+04  0.12509000000E+03 0.  0.
         25    1    4    4    0    0 -0.63239325864E+02 -0.60474839523E+02 -0.48651204931E+03  0.50989989290E+03  0.12509000000E+03 0.  0.
<mgrwt>
<rscale>  2 0.46236506E+03</rscale>
<asrwt>0</asrwt>
<pdfrwt beam="1">  1       21 0.38731021E-02 0.46236506E+03</pdfrwt>
<pdfrwt beam="2">  1       21 0.29842366E+00 0.46236506E+03</pdfrwt>
<totfact> 0.12115251E+04</totfact>
</mgrwt>
</event>
<event>
 7    0  0.4752811E-002  0.4568265E+03  0.7546771E-02  0.1025706E+00
         21   -1    0    0  502  501  0.00000000000E+00  0.00000000000E+00  0.14187841969E+03  0.14187841969E+03  0.00000000000E+00 0. -1.
         21   -1    0    0  501  502 -0.00000000000E+00 -0.00000000000E+00 -0.36772764575E+03  0.36772764575E+03  0.00000000000E+00 0. -1.
      99926    2    1    2    0    0  0.17763568394E-14  0.71054273576E-14 -0.22584922606E+03  0.50960606543E+03  0.45682651960E+03 0.  0.
      99925    2    3    3    0    0 -0.11169936695E+02 -0.51707420043E+02 -0.28233311435E+02  0.26981869590E+03  0.26307144279E+03 0.  0.
         25    1    4    4    0    0 -0.13977151782E+02  0.19245638093E+00 -0.44241922750E+02  0.13341759119E+03  0.12509000000E+03 0.  0.
         25    1    4    4    0    0  0.28072150873E+01 -0.51899876424E+02  0.16008611315E+02  0.13640110471E+03  0.12509000000E+03 0.  0.
         25    1    3    3    0    0  0.11169936695E+02  0.51707420043E+02 -0.19761591463E+03  0.23978736953E+03  0.12509000000E+03 0.  0.
<mgrwt>
<rscale>  2 0.45682652E+03</rscale>
<asrwt>0</asrwt>
<pdfrwt beam="1">  1       21 0.20864473E-01 0.45682652E+03</pdfrwt>
<pdfrwt beam="2">  1       21 0.54077595E-01 0.45682652E+03</pdfrwt>
<totfact> 0.63672895E+04</totfact>
</mgrwt>
</event>
<event>
 7    0  0.4752811E-002  0.4430669E+03  0.7546771E-02  0.1029810E+00
         21   -1    0    0  502  501  0.00000000000E+00  0.00000000000E+00  0.23596627902E+02  0.23596627902E+02  0.00000000000E+00 0. -1.
         21   -1    0    0  501  502 -0.00000000000E+00 -0.00000000000E+00 -0.20798344662E+04  0.20798344662E+04  0.00000000000E+00 0. -1.
      99926    2    1    2    0    0 -0.14210854715E-13  0.00000000000E+00 -0.20562378383E+04  0.21034310941E+04  0.44306694752E+03 0.  0.
      99925    2    3    3    0    0  0.98358960203E+02  0.25210499932E+02 -0.12907535016E+04  0.13211754887E+04  0.26296390566E+03 0.  0.
         25    1    3    3    0    0 -0.98358960203E+02 -0.25210499932E+02 -0.76548433664E+03  0.78225560535E+03  0.12509000000E+03 0.  0.
         25    1    4    4    0    0  0.51854938073E+02  0.75718301874E+01 -0.83551900209E+03  0.84645482937E+03  0.12509000000E+03 0.  0.
         25    1    4    4    0    0  0.46504022130E+02  0.17638669745E+02 -0.45523449954E+03  0.47472065935E+03  0.12509000000E+03 0.  0.
<mgrwt>
<rscale>  2 0.44306695E+03</rscale>
<asrwt>0</asrwt>
<pdfrwt beam="1">  1       21 0.34700917E-02 0.44306695E+03</pdfrwt>
<pdfrwt beam="2">  1       21 0.30585806E+00 0.44306695E+03</pdfrwt>
<totfact> 0.13282290E+04</totfact>
</mgrwt>
</event>
<event>
 7    0  0.4752811E-002  0.4624080E+03  0.7546771E-02  0.1024085E+00
         21   -1    0    0  502  501  0.00000000000E+00  0.00000000000E+00  0.41213133129E+03  0.41213133129E+03  0.00000000000E+00 0. -1.
         21   -1    0    0  501  502 -0.00000000000E+00 -0.00000000000E+00 -0.12970448737E+03  0.12970448737E+03  0.00000000000E+00 0. -1.
      99926    2    1    2    0    0  0.00000000000E+00  0.17763568394E-14  0.28242684392E+03  0.54183581865E+03  0.46240797161E+03 0.  0.
      99925    2    3    3    0    0  0.34412956099E+02 -0.89752445231E+01  0.31082904063E+03  0.40872308658E+03  0.26301152530E+03 0.  0.
         25    1    3    3    0    0 -0.34412956099E+02  0.89752445231E+01 -0.28402196711E+02  0.13311273207E+03  0.12509000000E+03 0.  0.
         25    1    4    4    0    0 -0.54384328418E+01 -0.20617898759E+02  0.10695704138E+03  0.16595779916E+03  0.12509000000E+03 0.  0.
         25    1    4    4    0    0  0.39851388941E+02  0.11642654236E+02  0.20387199925E+03  0.24276528742E+03  0.12509000000E+03 0.  0.
<mgrwt>
<rscale>  2 0.46240797E+03</rscale>
<asrwt>0</asrwt>
<pdfrwt beam="1">  1       21 0.60607548E-01 0.46240797E+03</pdfrwt>
<pdfrwt beam="2">  1       21 0.19074189E-01 0.46240797E+03</pdfrwt>
<totfact> 0.58879121E+04</totfact>
</mgrwt>
</event>
<event>
 7    0  0.4752811E-002  0.4594631E+03  0.7546771E-02  0.1024937E+00
         21   -1    0    0  502  501  0.00000000000E+00  0.00000000000E+00  0.13385103199E+04  0.13385103199E+04  0.00000000000E+00 0. -1.
         21   -1    0    0  501  502 -0.00000000000E+00 -0.00000000000E+00 -0.39429337751E+02  0.39429337751E+02  0.00000000000E+00 0. -1.
      99926    2    1    2    0    0 -0.14210854715E-13  0.35527136788E-14  0.12990809822E+04  0.13779396577E+04  0.45946305831E+03 0.  0.
      99925    2    3    3    0    0 -0.11490581769E+03 -0.17984681887E+02  0.76793616580E+03  0.82000675868E+03  0.26297972129E+03 0.  0.
         25    1    3    3    0    0  0.11490581769E+03  0.17984681887E+02  0.53114481637E+03  0.55793289899E+03  0.12509000000E+03 0.  0.
         25    1    4    4    0    0 -0.45994628737E+02 -0.46293783759E+02  0.40978058266E+03  0.43338926419E+03  0.12509000000E+03 0.  0.
         25    1    4    4    0    0 -0.68911188957E+02  0.28309101872E+02  0.35815558314E+03  0.38661749449E+03  0.12509000000E+03 0.  0.
<mgrwt>
<rscale>  2 0.45946306E+03</rscale>
<asrwt>0</asrwt>
<pdfrwt beam="1">  1       21 0.19683972E+00 0.45946306E+03</pdfrwt>
<pdfrwt beam="2">  1       21 0.57984329E-02 0.45946306E+03</pdfrwt>
<totfact> 0.26011820E+04</totfact>
</mgrwt>
</event>
<event>
 7    0  0.4752811E-002  0.4575688E+03  0.7546771E-02  0.1025489E+00
         21   -1    0    0  502  501  0.00000000000E+00  0.00000000000E+00  0.43152720472E+02  0.43152720472E+02  0.00000000000E+00 0.  1.
         21   -1    0    0  501  502 -0.00000000000E+00 -0.00000000000E+00 -0.12129547781E+04  0.12129547781E+04  0.00000000000E+00 0.  1.
      99926    2    1    2    0    0  0.00000000000E+00  0.00000000000E+00 -0.11698020576E+04  0.12561074986E+04  0.45756878602E+03 0.  0.
      99925    2    3    3    0    0 -0.42493449136E+01  0.85240207375E+02 -0.94816825234E+03  0.98768059673E+03  0.26307028820E+03 0.  0.
         25    1    4    4    0    0 -0.24862120876E+02  0.72201529129E+02 -0.43957985532E+03  0.46336717964E+03  0.12509000000E+03 0.  0.
         25    1    3    3    0    0  0.42493449136E+01 -0.85240207375E+02 -0.22163380530E+03  0.26842690185E+03  0.12509000000E+03 0.  0.
         25    1    4    4    0    0  0.20612775963E+02  0.13038678246E+02 -0.50858839702E+03  0.52431341709E+03  0.12509000000E+03 0.  0.
<mgrwt>
<rscale>  2 0.45756879E+03</rscale>
<asrwt>0</asrwt>
<pdfrwt beam="1">  1       21 0.63459871E-02 0.45756879E+03</pdfrwt>
<pdfrwt beam="2">  1       21 0.17837574E+00 0.45756879E+03</pdfrwt>
<totfact> 0.29815865E+04</totfact>
</mgrwt>
</event>
<event>
 7    0  0.4752811E-002  0.4521435E+03  0.7546771E-02  0.1027085E+00
         21   -1    0    0  502  501  0.00000000000E+00  0.00000000000E+00  0.53884591934E+02  0.53884591934E+02  0.00000000000E+00 0.  1.
         21   -1    0    0  501  502 -0.00000000000E+00 -0.00000000000E+00 -0.94847967815E+03  0.94847967815E+03  0.00000000000E+00 0.  1.
      99926    2    1    2    0    0  0.00000000000E+00  0.00000000000E+00 -0.89459508621E+03  0.10023642701E+04  0.45214351887E+03 0.  0.
      99925    2    3    3    0    0 -0.41038788920E+02  0.82561934630E+02 -0.42957687677E+03  0.51206834061E+03  0.26301527931E+03 0.  0.
         25    1    4    4    0    0 -0.38489583384E+02  0.38327060402E+02 -0.28422585760E+03  0.31524951676E+03  0.12509000000E+03 0.  0.
         25    1    4    4    0    0 -0.25492055361E+01  0.44234874228E+02 -0.14535101917E+03  0.19681882385E+03  0.12509000000E+03 0.  0.
         25    1    3    3    0    0  0.41038788920E+02 -0.82561934630E+02 -0.46501820944E+03  0.49029592947E+03  0.12509000000E+03 0.  0.
<mgrwt>
<rscale>  2 0.45214352E+03</rscale>
<asrwt>0</asrwt>
<pdfrwt beam="1">  1       21 0.79242050E-02 0.45214352E+03</pdfrwt>
<pdfrwt beam="2">  1       21 0.13948230E+00 0.45214352E+03</pdfrwt>
<totfact> 0.39958941E+04</totfact>
</mgrwt>
</event>
<event>
 7    0  0.4752811E-002  0.4535094E+03  0.7546771E-02  0.1026681E+00
         21   -1    0    0  502  501  0.00000000000E+00  0.00000000000E+00  0.23451958985E+03  0.23451958985E+03  0.00000000000E+00 0.  1.
         21   -1    0    0  501  502 -0.00000000000E+00 -0.00000000000E+00 -0.21924691562E+03  0.21924691562E+03  0.00000000000E+00 0.  1.
      99926    2    1    2    0    0 -0.14210854715E-13 -0.71054273576E-14  0.15272674226E+02  0.45376650546E+03  0.45350941214E+03 0.  0.
      99925    2    3    3    0    0  0.94021353840E+02  0.57968913848E+02  0.26736068365E+02  0.28649628260E+03  0.26299219122E+03 0.  0.
         25    1    3    3    0    0 -0.94021353840E+02 -0.57968913848E+02 -0.11463394139E+02  0.16727022286E+03  0.12509000000E+03 0.  0.
         25    1    4    4    0    0  0.25049760024E+02  0.78439434643E+01 -0.16953722409E+02  0.12893391613E+03  0.12509000000E+03 0.  0.
         25    1    4    4    0    0  0.68971593815E+02  0.50124970384E+02  0.43689790774E+02  0.15756236647E+03  0.12509000000E+03 0.  0.
<mgrwt>
<rscale>  2 0.45350941E+03</rscale>
<asrwt>0</asrwt>
<pdfrwt beam="1">  1       21 0.34488175E-01 0.45350941E+03</pdfrwt>
<pdfrwt beam="2">  1       21 0.32242193E-01 0.45350941E+03</pdfrwt>
<totfact> 0.69458688E+04</totfact>
</mgrwt>
</event>
<event>
 7    0  0.4752811E-002  0.4520258E+03  0.7546771E-02  0.1027120E+00
         21   -1    0    0  502  501  0.00000000000E+00  0.00000000000E+00  0.14963065345E+03  0.14963065345E+03  0.00000000000E+00 0. -1.
         21   -1    0    0  501  502 -0.00000000000E+00 -0.00000000000E+00 -0.34138616374E+03  0.34138616374E+03  0.00000000000E+00 0. -1.
      99926    2    1    2    0    0  0.88817841970E-15  0.71054273576E-14 -0.19175551028E+03  0.49101681719E+03  0.45202581679E+03 0.  0.
      99925    2    3    3    0    0  0.94646558120E+00  0.52149959544E+02 -0.15562535590E+02  0.26872874619E+03  0.26315856900E+03 0.  0.
         25    1    3    3    0    0 -0.94646558120E+00 -0.52149959544E+02 -0.17619297469E+03  0.22228807100E+03  0.12509000000E+03 0.  0.
         25    1    4    4    0    0  0.12003703490E+02  0.65552959590E+02 -0.14039776863E+02  0.14242858857E+03  0.12509000000E+03 0.  0.
         25    1    4    4    0    0 -0.11057237909E+02 -0.13403000046E+02 -0.15227587267E+01  0.12630015762E+03  0.12509000000E+03 0.  0.
<mgrwt>
<rscale>  2 0.45202582E+03</rscale>
<asrwt>0</asrwt>
<pdfrwt beam="1">  1       21 0.22004508E-01 0.45202582E+03</pdfrwt>
<pdfrwt beam="2">  1       21 0.50203847E-01 0.45202582E+03</pdfrwt>
<totfact> 0.67485865E+04</totfact>
</mgrwt>
</event>
<event>
 7    0  0.4752811E-002  0.4601853E+03  0.7546771E-02  0.1024727E+00
         21   -1    0    0  502  501  0.00000000000E+00  0.00000000000E+00  0.12672948376E+03  0.12672948376E+03  0.00000000000E+00 0. -1.
         21   -1    0    0  501  502 -0.00000000000E+00 -0.00000000000E+00 -0.41776091725E+03  0.41776091725E+03  0.00000000000E+00 0. -1.
      99926    2    1    2    0    0 -0.17763568394E-14 -0.14210854715E-13 -0.29103143349E+03  0.54449040102E+03  0.46018529042E+03 0.  0.
      99925    2    3    3    0    0  0.10746616588E+02  0.10858635229E+03 -0.23522640466E+03  0.36936703018E+03  0.26304763041E+03 0.  0.
         25    1    4    4    0    0  0.10635420101E+02  0.82175320462E+02 -0.16681198748E+03  0.22436497659E+03  0.12509000000E+03 0.  0.
         25    1    3    3    0    0 -0.10746616588E+02 -0.10858635229E+03 -0.55805028833E+02  0.17512337084E+03  0.12509000000E+03 0.  0.
         25    1    4    4    0    0  0.11119648637E+00  0.26411031828E+02 -0.68414417176E+02  0.14500205359E+03  0.12509000000E+03 0.  0.
<mgrwt>
<rscale>  2 0.46018529E+03</rscale>
<asrwt>0</asrwt>
<pdfrwt beam="1">  1       21 0.18636689E-01 0.46018529E+03</pdfrwt>
<pdfrwt beam="2">  1       21 0.61435429E-01 0.46018529E+03</pdfrwt>
<totfact> 0.59742713E+04</totfact>
</mgrwt>
</event>
<event>
 7    0  0.4752811E-002  0.4584433E+03  0.7546771E-02  0.1025234E+00
         21   -1    0    0  502  501  0.00000000000E+00  0.00000000000E+00  0.21302834333E+03  0.21302834333E+03  0.00000000000E+00 0. -1.
         21   -1    0    0  501  502 -0.00000000000E+00 -0.00000000000E+00 -0.24664588816E+03  0.24664588816E+03  0.00000000000E+00 0. -1.
      99926    2    1    2    0    0  0.00000000000E+00 -0.35527136788E-14 -0.33617544828E+02  0.45967423149E+03  0.45844330050E+03 0.  0.
      99925    2    3    3    0    0  0.11474540862E+03 -0.21691839575E+02 -0.12225133298E+02  0.28721499551E+03  0.26211820818E+03 0.  0.
         25    1    3    3    0    0 -0.11474540862E+03  0.21691839575E+02 -0.21392411529E+02  0.17245923598E+03  0.12509000000E+03 0.  0.
         25    1    4    4    0    0  0.76069251064E+02  0.23807886555E+02 -0.48619448276E+01  0.14840651275E+03  0.12509000000E+03 0.  0.
         25    1    4    4    0    0  0.38676157557E+02 -0.45499726129E+02 -0.73631884706E+01  0.13880848276E+03  0.12509000000E+03 0.  0.
<mgrwt>
<rscale>  2 0.45844330E+03</rscale>
<asrwt>0</asrwt>
<pdfrwt beam="1">  1       21 0.31327698E-01 0.45844330E+03</pdfrwt>
<pdfrwt beam="2">  1       21 0.36271454E-01 0.45844330E+03</pdfrwt>
<totfact> 0.66362722E+04</totfact>
</mgrwt>
</event>
<event>
 7    0  0.4752811E-002  0.4369933E+03  0.7546771E-02  0.1031673E+00
         21   -1    0    0  502  501  0.00000000000E+00  0.00000000000E+00  0.19785218043E+03  0.19785218043E+03  0.00000000000E+00 0. -1.
         21   -1    0    0  501  502 -0.00000000000E+00 -0.00000000000E+00 -0.24129518402E+03  0.24129518402E+03  0.00000000000E+00 0. -1.
      99926    2    1    2    0    0  0.00000000000E+00  0.00000000000E+00 -0.43443003587E+02  0.43914736444E+03  0.43699326441E+03 0.  0.
      99925    2    3    3    0    0 -0.35885026225E+02 -0.46475464389E+02 -0.10330285411E+03  0.28855382640E+03  0.26295270899E+03 0.  0.
         25    1    3    3    0    0  0.35885026225E+02  0.46475464389E+02  0.59859850520E+02  0.15059353805E+03  0.12509000000E+03 0.  0.
         25    1    4    4    0    0 -0.18042746735E+02 -0.16931408037E+02 -0.94077458432E+02  0.15846226545E+03  0.12509000000E+03 0.  0.
         25    1    4    4    0    0 -0.17842279490E+02 -0.29544056352E+02 -0.92253956750E+01  0.13009156094E+03  0.12509000000E+03 0.  0.
<mgrwt>
<rscale>  2 0.43699326E+03</rscale>
<asrwt>0</asrwt>
<pdfrwt beam="1">  1       21 0.29095909E-01 0.43699326E+03</pdfrwt>
<pdfrwt beam="2">  1       21 0.35484586E-01 0.43699326E+03</pdfrwt>
<totfact> 0.80710038E+04</totfact>
</mgrwt>
</event>
<event>
 7    0  0.4752811E-002  0.4473495E+03  0.7546771E-02  0.1028515E+00
         21   -1    0    0  502  501  0.00000000000E+00  0.00000000000E+00  0.19050690221E+04  0.19050690221E+04  0.00000000000E+00 0. -1.
         21   -1    0    0  501  502 -0.00000000000E+00 -0.00000000000E+00 -0.26261719142E+02  0.26261719142E+02  0.00000000000E+00 0. -1.
      99926    2    1    2    0    0  0.00000000000E+00 -0.14210854715E-13  0.18788073029E+04  0.19313307412E+04  0.44734947236E+03 0.  0.
      99925    2    3    3    0    0  0.81251988032E+02 -0.66735833856E+02  0.11373195718E+04  0.11720500813E+04  0.26296392810E+03 0.  0.
         25    1    3    3    0    0 -0.81251988032E+02  0.66735833856E+02  0.74148773110E+03  0.75928065994E+03  0.12509000000E+03 0.  0.
         25    1    4    4    0    0  0.61843135754E+02 -0.22271545735E+02  0.71853175055E+03  0.73229500875E+03  0.12509000000E+03 0.  0.
         25    1    4    4    0    0  0.19408852279E+02 -0.44464288121E+02  0.41878782129E+03  0.43975507254E+03  0.12509000000E+03 0.  0.
<mgrwt>
<rscale>  2 0.44734947E+03</rscale>
<asrwt>0</asrwt>
<pdfrwt beam="1">  1       21 0.28015712E+00 0.44734947E+03</pdfrwt>
<pdfrwt beam="2">  1       21 0.38620188E-02 0.44734947E+03</pdfrwt>
<totfact> 0.15779911E+04</totfact>
</mgrwt>
</event>
<event>
 7    0  0.4752811E-002  0.4614911E+03  0.7546771E-02  0.1024350E+00
         21   -1    0    0  502  501  0.00000000000E+00  0.00000000000E+00  0.10544863000E+03  0.10544863000E+03  0.00000000000E+00 0. -1.
         21   -1    0    0  501  502 -0.00000000000E+00 -0.00000000000E+00 -0.50492369877E+03  0.50492369877E+03  0.00000000000E+00 0. -1.
      99926    2    1    2    0    0  0.17763568394E-14  0.00000000000E+00 -0.39947506877E+03  0.61037232877E+03  0.46149111494E+03 0.  0.
      99925    2    3    3    0    0 -0.12364000506E+02 -0.38028721398E+02 -0.39843886894E+03  0.47904208104E+03  0.26292343175E+03 0.  0.
         25    1    3    3    0    0  0.12364000506E+02  0.38028721398E+02 -0.10361998281E+01  0.13133024773E+03  0.12509000000E+03 0.  0.
         25    1    4    4    0    0  0.47155939531E+01 -0.52083950209E+02 -0.16775495844E+03  0.21569471221E+03  0.12509000000E+03 0.  0.
         25    1    4    4    0    0 -0.17079594459E+02  0.14055228811E+02 -0.23068391050E+03  0.26334736883E+03  0.12509000000E+03 0.  0.
<mgrwt>
<rscale>  2 0.46149111E+03</rscale>
<asrwt>0</asrwt>
<pdfrwt beam="1">  1       21 0.15507151E-01 0.46149111E+03</pdfrwt>
<pdfrwt beam="2">  1       21 0.74253486E-01 0.46149111E+03</pdfrwt>
<totfact> 0.55161108E+04</totfact>
</mgrwt>
</event>
<event>
 7    0  0.4752811E-002  0.4547885E+03  0.7546771E-02  0.1026304E+00
         21   -1    0    0  502  501  0.00000000000E+00  0.00000000000E+00  0.30136669993E+03  0.30136669993E+03  0.00000000000E+00 0. -1.
         21   -1    0    0  501  502 -0.00000000000E+00 -0.00000000000E+00 -0.17157880636E+03  0.17157880636E+03  0.00000000000E+00 0. -1.
      99926    2    1    2    0    0  0.00000000000E+00 -0.71054273576E-14  0.12978789357E+03  0.47294550629E+03  0.45478847238E+03 0.  0.
      99925    2    3    3    0    0  0.57863086267E+02  0.47001245197E+02 -0.62055614188E+01  0.27369947321E+03  0.26327863346E+03 0.  0.
         25    1    4    4    0    0  0.46442634365E+02 -0.13213591676E+02  0.27549488540E+01  0.13411418693E+03  0.12509000000E+03 0.  0.
         25    1    4    4    0    0  0.11420451902E+02  0.60214836873E+02 -0.89605102728E+01  0.13958528628E+03  0.12509000000E+03 0.  0.
         25    1    3    3    0    0 -0.57863086267E+02 -0.47001245197E+02  0.13599345498E+03  0.19924603309E+03  0.12509000000E+03 0.  0.
<mgrwt>
<rscale>  2 0.45478847E+03</rscale>
<asrwt>0</asrwt>
<pdfrwt beam="1">  1       21 0.44318633E-01 0.45478847E+03</pdfrwt>
<pdfrwt beam="2">  1       21 0.25232177E-01 0.45478847E+03</pdfrwt>
<totfact> 0.67330290E+04</totfact>
</mgrwt>
</event>
<event>
 7    0  0.4752811E-002  0.4530356E+03  0.7546771E-02  0.1026821E+00
         21   -1    0    0  502  501  0.00000000000E+00  0.00000000000E+00  0.47770694178E+02  0.47770694178E+02  0.00000000000E+00 0.  1.
         21   -1    0    0  501  502 -0.00000000000E+00 -0.00000000000E+00 -0.10740962199E+04  0.10740962199E+04  0.00000000000E+00 0.  1.
      99926    2    1    2    0    0  0.00000000000E+00  0.00000000000E+00 -0.10263255258E+04  0.11218669141E+04  0.45303563674E+03 0.  0.
      99925    2    3    3    0    0 -0.34418919058E+02 -0.93034052170E+02 -0.77341701222E+03  0.82278461579E+03  0.26260360305E+03 0.  0.
         25    1    4    4    0    0 -0.50754841071E+02 -0.28425843312E+02 -0.41664686686E+03  0.43889201659E+03  0.12509000000E+03 0.  0.
         25    1    3    3    0    0  0.34418919058E+02  0.93034052170E+02 -0.25290851354E+03  0.29908229833E+03  0.12509000000E+03 0.  0.
         25    1    4    4    0    0  0.16335922013E+02 -0.64608208858E+02 -0.35677014536E+03  0.38389259920E+03  0.12509000000E+03 0.  0.
<mgrwt>
<rscale>  2 0.45303564E+03</rscale>
<asrwt>0</asrwt>
<pdfrwt beam="1">  1       21 0.70251019E-02 0.45303564E+03</pdfrwt>
<pdfrwt beam="2">  1       21 0.15795533E+00 0.45303564E+03</pdfrwt>
<totfact> 0.35272746E+04</totfact>
</mgrwt>
</event>
<event>
 7    0  0.4752811E-002  0.4545605E+03  0.7546771E-02  0.1026371E+00
         21   -1    0    0  502  501  0.00000000000E+00  0.00000000000E+00  0.20257055214E+04  0.20257055214E+04  0.00000000000E+00 0. -1.
         21   -1    0    0  501  502 -0.00000000000E+00 -0.00000000000E+00 -0.25500405203E+02  0.25500405203E+02  0.00000000000E+00 0. -1.
      99926    2    1    2    0    0  0.00000000000E+00  0.26645352591E-14  0.20002051162E+04  0.20512059266E+04  0.45456049814E+03 0.  0.
      99925    2    3    3    0    0 -0.10731697578E+03  0.48254852852E+01  0.14111588563E+04  0.14395170980E+04  0.26324881617E+03 0.  0.
         25    1    4    4    0    0 -0.58362783774E+02  0.36327114768E+02  0.60283423576E+03  0.61950181412E+03  0.12509000000E+03 0.  0.
         25    1    4    4    0    0 -0.48954192002E+02 -0.31501629483E+02  0.80832462054E+03  0.82001528391E+03  0.12509000000E+03 0.  0.
         25    1    3    3    0    0  0.10731697578E+03 -0.48254852852E+01  0.58904625986E+03  0.61168882853E+03  0.12509000000E+03 0.  0.
<mgrwt>
<rscale>  2 0.45456050E+03</rscale>
<asrwt>0</asrwt>
<pdfrwt beam="1">  1       21 0.29789776E+00 0.45456050E+03</pdfrwt>
<pdfrwt beam="2">  1       21 0.37500610E-02 0.45456050E+03</pdfrwt>
<totfact> 0.12935770E+04</totfact>
</mgrwt>
</event>
<event>
 7    0  0.4752811E-002  0.4560368E+03  0.7546771E-02  0.1025937E+00
         21   -1    0    0  502  501  0.00000000000E+00  0.00000000000E+00  0.33711923299E+03  0.33711923299E+03  0.00000000000E+00 0.  1.
         21   -1    0    0  501  502 -0.00000000000E+00 -0.00000000000E+00 -0.15422551454E+03  0.15422551454E+03  0.00000000000E+00 0.  1.
      99926    2    1    2    0    0  0.00000000000E+00 -0.71054273576E-14  0.18289371845E+03  0.49134474752E+03  0.45603678434E+03 0.  0.
      99925    2    3    3    0    0  0.84072640044E+02 -0.39980851655E+02  0.43823109610E+02  0.28240738934E+03  0.26299580095E+03 0.  0.
         25    1    4    4    0    0  0.17273206696E+02  0.95054650610E+00 -0.65509621938E+01  0.12645034762E+03  0.12509000000E+03 0.  0.
         25    1    3    3    0    0 -0.84072640044E+02  0.39980851655E+02  0.13907060884E+03  0.20893735818E+03  0.12509000000E+03 0.  0.
         25    1    4    4    0    0  0.66799433348E+02 -0.40931398162E+02  0.50374071804E+02  0.15595704172E+03  0.12509000000E+03 0.  0.
<mgrwt>
<rscale>  2 0.45603678E+03</rscale>
<asrwt>0</asrwt>
<pdfrwt beam="1">  1       21 0.49576358E-01 0.45603678E+03</pdfrwt>
<pdfrwt beam="2">  1       21 0.22680223E-01 0.45603678E+03</pdfrwt>
<totfact> 0.65343614E+04</totfact>
</mgrwt>
</event>
<event>
 7    0  0.4752811E-002  0.4639132E+03  0.7546771E-02  0.1023652E+00
         21   -1    0    0  502  501  0.00000000000E+00  0.00000000000E+00  0.79059763959E+03  0.79059763959E+03  0.00000000000E+00 0. -1.
         21   -1    0    0  501  502 -0.00000000000E+00 -0.00000000000E+00 -0.68054670783E+02  0.68054670783E+02  0.00000000000E+00 0. -1.
      99926    2    1    2    0    0 -0.71054273576E-14  0.14210854715E-13  0.72254296881E+03  0.85865231037E+03  0.46391319052E+03 0.  0.
      99925    2    3    3    0    0  0.33256039941E+02 -0.11242282802E+03  0.39297022282E+03  0.48715458569E+03  0.26296223660E+03 0.  0.
         25    1    3    3    0    0 -0.33256039941E+02  0.11242282802E+03  0.32957274598E+03  0.37149772469E+03  0.12509000000E+03 0.  0.
         25    1    4    4    0    0  0.20561926688E+02 -0.44981094062E+02  0.25694875837E+03  0.29002804034E+03  0.12509000000E+03 0.  0.
         25    1    4    4    0    0  0.12694113253E+02 -0.67441733956E+02  0.13602146445E+03  0.19712654535E+03  0.12509000000E+03 0.  0.
<mgrwt>
<rscale>  2 0.46391319E+03</rscale>
<asrwt>0</asrwt>
<pdfrwt beam="1">  1       21 0.11626435E+00 0.46391319E+03</pdfrwt>
<pdfrwt beam="2">  1       21 0.10008040E-01 0.46391319E+03</pdfrwt>
<totfact> 0.42037734E+04</totfact>
</mgrwt>
</event>
<event>
 7    0  0.4752811E-002  0.4571354E+03  0.7546771E-02  0.1025615E+00
         21   -1    0    0  502  501  0.00000000000E+00  0.00000000000E+00  0.19011169883E+03  0.19011169883E+03  0.00000000000E+00 0. -1.
         21   -1    0    0  501  502 -0.00000000000E+00 -0.00000000000E+00 -0.27480258558E+03  0.27480258558E+03  0.00000000000E+00 0. -1.
      99926    2    1    2    0    0  0.00000000000E+00 -0.14210854715E-13 -0.84690886746E+02  0.46491428441E+03  0.45713536895E+03 0.  0.
      99925    2    3    3    0    0 -0.48647219364E+02 -0.80910811099E+02 -0.12028466138E+03  0.30420480678E+03  0.26298108944E+03 0.  0.
         25    1    4    4    0    0 -0.24724808506E+02 -0.67506167703E+02 -0.97501677934E+02  0.17413352386E+03  0.12509000000E+03 0.  0.
         25    1    3    3    0    0  0.48647219364E+02  0.80910811099E+02  0.35593774632E+02  0.16070947762E+03  0.12509000000E+03 0.  0.
         25    1    4    4    0    0 -0.23922410858E+02 -0.13404643396E+02 -0.22782983444E+02  0.13007128292E+03  0.12509000000E+03 0.  0.
<mgrwt>
<rscale>  2 0.45713537E+03</rscale>
<asrwt>0</asrwt>
<pdfrwt beam="1">  1       21 0.27957603E-01 0.45713537E+03</pdfrwt>
<pdfrwt beam="2">  1       21 0.40412145E-01 0.45713537E+03</pdfrwt>
<totfact> 0.66677477E+04</totfact>
</mgrwt>
</event>
<event>
 7    0  0.4752811E-002  0.4536246E+03  0.7546771E-02  0.1026647E+00
         21   -1    0    0  502  501  0.00000000000E+00  0.00000000000E+00  0.43053067516E+02  0.43053067516E+02  0.00000000000E+00 0.  1.
         21   -1    0    0  501  502 -0.00000000000E+00 -0.00000000000E+00 -0.11948932053E+04  0.11948932053E+04  0.00000000000E+00 0.  1.
      99926    2    1    2    0    0  0.00000000000E+00  0.00000000000E+00 -0.11518401378E+04  0.12379462728E+04  0.45362459300E+03 0.  0.
      99925    2    3    3    0    0  0.60727414585E+02 -0.70762153003E+02 -0.89456610080E+03  0.93706001626E+03  0.26294079979E+03 0.  0.
         25    1    3    3    0    0 -0.60727414585E+02  0.70762153003E+02 -0.25727403699E+03  0.30088625657E+03  0.12509000000E+03 0.  0.
         25    1    4    4    0    0  0.39824311850E+02 -0.62471723071E+02 -0.57630799566E+03  0.59436277302E+03  0.12509000000E+03 0.  0.
         25    1    4    4    0    0  0.20903102734E+02 -0.82904299318E+01 -0.31825810514E+03  0.34269724324E+03  0.12509000000E+03 0.  0.
<mgrwt>
<rscale>  2 0.45362459E+03</rscale>
<asrwt>0</asrwt>
<pdfrwt beam="1">  1       21 0.63313344E-02 0.45362459E+03</pdfrwt>
<pdfrwt beam="2">  1       21 0.17571956E+00 0.45362459E+03</pdfrwt>
<totfact> 0.31305332E+04</totfact>
</mgrwt>
</event>
<event>
 7    0  0.4752811E-002  0.4550321E+03  0.7546771E-02  0.1026232E+00
         21   -1    0    0  502  501  0.00000000000E+00  0.00000000000E+00  0.46800127850E+02  0.46800127850E+02  0.00000000000E+00 0. -1.
         21   -1    0    0  501  502 -0.00000000000E+00 -0.00000000000E+00 -0.11060559224E+04  0.11060559224E+04  0.00000000000E+00 0. -1.
      99926    2    1    2    0    0  0.00000000000E+00  0.00000000000E+00 -0.10592557946E+04  0.11528560503E+04  0.45503212449E+03 0.  0.
      99925    2    3    3    0    0 -0.11557607544E+02  0.94877452309E+02 -0.82019436534E+03  0.86661631806E+03  0.26300140028E+03 0.  0.
         25    1    4    4    0    0  0.64170019041E+01  0.45229137921E+02 -0.52608350924E+03  0.54267690169E+03  0.12509000000E+03 0.  0.
         25    1    3    3    0    0  0.11557607544E+02 -0.94877452309E+02 -0.23906142924E+03  0.28623973222E+03  0.12509000000E+03 0.  0.
         25    1    4    4    0    0 -0.17974609448E+02  0.49648314389E+02 -0.29411085610E+03  0.32393941637E+03  0.12509000000E+03 0.  0.
<mgrwt>
<rscale>  2 0.45503212E+03</rscale>
<asrwt>0</asrwt>
<pdfrwt beam="1">  1       21 0.68823729E-02 0.45503212E+03</pdfrwt>
<pdfrwt beam="2">  1       21 0.16265526E+00 0.45503212E+03</pdfrwt>
<totfact> 0.33678723E+04</totfact>
</mgrwt>
</event>
<event>
 7    0  0.4752811E-002  0.4487744E+03  0.7546771E-02  0.1028088E+00
         21   -1    0    0  502  501  0.00000000000E+00  0.00000000000E+00  0.15308811538E+03  0.15308811538E+03  0.00000000000E+00 0. -1.
         21   -1    0    0  501  502 -0.00000000000E+00 -0.00000000000E+00 -0.32889309664E+03  0.32889309664E+03  0.00000000000E+00 0. -1.
      99926    2    1    2    0    0  0.00000000000E+00  0.71054273576E-14 -0.17580498126E+03  0.48198121202E+03  0.44877443922E+03 0.  0.
      99925    2    3    3    0    0  0.53425040416E+02 -0.43986118626E+02 -0.19915751663E+03  0.33713003810E+03  0.26306640338E+03 0.  0.
         25    1    4    4    0    0  0.18998370227E+02 -0.21427756689E+02 -0.48886073956E+02  0.13732240587E+03  0.12509000000E+03 0.  0.
         25    1    3    3    0    0 -0.53425040416E+02  0.43986118626E+02  0.23352535373E+02  0.14485117391E+03  0.12509000000E+03 0.  0.
         25    1    4    4    0    0  0.34426670189E+02 -0.22558361937E+02 -0.15027144268E+03  0.19980763223E+03  0.12509000000E+03 0.  0.
<mgrwt>
<rscale>  2 0.44877444E+03</rscale>
<asrwt>0</asrwt>
<pdfrwt beam="1">  1       21 0.22512959E-01 0.44877444E+03</pdfrwt>
<pdfrwt beam="2">  1       21 0.48366631E-01 0.44877444E+03</pdfrwt>
<totfact> 0.69949757E+04</totfact>
</mgrwt>
</event>
<event>
 7    0  0.4752811E-002  0.4536957E+03  0.7546771E-02  0.1026626E+00
         21   -1    0    0  502  501  0.00000000000E+00  0.00000000000E+00  0.69286203835E+03  0.69286203835E+03  0.00000000000E+00 0. -1.
         21   -1    0    0  501  502 -0.00000000000E+00 -0.00000000000E+00 -0.74271576284E+02  0.74271576284E+02  0.00000000000E+00 0. -1.
      99926    2    1    2    0    0 -0.14210854715E-13  0.00000000000E+00  0.61859046206E+03  0.76713361463E+03  0.45369573829E+03 0.  0.
      99925    2    3    3    0    0 -0.83180186870E+02 -0.60591566990E+02  0.46396475224E+03  0.54319858004E+03  0.26308007253E+03 0.  0.
         25    1    4    4    0    0 -0.78508318951E+01 -0.53299987490E+02  0.21690463296E+03  0.25612038600E+03  0.12509000000E+03 0.  0.
         25    1    3    3    0    0  0.83180186870E+02  0.60591566990E+02  0.15462570982E+03  0.22393503459E+03  0.12509000000E+03 0.  0.
         25    1    4    4    0    0 -0.75329354975E+02 -0.72915794993E+01  0.24706011929E+03  0.28707819404E+03  0.12509000000E+03 0.  0.
<mgrwt>
<rscale>  2 0.45369574E+03</rscale>
<asrwt>0</asrwt>
<pdfrwt beam="1">  1       21 0.10189147E+00 0.45369574E+03</pdfrwt>
<pdfrwt beam="2">  1       21 0.10922291E-01 0.45369574E+03</pdfrwt>
<totfact> 0.49904492E+04</totfact>
</mgrwt>
</event>
<event>
 7    0  0.4752811E-002  0.4539972E+03  0.7546771E-02  0.1026537E+00
         21   -1    0    0  502  501  0.00000000000E+00  0.00000000000E+00  0.26092283886E+03  0.26092283886E+03  0.00000000000E+00 0.  1.
         21   -1    0    0  501  502 -0.00000000000E+00 -0.00000000000E+00 -0.19748502964E+03  0.19748502964E+03  0.00000000000E+00 0.  1.
      99926    2    1    2    0    0  0.00000000000E+00  0.35527136788E-14  0.63437809224E+02  0.45840786850E+03  0.45399715667E+03 0.  0.
      99925    2    3    3    0    0  0.50827471982E+02  0.21366419683E+02  0.14001310509E+03  0.30171951592E+03  0.26151680805E+03 0.  0.
         25    1    3    3    0    0 -0.50827471982E+02 -0.21366419683E+02 -0.76575295868E+02  0.15668835258E+03  0.12509000000E+03 0.  0.
         25    1    4    4    0    0  0.63087352031E+02  0.76731121740E+01  0.64200052310E+02  0.15429855947E+03  0.12509000000E+03 0.  0.
         25    1    4    4    0    0 -0.12259880049E+02  0.13693307509E+02  0.75813052782E+02  0.14742095645E+03  0.12509000000E+03 0.  0.
<mgrwt>
<rscale>  2 0.45399716E+03</rscale>
<asrwt>0</asrwt>
<pdfrwt beam="1">  1       21 0.38371006E-01 0.45399716E+03</pdfrwt>
<pdfrwt beam="2">  1       21 0.29041916E-01 0.45399716E+03</pdfrwt>
<totfact> 0.68845704E+04</totfact>
</mgrwt>
</event>
<event>
 7    0  0.4752811E-002  0.4529897E+03  0.7546771E-02  0.1026834E+00
         21   -1    0    0  502  501  0.00000000000E+00  0.00000000000E+00  0.17244609148E+03  0.17244609148E+03  0.00000000000E+00 0.  1.
         21   -1    0    0  501  502 -0.00000000000E+00 -0.00000000000E+00 -0.29748375270E+03  0.29748375270E+03  0.00000000000E+00 0.  1.
      99926    2    1    2    0    0 -0.71054273576E-14 -0.71054273576E-14 -0.12503766122E+03  0.46992984418E+03  0.45298967067E+03 0.  0.
      99925    2    3    3    0    0 -0.45127417897E+02 -0.39619246727E+02  0.18032330641E+02  0.27062430179E+03  0.26326066781E+03 0.  0.
         25    1    3    3    0    0  0.45127417897E+02  0.39619246727E+02 -0.14306999186E+03  0.19930554239E+03  0.12509000000E+03 0.  0.
         25    1    4    4    0    0  0.20652313365E+01 -0.12730140435E+02 -0.23787022850E+02  0.12798301533E+03  0.12509000000E+03 0.  0.
         25    1    4    4    0    0 -0.47192649233E+02 -0.26889106293E+02  0.41819353490E+02  0.14264128647E+03  0.12509000000E+03 0.  0.
<mgrwt>
<rscale>  2 0.45298967E+03</rscale>
<asrwt>0</asrwt>
<pdfrwt beam="1">  1       21 0.25359720E-01 0.45298967E+03</pdfrwt>
<pdfrwt beam="2">  1       21 0.43747610E-01 0.45298967E+03</pdfrwt>
<totfact> 0.68527372E+04</totfact>
</mgrwt>
</event>
<event>
 7    0  0.4752811E-002  0.4558355E+03  0.7546771E-02  0.1025996E+00
         21   -1    0    0  502  501  0.00000000000E+00  0.00000000000E+00  0.34423705584E+03  0.34423705584E+03  0.00000000000E+00 0.  1.
         21   -1    0    0  501  502 -0.00000000000E+00 -0.00000000000E+00 -0.15090328233E+03  0.15090328233E+03  0.00000000000E+00 0.  1.
      99926    2    1    2    0    0  0.00000000000E+00  0.14210854715E-13  0.19333377351E+03  0.49514033818E+03  0.45583550378E+03 0.  0.
      99925    2    3    3    0    0 -0.35446967136E+02  0.10507715710E+03  0.93093976205E+02  0.30022183858E+03  0.26299993827E+03 0.  0.
         25    1    4    4    0    0 -0.40828153040E+02  0.67012378766E+02  0.16484514322E+02  0.14858278602E+03  0.12509000000E+03 0.  0.
         25    1    3    3    0    0  0.35446967136E+02 -0.10507715710E+03  0.10023979730E+03  0.19491849960E+03  0.12509000000E+03 0.  0.
         25    1    4    4    0    0  0.53811859042E+01  0.38064778330E+02  0.76609461883E+02  0.15163905256E+03  0.12509000000E+03 0.  0.
<mgrwt>
<rscale>  2 0.45583550E+03</rscale>
<asrwt>0</asrwt>
<pdfrwt beam="1">  1       21 0.50623096E-01 0.45583550E+03</pdfrwt>
<pdfrwt beam="2">  1       21 0.22191659E-01 0.45583550E+03</pdfrwt>
<totfact> 0.65180035E+04</totfact>
</mgrwt>
</event>
<event>
 7    0  0.4752811E-002  0.4307993E+03  0.7546771E-02  0.1033608E+00
         21   -1    0    0  502  501  0.00000000000E+00  0.00000000000E+00  0.14390245357E+03  0.14390245357E+03  0.00000000000E+00 0.  1.
         21   -1    0    0  501  502 -0.00000000000E+00 -0.00000000000E+00 -0.32241990781E+03  0.32241990781E+03  0.00000000000E+00 0.  1.
      99926    2    1    2    0    0  0.00000000000E+00  0.00000000000E+00 -0.17851745424E+03  0.46632236138E+03  0.43079933060E+03 0.  0.
      99925    2    3    3    0    0  0.73207103787E+02 -0.39135690812E+02 -0.14849299419E+03  0.31322154935E+03  0.26299560322E+03 0.  0.
         25    1    3    3    0    0 -0.73207103787E+02  0.39135690812E+02 -0.30024460052E+02  0.15310081202E+03  0.12509000000E+03 0.  0.
         25    1    4    4    0    0  0.60965941430E+02 -0.47167021987E+02 -0.10245946900E+03  0.17912851494E+03  0.12509000000E+03 0.  0.
         25    1    4    4    0    0  0.12241162356E+02  0.80313311746E+01 -0.46033525195E+02  0.13409303441E+03  0.12509000000E+03 0.  0.
<mgrwt>
<rscale>  2 0.43079933E+03</rscale>
<asrwt>0</asrwt>
<pdfrwt beam="1">  1       21 0.21162126E-01 0.43079933E+03</pdfrwt>
<pdfrwt beam="2">  1       21 0.47414692E-01 0.43079933E+03</pdfrwt>
<totfact> 0.82443977E+04</totfact>
</mgrwt>
</event>
<event>
 7    0  0.4752811E-002  0.4044508E+03  0.7546771E-02  0.1042249E+00
         21   -1    0    0  502  501  0.00000000000E+00  0.00000000000E+00  0.24791361463E+03  0.24791361463E+03  0.00000000000E+00 0.  1.
         21   -1    0    0  501  502 -0.00000000000E+00 -0.00000000000E+00 -0.16495708819E+03  0.16495708819E+03  0.00000000000E+00 0.  1.
      99926    2    1    2    0    0  0.00000000000E+00  0.17763568394E-14  0.82956526439E+02  0.41287070282E+03  0.40445077818E+03 0.  0.
      99925    2    3    3    0    0 -0.50981779826E+02  0.90490166472E+01  0.69792363806E+02  0.27684927122E+03  0.26285645960E+03 0.  0.
         25    1    4    4    0    0 -0.32091862974E+01  0.27640102345E+02  0.59455348698E+02  0.14126825802E+03  0.12509000000E+03 0.  0.
         25    1    3    3    0    0  0.50981779826E+02 -0.90490166472E+01  0.13164162633E+02  0.13602143160E+03  0.12509000000E+03 0.  0.
         25    1    4    4    0    0 -0.47772593528E+02 -0.18591085698E+02  0.10337015107E+02  0.13558101320E+03  0.12509000000E+03 0.  0.
<mgrwt>
<rscale>  2 0.40445078E+03</rscale>
<asrwt>0</asrwt>
<pdfrwt beam="1">  1       21 0.36457885E-01 0.40445078E+03</pdfrwt>
<pdfrwt beam="2">  1       21 0.24258395E-01 0.40445078E+03</pdfrwt>
<totfact> 0.10975300E+05</totfact>
</mgrwt>
</event>
<event>
 7    0  0.4752811E-002  0.4588755E+03  0.7546771E-02  0.1025108E+00
         21   -1    0    0  502  501  0.00000000000E+00  0.00000000000E+00  0.32054705768E+03  0.32054705768E+03  0.00000000000E+00 0. -1.
         21   -1    0    0  501  502 -0.00000000000E+00 -0.00000000000E+00 -0.16422449101E+03  0.16422449101E+03  0.00000000000E+00 0. -1.
      99926    2    1    2    0    0  0.00000000000E+00  0.14210854715E-13  0.15632256667E+03  0.48477154868E+03  0.45887548372E+03 0.  0.
      99925    2    3    3    0    0  0.56524720066E+02 -0.68284805874E+02  0.17565865197E+02  0.27798956447E+03  0.26289119354E+03 0.  0.
         25    1    4    4    0    0  0.33938848286E+02 -0.28245979739E+02 -0.30856448227E+02  0.13619584903E+03  0.12509000000E+03 0.  0.
         25    1    4    4    0    0  0.22585871779E+02 -0.40038826135E+02  0.48422313424E+02  0.14179371544E+03  0.12509000000E+03 0.  0.
         25    1    3    3    0    0 -0.56524720066E+02  0.68284805874E+02  0.13875670147E+03  0.20678198421E+03  0.12509000000E+03 0.  0.
<mgrwt>
<rscale>  2 0.45887548E+03</rscale>
<asrwt>0</asrwt>
<pdfrwt beam="1">  1       21 0.47139273E-01 0.45887548E+03</pdfrwt>
<pdfrwt beam="2">  1       21 0.24150660E-01 0.45887548E+03</pdfrwt>
<totfact> 0.64351787E+04</totfact>
</mgrwt>
</event>
<event>
 7    0  0.4752811E-002  0.4619876E+03  0.7546771E-02  0.1024206E+00
         21   -1    0    0  502  501  0.00000000000E+00  0.00000000000E+00  0.13770275015E+03  0.13770275015E+03  0.00000000000E+00 0.  1.
         21   -1    0    0  501  502 -0.00000000000E+00 -0.00000000000E+00 -0.38748783368E+03  0.38748783368E+03  0.00000000000E+00 0.  1.
      99926    2    1    2    0    0 -0.71054273576E-14  0.35527136788E-14 -0.24978508352E+03  0.52519058383E+03  0.46198762038E+03 0.  0.
      99925    2    3    3    0    0 -0.53946242871E+02  0.23497618346E+02 -0.27442676499E+03  0.38477314989E+03  0.26320712822E+03 0.  0.
         25    1    4    4    0    0 -0.95152061567E+01  0.48597428439E+02 -0.14131711755E+03  0.19511608086E+03  0.12509000000E+03 0.  0.
         25    1    3    3    0    0  0.53946242871E+02 -0.23497618346E+02  0.24641681464E+02  0.14041743394E+03  0.12509000000E+03 0.  0.
         25    1    4    4    0    0 -0.44431036715E+02 -0.25099810093E+02 -0.13310964744E+03  0.18965706903E+03  0.12509000000E+03 0.  0.
<mgrwt>
<rscale>  2 0.46198762E+03</rscale>
<asrwt>0</asrwt>
<pdfrwt beam="1">  1       21 0.20250405E-01 0.46198762E+03</pdfrwt>
<pdfrwt beam="2">  1       21 0.56983504E-01 0.46198762E+03</pdfrwt>
<totfact> 0.60131684E+04</totfact>
</mgrwt>
</event>
<event>
 7    0  0.4752811E-002  0.4510630E+03  0.7546771E-02  0.1027406E+00
         21   -1    0    0  502  501  0.00000000000E+00  0.00000000000E+00  0.38642552277E+03  0.38642552277E+03  0.00000000000E+00 0.  1.
         21   -1    0    0  501  502 -0.00000000000E+00 -0.00000000000E+00 -0.13162807450E+03  0.13162807450E+03  0.00000000000E+00 0.  1.
      99926    2    1    2    0    0  0.00000000000E+00 -0.53290705182E-14  0.25479744828E+03  0.51805359727E+03  0.45106295569E+03 0.  0.
      99925    2    3    3    0    0  0.86961256169E+02  0.11665905916E+02  0.85425006401E+02  0.28994641719E+03  0.26281769288E+03 0.  0.
         25    1    4    4    0    0  0.61147758434E+02 -0.23925220287E+02  0.66024144722E+02  0.15594281104E+03  0.12509000000E+03 0.  0.
         25    1    4    4    0    0  0.25813497735E+02  0.35591126204E+02  0.19400861679E+02  0.13400360616E+03  0.12509000000E+03 0.  0.
         25    1    3    3    0    0 -0.86961256169E+02 -0.11665905916E+02  0.16937244188E+03  0.22810718008E+03  0.12509000000E+03 0.  0.
<mgrwt>
<rscale>  2 0.45106296E+03</rscale>
<asrwt>0</asrwt>
<pdfrwt beam="1">  1       21 0.56827282E-01 0.45106296E+03</pdfrwt>
<pdfrwt beam="2">  1       21 0.19357070E-01 0.45106296E+03</pdfrwt>
<totfact> 0.66059458E+04</totfact>
</mgrwt>
</event>
<event>
 7    0  0.4752811E-002  0.4567887E+03  0.7546771E-02  0.1025717E+00
         21   -1    0    0  502  501  0.00000000000E+00  0.00000000000E+00  0.37853872090E+02  0.37853872090E+02  0.00000000000E+00 0. -1.
         21   -1    0    0  501  502 -0.00000000000E+00 -0.00000000000E+00 -0.13780353594E+04  0.13780353594E+04  0.00000000000E+00 0. -1.
      99926    2    1    2    0    0  0.00000000000E+00  0.00000000000E+00 -0.13401814873E+04  0.14158892315E+04  0.45678867862E+03 0.  0.
      99925    2    3    3    0    0  0.70464414048E+02  0.43171574307E+02 -0.59675727257E+03  0.65749877161E+03  0.26335598309E+03 0.  0.
         25    1    3    3    0    0 -0.70464414048E+02 -0.43171574307E+02 -0.74342421472E+03  0.75839045986E+03  0.12509000000E+03 0.  0.
         25    1    4    4    0    0 -0.17723390035E+01  0.38675306361E+02 -0.26295514491E+03  0.29375472225E+03  0.12509000000E+03 0.  0.
         25    1    4    4    0    0  0.72236753052E+02  0.44962679459E+01 -0.33380212766E+03  0.36374404936E+03  0.12509000000E+03 0.  0.
<mgrwt>
<rscale>  2 0.45678868E+03</rscale>
<asrwt>0</asrwt>
<pdfrwt beam="1">  1       21 0.55667460E-02 0.45678868E+03</pdfrwt>
<pdfrwt beam="2">  1       21 0.20265226E+00 0.45678868E+03</pdfrwt>
<totfact> 0.25554614E+04</totfact>
</mgrwt>
</event>
<event>
 7    0  0.4752811E-002  0.4774416E+03  0.7546771E-02  0.1019841E+00
         21   -1    0    0  502  501  0.00000000000E+00  0.00000000000E+00  0.34885881590E+02  0.34885881590E+02  0.00000000000E+00 0.  1.
         21   -1    0    0  501  502 -0.00000000000E+00 -0.00000000000E+00 -0.16335436226E+04  0.16335436226E+04  0.00000000000E+00 0.  1.
      99926    2    1    2    0    0 -0.11657341759E-14 -0.14210854715E-13 -0.15986577410E+04  0.16684295042E+04  0.47744155408E+03 0.  0.
      99925    2    3    3    0    0  0.33660395746E+00  0.11848922362E+03 -0.11997091568E+04  0.12338638701E+04  0.26282728080E+03 0.  0.
         25    1    3    3    0    0 -0.33660395746E+00 -0.11848922362E+03 -0.39894858417E+03  0.43456563409E+03  0.12509000000E+03 0.  0.
         25    1    4    4    0    0 -0.80522019185E+01  0.39693598955E+02 -0.71689732314E+03  0.72885506089E+03  0.12509000000E+03 0.  0.
         25    1    4    4    0    0  0.83888058760E+01  0.78795624661E+02 -0.48281183370E+03  0.50500880922E+03  0.12509000000E+03 0.  0.
<mgrwt>
<rscale>  2 0.47744155E+03</rscale>
<asrwt>0</asrwt>
<pdfrwt beam="1">  1       21 0.51302753E-02 0.47744155E+03</pdfrwt>
<pdfrwt beam="2">  1       21 0.24022707E+00 0.47744155E+03</pdfrwt>
<totfact> 0.16802793E+04</totfact>
</mgrwt>
</event>
<event>
 7    0  0.4752811E-002  0.4563896E+03  0.7546771E-02  0.1025834E+00
         21   -1    0    0  502  501  0.00000000000E+00  0.00000000000E+00  0.17384646458E+03  0.17384646458E+03  0.00000000000E+00 0.  1.
         21   -1    0    0  501  502 -0.00000000000E+00 -0.00000000000E+00 -0.29953361090E+03  0.29953361090E+03  0.00000000000E+00 0.  1.
      99926    2    1    2    0    0  0.00000000000E+00  0.00000000000E+00 -0.12568714631E+03  0.47338007548E+03  0.45638956727E+03 0.  0.
      99925    2    3    3    0    0 -0.20242530921E+02  0.89470034721E+02 -0.80378524886E+01  0.27869183339E+03  0.26303969996E+03 0.  0.
         25    1    3    3    0    0  0.20242530921E+02 -0.89470034721E+02 -0.11764929382E+03  0.19468824209E+03  0.12509000000E+03 0.  0.
         25    1    4    4    0    0 -0.66000411130E+01  0.63704367388E+02 -0.40421076743E+02  0.14622988242E+03  0.12509000000E+03 0.  0.
         25    1    4    4    0    0 -0.13642489808E+02  0.25765667332E+02  0.32383224255E+02  0.13246195097E+03  0.12509000000E+03 0.  0.
<mgrwt>
<rscale>  2 0.45638957E+03</rscale>
<asrwt>0</asrwt>
<pdfrwt beam="1">  1       21 0.25565657E-01 0.45638957E+03</pdfrwt>
<pdfrwt beam="2">  1       21 0.44049060E-01 0.45638957E+03</pdfrwt>
<totfact> 0.66449591E+04</totfact>
</mgrwt>
</event>
<event>
 7    0  0.4752811E-002  0.4534336E+03  0.7546771E-02  0.1026703E+00
         21   -1    0    0  502  501  0.00000000000E+00  0.00000000000E+00  0.30139112560E+03  0.30139112560E+03  0.00000000000E+00 0. -1.
         21   -1    0    0  501  502 -0.00000000000E+00 -0.00000000000E+00 -0.17054420016E+03  0.17054420016E+03  0.00000000000E+00 0. -1.
      99926    2    1    2    0    0  0.00000000000E+00  0.00000000000E+00  0.13084692544E+03  0.47193532576E+03  0.45343360462E+03 0.  0.
      99925    2    3    3    0    0  0.12713891086E+02 -0.52780167292E+02  0.18408803612E+03  0.32554709859E+03  0.26295459546E+03 0.  0.
         25    1    4    4    0    0  0.45059839169E+02 -0.20542118245E+02  0.10506153329E+03  0.17069798360E+03  0.12509000000E+03 0.  0.
         25    1    4    4    0    0 -0.32345948083E+02 -0.32238049046E+02  0.79026502832E+02  0.15484911499E+03  0.12509000000E+03 0.  0.
         25    1    3    3    0    0 -0.12713891086E+02  0.52780167292E+02 -0.53241110682E+02  0.14638822717E+03  0.12509000000E+03 0.  0.
<mgrwt>
<rscale>  2 0.45343360E+03</rscale>
<asrwt>0</asrwt>
<pdfrwt beam="1">  1       21 0.44322224E-01 0.45343360E+03</pdfrwt>
<pdfrwt beam="2">  1       21 0.25080029E-01 0.45343360E+03</pdfrwt>
<totfact> 0.68134975E+04</totfact>
</mgrwt>
</event>
<event>
 7    0  0.4752811E-002  0.4553014E+03  0.7546771E-02  0.1026153E+00
         21   -1    0    0  502  501  0.00000000000E+00  0.00000000000E+00  0.86542375886E+03  0.86542375886E+03  0.00000000000E+00 0.  1.
         21   -1    0    0  501  502 -0.00000000000E+00 -0.00000000000E+00 -0.59883774774E+02  0.59883774774E+02  0.00000000000E+00 0.  1.
      99926    2    1    2    0    0 -0.35527136788E-14  0.00000000000E+00  0.80553998408E+03  0.92530753363E+03  0.45530140109E+03 0.  0.
      99925    2    3    3    0    0  0.23715430789E+02 -0.11023859858E+03  0.53241393204E+03  0.60443323008E+03  0.26298282135E+03 0.  0.
         25    1    4    4    0    0 -0.58707547030E+01 -0.62760511450E+02  0.19361307679E+03  0.23897045667E+03  0.12509000000E+03 0.  0.
         25    1    4    4    0    0  0.29586185492E+02 -0.47478087127E+02  0.33880085526E+03  0.36546277341E+03  0.12509000000E+03 0.  0.
         25    1    3    3    0    0 -0.23715430789E+02  0.11023859858E+03  0.27312605204E+03  0.32087430355E+03  0.12509000000E+03 0.  0.
<mgrwt>
<rscale>  2 0.45530140E+03</rscale>
<asrwt>0</asrwt>
<pdfrwt beam="1">  1       21 0.12726819E+00 0.45530140E+03</pdfrwt>
<pdfrwt beam="2">  1       21 0.88064380E-02 0.45530140E+03</pdfrwt>
<totfact> 0.42058002E+04</totfact>
</mgrwt>
</event>
<event>
 7    0  0.4752811E-002  0.4499031E+03  0.7546771E-02  0.1027751E+00
         21   -1    0    0  502  501  0.00000000000E+00  0.00000000000E+00  0.28015994885E+03  0.28015994885E+03  0.00000000000E+00 0. -1.
         21   -1    0    0  501  502 -0.00000000000E+00 -0.00000000000E+00 -0.18062250161E+03  0.18062250161E+03  0.00000000000E+00 0. -1.
      99926    2    1    2    0    0  0.00000000000E+00  0.00000000000E+00  0.99537447238E+02  0.46078245046E+03  0.44990305984E+03 0.  0.
      99925    2    3    3    0    0  0.84412147412E+02  0.31203328677E+02  0.12468653070E+03  0.30464455356E+03  0.26298767029E+03 0.  0.
         25    1    4    4    0    0  0.57269315953E+02  0.49748180268E+02  0.46480587384E+02  0.15350116968E+03  0.12509000000E+03 0.  0.
         25    1    3    3    0    0 -0.84412147412E+02 -0.31203328677E+02 -0.25149083460E+02  0.15613789691E+03  0.12509000000E+03 0.  0.
         25    1    4    4    0    0  0.27142831460E+02 -0.18544851591E+02  0.78205943314E+02  0.15114338388E+03  0.12509000000E+03 0.  0.
<mgrwt>
<rscale>  2 0.44990306E+03</rscale>
<asrwt>0</asrwt>
<pdfrwt beam="1">  1       21 0.41199993E-01 0.44990306E+03</pdfrwt>
<pdfrwt beam="2">  1       21 0.26562132E-01 0.44990306E+03</pdfrwt>
<totfact> 0.70953359E+04</totfact>
</mgrwt>
</event>
<event>
 7    0  0.4752811E-002  0.4658957E+03  0.7546771E-02  0.1023085E+00
         21   -1    0    0  502  501  0.00000000000E+00  0.00000000000E+00  0.29420883032E+03  0.29420883032E+03  0.00000000000E+00 0.  1.
         21   -1    0    0  501  502 -0.00000000000E+00 -0.00000000000E+00 -0.18444279541E+03  0.18444279541E+03  0.00000000000E+00 0.  1.
      99926    2    1    2    0    0  0.00000000000E+00  0.00000000000E+00  0.10976603491E+03  0.47865162572E+03  0.46589569261E+03 0.  0.
      99925    2    3    3    0    0  0.41469674435E+02  0.89864625872E+02 -0.69507833164E+01  0.28100115485E+03  0.26290293029E+03 0.  0.
         25    1    3    3    0    0 -0.41469674435E+02 -0.89864625872E+02  0.11671681822E+03  0.19765047088E+03  0.12509000000E+03 0.  0.
         25    1    4    4    0    0  0.88579271188E+01  0.35774852391E+01 -0.82842633039E+00  0.12545698731E+03  0.12509000000E+03 0.  0.
         25    1    4    4    0    0  0.32611747316E+02  0.86287140633E+02 -0.61223569860E+01  0.15554416754E+03  0.12509000000E+03 0.  0.
<mgrwt>
<rscale>  2 0.46589569E+03</rscale>
<asrwt>0</asrwt>
<pdfrwt beam="1">  1       21 0.43266004E-01 0.46589569E+03</pdfrwt>
<pdfrwt beam="2">  1       21 0.27123941E-01 0.46589569E+03</pdfrwt>
<totfact> 0.61323079E+04</totfact>
</mgrwt>
</event>
<event>
 7    0  0.4752811E-002  0.4551821E+03  0.7546771E-02  0.1026188E+00
         21   -1    0    0  502  501  0.00000000000E+00  0.00000000000E+00  0.33363621056E+03  0.33363621056E+03  0.00000000000E+00 0.  1.
         21   -1    0    0  501  502 -0.00000000000E+00 -0.00000000000E+00 -0.15525201307E+03  0.15525201307E+03  0.00000000000E+00 0.  1.
      99926    2    1    2    0    0  0.00000000000E+00  0.00000000000E+00  0.17838419750E+03  0.48888822363E+03  0.45518213199E+03 0.  0.
      99925    2    3    3    0    0 -0.67754504649E+02 -0.24443689965E+02  0.18360442381E+02  0.27338120012E+03  0.26308175128E+03 0.  0.
         25    1    3    3    0    0  0.67754504649E+02  0.24443689965E+02  0.16002375512E+03  0.21550702351E+03  0.12509000000E+03 0.  0.
         25    1    4    4    0    0 -0.26940318403E+02  0.52180434645E+01  0.45290488329E+02  0.13583720097E+03  0.12509000000E+03 0.  0.
         25    1    4    4    0    0 -0.40814186246E+02 -0.29661733430E+02 -0.26930045948E+02  0.13754399916E+03  0.12509000000E+03 0.  0.
<mgrwt>
<rscale>  2 0.45518213E+03</rscale>
<asrwt>0</asrwt>
<pdfrwt beam="1">  1       21 0.49064148E-01 0.45518213E+03</pdfrwt>
<pdfrwt beam="2">  1       21 0.22831178E-01 0.45518213E+03</pdfrwt>
<totfact> 0.65963146E+04</totfact>
</mgrwt>
</event>
<event>
 7    0  0.4752811E-002  0.4530061E+03  0.7546771E-02  0.1026829E+00
         21   -1    0    0  502  501  0.00000000000E+00  0.00000000000E+00  0.22895173544E+03  0.22895173544E+03  0.00000000000E+00 0. -1.
         21   -1    0    0  501  502 -0.00000000000E+00 -0.00000000000E+00 -0.22408051489E+03  0.22408051489E+03  0.00000000000E+00 0. -1.
      99926    2    1    2    0    0  0.00000000000E+00  0.00000000000E+00  0.48712205562E+01  0.45303225033E+03  0.45300606072E+03 0.  0.
      99925    2    3    3    0    0 -0.71190266441E+02  0.85564055718E+02  0.45895697381E+01  0.28559017350E+03  0.26296657845E+03 0.  0.
         25    1    4    4    0    0 -0.45572962082E+02  0.76521581627E+02  0.26188417297E+02  0.15577480101E+03  0.12509000000E+03 0.  0.
         25    1    4    4    0    0 -0.25617304359E+02  0.90424740908E+01 -0.21598847559E+02  0.12981537250E+03  0.12509000000E+03 0.  0.
         25    1    3    3    0    0  0.71190266441E+02 -0.85564055718E+02  0.28165081810E+00  0.16744207683E+03  0.12509000000E+03 0.  0.
<mgrwt>
<rscale>  2 0.45300606E+03</rscale>
<asrwt>0</asrwt>
<pdfrwt beam="1">  1       21 0.33669373E-01 0.45300606E+03</pdfrwt>
<pdfrwt beam="2">  1       21 0.32953017E-01 0.45300606E+03</pdfrwt>
<totfact> 0.69793987E+04</totfact>
</mgrwt>
</event>
<event>
 7    0  0.4752811E-002  0.4638656E+03  0.7546771E-02  0.1023666E+00
         21   -1    0    0  502  501  0.00000000000E+00  0.00000000000E+00  0.18911813852E+04  0.18911813852E+04  0.00000000000E+00 0. -1.
         21   -1    0    0  501  502 -0.00000000000E+00 -0.00000000000E+00 -0.28444027664E+02  0.28444027664E+02  0.00000000000E+00 0. -1.
      99926    2    1    2    0    0  0.00000000000E+00  0.00000000000E+00  0.18627373575E+04  0.19196254128E+04  0.46386556517E+03 0.  0.
      99925    2    3    3    0    0  0.55410225172E+02 -0.45702400913E+02  0.75904956728E+03  0.80655162871E+03  0.26307847059E+03 0.  0.
         25    1    3    3    0    0 -0.55410225172E+02  0.45702400913E+02  0.11036877902E+04  0.11130737841E+04  0.12509000000E+03 0.  0.
         25    1    4    4    0    0  0.28287172782E+02 -0.57050715768E+02  0.32840679285E+03  0.35714629776E+03  0.12509000000E+03 0.  0.
         25    1    4    4    0    0  0.27123052390E+02  0.11348314855E+02  0.43064277442E+03  0.44940533095E+03  0.12509000000E+03 0.  0.
<mgrwt>
<rscale>  2 0.46386557E+03</rscale>
<asrwt>0</asrwt>
<pdfrwt beam="1">  1       21 0.27811482E+00 0.46386557E+03</pdfrwt>
<pdfrwt beam="2">  1       21 0.41829465E-02 0.46386557E+03</pdfrwt>
<totfact> 0.14073251E+04</totfact>
</mgrwt>
</event>
<event>
 7    0  0.4752811E-002  0.4522367E+03  0.7546771E-02  0.1027057E+00
         21   -1    0    0  502  501  0.00000000000E+00  0.00000000000E+00  0.59004147146E+02  0.59004147146E+02  0.00000000000E+00 0. -1.
         21   -1    0    0  501  502 -0.00000000000E+00 -0.00000000000E+00 -0.86654091073E+03  0.86654091073E+03  0.00000000000E+00 0. -1.
      99926    2    1    2    0    0  0.00000000000E+00 -0.35527136788E-14 -0.80753676359E+03  0.92554505788E+03  0.45223669645E+03 0.  0.
      99925    2    3    3    0    0  0.10753213939E+03 -0.24782965228E+02 -0.51454717747E+03  0.58839855851E+03  0.26320469115E+03 0.  0.
         25    1    3    3    0    0 -0.10753213939E+03  0.24782965228E+02 -0.29298958611E+03  0.33714649937E+03  0.12509000000E+03 0.  0.
         25    1    4    4    0    0  0.26067017150E+02 -0.38903592339E+02 -0.20887666580E+03  0.24793133826E+03  0.12509000000E+03 0.  0.
         25    1    4    4    0    0  0.81465122236E+02  0.14120627110E+02 -0.30567051168E+03  0.34046722025E+03  0.12509000000E+03 0.  0.
<mgrwt>
<rscale>  2 0.45223670E+03</rscale>
<asrwt>0</asrwt>
<pdfrwt beam="1">  1       21 0.86770807E-02 0.45223670E+03</pdfrwt>
<pdfrwt beam="2">  1       21 0.12743248E+00 0.45223670E+03</pdfrwt>
<totfact> 0.43070730E+04</totfact>
</mgrwt>
</event>
<event>
 7    0  0.4752811E-002  0.4533421E+03  0.7546771E-02  0.1026730E+00
         21   -1    0    0  502  501  0.00000000000E+00  0.00000000000E+00  0.46952184281E+02  0.46952184281E+02  0.00000000000E+00 0.  1.
         21   -1    0    0  501  502 -0.00000000000E+00 -0.00000000000E+00 -0.10942999814E+04  0.10942999814E+04  0.00000000000E+00 0.  1.
      99926    2    1    2    0    0  0.22204460493E-15  0.00000000000E+00 -0.10473477971E+04  0.11412521657E+04  0.45334214181E+03 0.  0.
      99925    2    3    3    0    0  0.15820940415E+01  0.42340736539E+02 -0.39845659792E+03  0.47905692446E+03  0.26255025321E+03 0.  0.
         25    1    3    3    0    0 -0.15820940415E+01 -0.42340736539E+02 -0.64889119917E+03  0.66219524119E+03  0.12509000000E+03 0.  0.
         25    1    4    4    0    0 -0.28233642733E+02 -0.64152602996E+01 -0.19555385389E+03  0.23393826540E+03  0.12509000000E+03 0.  0.
         25    1    4    4    0    0  0.29815736774E+02  0.48755996838E+02 -0.20290274403E+03  0.24511865906E+03  0.12509000000E+03 0.  0.
<mgrwt>
<rscale>  2 0.45334214E+03</rscale>
<asrwt>0</asrwt>
<pdfrwt beam="1">  1       21 0.69047318E-02 0.45334214E+03</pdfrwt>
<pdfrwt beam="2">  1       21 0.16092650E+00 0.45334214E+03</pdfrwt>
<totfact> 0.34519688E+04</totfact>
</mgrwt>
</event>
<event>
 7    0  0.4752811E-002  0.4591361E+03  0.7546771E-02  0.1025032E+00
         21   -1    0    0  502  501  0.00000000000E+00  0.00000000000E+00  0.12501071083E+04  0.12501071083E+04  0.00000000000E+00 0. -1.
         21   -1    0    0  501  502 -0.00000000000E+00 -0.00000000000E+00 -0.42157572836E+02  0.42157572836E+02  0.00000000000E+00 0. -1.
      99926    2    1    2    0    0  0.00000000000E+00 -0.71054273576E-14  0.12079495354E+04  0.12922646811E+04  0.45913606467E+03 0.  0.
      99925    2    3    3    0    0  0.27034198624E+02  0.40991067546E+02  0.45870388336E+03  0.53106321581E+03  0.26307369893E+03 0.  0.
         25    1    3    3    0    0 -0.27034198624E+02 -0.40991067546E+02  0.74924565209E+03  0.76120146531E+03  0.12509000000E+03 0.  0.
         25    1    4    4    0    0 -0.87127326833E+01  0.40599848890E+02  0.17619049566E+03  0.22003376628E+03  0.12509000000E+03 0.  0.
         25    1    4    4    0    0  0.35746931307E+02  0.39121865605E+00  0.28251338770E+03  0.31102944954E+03  0.12509000000E+03 0.  0.
<mgrwt>
<rscale>  2 0.45913606E+03</rscale>
<asrwt>0</asrwt>
<pdfrwt beam="1">  1       21 0.18383926E+00 0.45913606E+03</pdfrwt>
<pdfrwt beam="2">  1       21 0.61996439E-02 0.45913606E+03</pdfrwt>
<totfact> 0.28414814E+04</totfact>
</mgrwt>
</event>
<event>
 7    0  0.4752811E-002  0.4617885E+03  0.7546771E-02  0.1024264E+00
         21   -1    0    0  502  501  0.00000000000E+00  0.00000000000E+00  0.11966101749E+03  0.11966101749E+03  0.00000000000E+00 0. -1.
         21   -1    0    0  501  502 -0.00000000000E+00 -0.00000000000E+00 -0.44552650886E+03  0.44552650886E+03  0.00000000000E+00 0. -1.
      99926    2    1    2    0    0  0.71054273576E-14  0.00000000000E+00 -0.32586549138E+03  0.56518752635E+03  0.46178850296E+03 0.  0.
      99925    2    3    3    0    0  0.45237456945E+02  0.10669931628E+03 -0.16895003062E+03  0.33345245880E+03  0.26308792794E+03 0.  0.
         25    1    3    3    0    0 -0.45237456945E+02 -0.10669931628E+03 -0.15691546076E+03  0.23173506755E+03  0.12509000000E+03 0.  0.
         25    1    4    4    0    0 -0.15762174276E+02  0.66914391519E+02 -0.83339633875E+02  0.16528455646E+03  0.12509000000E+03 0.  0.
         25    1    4    4    0    0  0.60999631221E+02  0.39784924761E+02 -0.85610396744E+02  0.16816790234E+03  0.12509000000E+03 0.  0.
<mgrwt>
<rscale>  2 0.46178850E+03</rscale>
<asrwt>0</asrwt>
<pdfrwt beam="1">  1       21 0.17597208E-01 0.46178850E+03</pdfrwt>
<pdfrwt beam="2">  1       21 0.65518605E-01 0.46178850E+03</pdfrwt>
<totfact> 0.57712365E+04</totfact>
</mgrwt>
</event>
<event>
 7    0  0.4752811E-002  0.4524292E+03  0.7546771E-02  0.1027000E+00
         21   -1    0    0  502  501  0.00000000000E+00  0.00000000000E+00  0.75913742134E+03  0.75913742134E+03  0.00000000000E+00 0. -1.
         21   -1    0    0  501  502 -0.00000000000E+00 -0.00000000000E+00 -0.67409453718E+02  0.67409453718E+02  0.00000000000E+00 0. -1.
      99926    2    1    2    0    0 -0.71054273576E-14  0.00000000000E+00  0.69172796762E+03  0.82654687506E+03  0.45242917178E+03 0.  0.
      99925    2    3    3    0    0 -0.63403169502E+02 -0.60279210679E+02  0.56030018665E+03  0.62511620497E+03  0.26302172041E+03 0.  0.
         25    1    4    4    0    0  0.37748902160E+01 -0.72667132792E+01  0.23994433195E+03  0.27071727956E+03  0.12509000000E+03 0.  0.
         25    1    3    3    0    0  0.63403169502E+02  0.60279210679E+02  0.13142778097E+03  0.20143067009E+03  0.12509000000E+03 0.  0.
         25    1    4    4    0    0 -0.67178059718E+02 -0.53012497400E+02  0.32035585470E+03  0.35439892540E+03  0.12509000000E+03 0.  0.
<mgrwt>
<rscale>  2 0.45242917E+03</rscale>
<asrwt>0</asrwt>
<pdfrwt beam="1">  1       21 0.11163785E+00 0.45242917E+03</pdfrwt>
<pdfrwt beam="2">  1       21 0.99131554E-02 0.45242917E+03</pdfrwt>
<totfact> 0.47457496E+04</totfact>
</mgrwt>
</event>
<event>
 7    0  0.4752811E-002  0.4599360E+03  0.7546771E-02  0.1024800E+00
         21   -1    0    0  502  501  0.00000000000E+00  0.00000000000E+00  0.36068839612E+02  0.36068839612E+02  0.00000000000E+00 0.  1.
         21   -1    0    0  501  502 -0.00000000000E+00 -0.00000000000E+00 -0.14662321236E+04  0.14662321236E+04  0.00000000000E+00 0.  1.
      99926    2    1    2    0    0  0.00000000000E+00  0.00000000000E+00 -0.14301632840E+04  0.15023009632E+04  0.45993604468E+03 0.  0.
      99925    2    3    3    0    0 -0.85837442316E+01  0.91265389909E+02 -0.65775445513E+03  0.71447740488E+03  0.26350329558E+03 0.  0.
         25    1    4    4    0    0 -0.24014320301E+02  0.17990504832E+02 -0.37322102827E+03  0.39476802035E+03  0.12509000000E+03 0.  0.
         25    1    3    3    0    0  0.85837442316E+01 -0.91265389909E+02 -0.77240882886E+03  0.78782355833E+03  0.12509000000E+03 0.  0.
         25    1    4    4    0    0  0.15430576070E+02  0.73274885077E+02 -0.28453342685E+03  0.31970938453E+03  0.12509000000E+03 0.  0.
<mgrwt>
<rscale>  2 0.45993604E+03</rscale>
<asrwt>0</asrwt>
<pdfrwt beam="1">  1       21 0.53042423E-02 0.45993604E+03</pdfrwt>
<pdfrwt beam="2">  1       21 0.21562232E+00 0.45993604E+03</pdfrwt>
<totfact> 0.22834698E+04</totfact>
</mgrwt>
</event>
<event>
 7    0  0.4752811E-002  0.4567094E+03  0.7546771E-02  0.1025740E+00
         21   -1    0    0  502  501  0.00000000000E+00  0.00000000000E+00  0.20018977986E+03  0.20018977986E+03  0.00000000000E+00 0.  1.
         21   -1    0    0  501  502 -0.00000000000E+00 -0.00000000000E+00 -0.26048219727E+03  0.26048219727E+03  0.00000000000E+00 0.  1.
      99926    2    1    2    0    0  0.14210854715E-13 -0.26645352591E-14 -0.60292417412E+02  0.46067197713E+03  0.45670942065E+03 0.  0.
      99925    2    3    3    0    0 -0.97171982672E+02 -0.21606933334E+01 -0.99403451751E+02  0.29750260525E+03  0.26302032450E+03 0.  0.
         25    1    3    3    0    0  0.97171982672E+02  0.21606933334E+01  0.39111034338E+02  0.16316937188E+03  0.12509000000E+03 0.  0.
         25    1    4    4    0    0 -0.40497968203E+02  0.16959964301E+02 -0.86397391172E+02  0.15823951188E+03  0.12509000000E+03 0.  0.
         25    1    4    4    0    0 -0.56674014468E+02 -0.19120657634E+02 -0.13006060579E+02  0.13926309337E+03  0.12509000000E+03 0.  0.
<mgrwt>
<rscale>  2 0.45670942E+03</rscale>
<asrwt>0</asrwt>
<pdfrwt beam="1">  1       21 0.29439674E-01 0.45670942E+03</pdfrwt>
<pdfrwt beam="2">  1       21 0.38306205E-01 0.45670942E+03</pdfrwt>
<totfact> 0.67210693E+04</totfact>
</mgrwt>
</event>
<event>
 7    0  0.4752811E-002  0.4528112E+03  0.7546771E-02  0.1026887E+00
         21   -1    0    0  502  501  0.00000000000E+00  0.00000000000E+00  0.60645048220E+03  0.60645048220E+03  0.00000000000E+00 0. -1.
         21   -1    0    0  501  502 -0.00000000000E+00 -0.00000000000E+00 -0.84523785829E+02  0.84523785829E+02  0.00000000000E+00 0. -1.
      99926    2    1    2    0    0  0.00000000000E+00  0.14210854715E-13  0.52192669637E+03  0.69097426803E+03  0.45281117775E+03 0.  0.
      99925    2    3    3    0    0 -0.73325333254E+02 -0.83407944250E+02  0.32788208897E+03  0.43478233330E+03  0.26305041992E+03 0.  0.
         25    1    3    3    0    0  0.73325333254E+02  0.83407944250E+02  0.19404460741E+03  0.25619193474E+03  0.12509000000E+03 0.  0.
         25    1    4    4    0    0 -0.12157015150E+01 -0.16659296205E+02  0.15437741958E+03  0.19939635367E+03  0.12509000000E+03 0.  0.
         25    1    4    4    0    0 -0.72109631739E+02 -0.66748648045E+02  0.17350466939E+03  0.23538597963E+03  0.12509000000E+03 0.  0.
<mgrwt>
<rscale>  2 0.45281118E+03</rscale>
<asrwt>0</asrwt>
<pdfrwt beam="1">  1       21 0.89183893E-01 0.45281118E+03</pdfrwt>
<pdfrwt beam="2">  1       21 0.12429969E-01 0.45281118E+03</pdfrwt>
<totfact> 0.54325814E+04</totfact>
</mgrwt>
</event>
<event>
 7    0  0.4752811E-002  0.4493146E+03  0.7546771E-02  0.1027927E+00
         21   -1    0    0  502  501  0.00000000000E+00  0.00000000000E+00  0.18158856876E+03  0.18158856876E+03  0.00000000000E+00 0.  1.
         21   -1    0    0  501  502 -0.00000000000E+00 -0.00000000000E+00 -0.27794101599E+03  0.27794101599E+03  0.00000000000E+00 0.  1.
      99926    2    1    2    0    0  0.00000000000E+00  0.66613381478E-15 -0.96352447226E+02  0.45952958475E+03  0.44931463939E+03 0.  0.
      99925    2    3    3    0    0  0.89969110263E+02 -0.13617079799E+01 -0.33751577324E+00  0.27797333944E+03  0.26300716429E+03 0.  0.
         25    1    3    3    0    0 -0.89969110263E+02  0.13617079799E+01 -0.96014931453E+02  0.18155624531E+03  0.12509000000E+03 0.  0.
         25    1    4    4    0    0  0.59743385853E+02  0.32874733273E+02 -0.18150980950E+02  0.14362098193E+03  0.12509000000E+03 0.  0.
         25    1    4    4    0    0  0.30225724410E+02 -0.34236441253E+02  0.17813465176E+02  0.13435235751E+03  0.12509000000E+03 0.  0.
<mgrwt>
<rscale>  2 0.44931464E+03</rscale>
<asrwt>0</asrwt>
<pdfrwt beam="1">  1       21 0.26704201E-01 0.44931464E+03</pdfrwt>
<pdfrwt beam="2">  1       21 0.40873679E-01 0.44931464E+03</pdfrwt>
<totfact> 0.71388413E+04</totfact>
</mgrwt>
</event>
<event>
 7    0  0.4752811E-002  0.4501857E+03  0.7546771E-02  0.1027667E+00
         21   -1    0    0  502  501  0.00000000000E+00  0.00000000000E+00  0.66172438454E+03  0.66172438454E+03  0.00000000000E+00 0.  1.
         21   -1    0    0  501  502 -0.00000000000E+00 -0.00000000000E+00 -0.76567810829E+02  0.76567810829E+02  0.00000000000E+00 0.  1.
      99926    2    1    2    0    0  0.00000000000E+00  0.00000000000E+00  0.58515657371E+03  0.73829219537E+03  0.45018568390E+03 0.  0.
      99925    2    3    3    0    0  0.39720286150E+02  0.55848580209E+02  0.50800389738E+03  0.57612928775E+03  0.26298332914E+03 0.  0.
         25    1    4    4    0    0  0.57338876486E+02  0.13703664395E+02  0.27254976840E+03  0.30562464156E+03  0.12509000000E+03 0.  0.
         25    1    3    3    0    0 -0.39720286150E+02 -0.55848580209E+02  0.77152676330E+02  0.16216290762E+03  0.12509000000E+03 0.  0.
         25    1    4    4    0    0 -0.17618590336E+02  0.42144915815E+02  0.23545412898E+03  0.27050464618E+03  0.12509000000E+03 0.  0.
<mgrwt>
<rscale>  2 0.45018568E+03</rscale>
<asrwt>0</asrwt>
<pdfrwt beam="1">  1       21 0.97312407E-01 0.45018568E+03</pdfrwt>
<pdfrwt beam="2">  1       21 0.11259973E-01 0.45018568E+03</pdfrwt>
<totfact> 0.52844669E+04</totfact>
</mgrwt>
</event>
<event>
 6    0  0.4752811E-002  0.5881998E+03  0.7546771E-02  0.9930195E-01
         21   -1    0    0  502  501  0.00000000000E+00  0.00000000000E+00  0.99566657904E+03  0.99566657904E+03  0.00000000000E+00 0.  1.
         21   -1    0    0  501  502 -0.00000000000E+00 -0.00000000000E+00 -0.86871202849E+02  0.86871202849E+02  0.00000000000E+00 0.  1.
      99925    2    1    2    0    0  0.10792006576E+03  0.18293110248E+03  0.46467982738E+03  0.57460406806E+03  0.26292958032E+03 0.  0.
         25    1    3    3    0    0  0.61809227984E+02  0.13967946995E+03  0.28560435467E+03  0.34720036074E+03  0.12509000000E+03 0.  0.
         25    1    1    2    0    0 -0.10792006576E+03 -0.18293110248E+03  0.44411554880E+03  0.50793371382E+03  0.12509000000E+03 0.  0.
         25    1    3    3    0    0  0.46110837780E+02  0.43251632524E+02  0.17907547272E+03  0.22740370733E+03  0.12509000000E+03 0.  0.
<mgrwt>
<rscale>  2 0.58819981E+03</rscale>
<asrwt>0</asrwt>
<pdfrwt beam="1">  1       21 0.14642155E+00 0.58819981E+03</pdfrwt>
<pdfrwt beam="2">  1       21 0.12775177E-01 0.58819981E+03</pdfrwt>
<totfact> 0.14329128E+04</totfact>
</mgrwt>
</event>
<event>
 7    0  0.4752811E-002  0.4855289E+03  0.7546771E-02  0.1017627E+00
         21   -1    0    0  502  501  0.00000000000E+00  0.00000000000E+00  0.22994286787E+03  0.22994286787E+03  0.00000000000E+00 0. -1.
         21   -1    0    0  501  502 -0.00000000000E+00 -0.00000000000E+00 -0.25630093915E+03  0.25630093915E+03  0.00000000000E+00 0. -1.
      99926    2    1    2    0    0  0.00000000000E+00  0.00000000000E+00 -0.26358071283E+02  0.48624380701E+03  0.48552887858E+03 0.  0.
      99925    2    3    3    0    0  0.35090736017E+02 -0.51814884055E+02 -0.14150453300E+03  0.30507438987E+03  0.26292719245E+03 0.  0.
         25    1    4    4    0    0  0.23859337843E+02 -0.52322604820E+02 -0.39370056501E+02  0.14319368850E+03  0.12509000000E+03 0.  0.
         25    1    3    3    0    0 -0.35090736017E+02  0.51814884055E+02  0.11514646172E+03  0.18116941715E+03  0.12509000000E+03 0.  0.
         25    1    4    4    0    0  0.11231398174E+02  0.50772076560E+00 -0.10213447650E+03  0.16188070137E+03  0.12509000000E+03 0.  0.
<mgrwt>
<rscale>  2 0.48552888E+03</rscale>
<asrwt>0</asrwt>
<pdfrwt beam="1">  1       21 0.33815128E-01 0.48552888E+03</pdfrwt>
<pdfrwt beam="2">  1       21 0.37691315E-01 0.48552888E+03</pdfrwt>
<totfact> 0.52352547E+04</totfact>
</mgrwt>
</event>
<event>
 7    0  0.4752811E-002  0.4667130E+03  0.7546771E-02  0.1022852E+00
         21   -1    0    0  502  501  0.00000000000E+00  0.00000000000E+00  0.37400556521E+03  0.37400556521E+03  0.00000000000E+00 0. -1.
         21   -1    0    0  501  502 -0.00000000000E+00 -0.00000000000E+00 -0.14560015099E+03  0.14560015099E+03  0.00000000000E+00 0. -1.
      99926    2    1    2    0    0  0.00000000000E+00  0.00000000000E+00  0.22840541422E+03  0.51960571621E+03  0.46671304575E+03 0.  0.
      99925    2    3    3    0    0  0.60663076577E+02  0.77254295080E+02  0.22612962834E+03  0.36054307990E+03  0.26307502481E+03 0.  0.
         25    1    3    3    0    0 -0.60663076577E+02 -0.77254295080E+02  0.22757858745E+01  0.15906263631E+03  0.12509000000E+03 0.  0.
         25    1    4    4    0    0  0.68767773213E+01  0.59582557835E+02  0.80496888306E+02  0.16038899087E+03  0.12509000000E+03 0.  0.
         25    1    4    4    0    0  0.53786299256E+02  0.17671737245E+02  0.14563274004E+03  0.20015408903E+03  0.12509000000E+03 0.  0.
<mgrwt>
<rscale>  2 0.46671305E+03</rscale>
<asrwt>0</asrwt>
<pdfrwt beam="1">  1       21 0.55000818E-01 0.46671305E+03</pdfrwt>
<pdfrwt beam="2">  1       21 0.21411787E-01 0.46671305E+03</pdfrwt>
<totfact> 0.58303425E+04</totfact>
</mgrwt>
</event>
<event>
 7    0  0.4752811E-002  0.4433393E+03  0.7546771E-02  0.1029727E+00
         21   -1    0    0  502  501  0.00000000000E+00  0.00000000000E+00  0.11568469064E+04  0.11568469064E+04  0.00000000000E+00 0. -1.
         21   -1    0    0  501  502 -0.00000000000E+00 -0.00000000000E+00 -0.42475314816E+02  0.42475314816E+02  0.00000000000E+00 0. -1.
      99926    2    1    2    0    0  0.00000000000E+00  0.00000000000E+00  0.11143715916E+04  0.11993222212E+04  0.44333931269E+03 0.  0.
      99925    2    3    3    0    0  0.71347506873E+02 -0.66057382142E+02  0.79082841750E+03  0.83906989566E+03  0.26301075911E+03 0.  0.
         25    1    4    4    0    0  0.17754633090E+02 -0.54937317577E+02  0.48411712802E+03  0.50333908809E+03  0.12509000000E+03 0.  0.
         25    1    4    4    0    0  0.53592873783E+02 -0.11120064564E+02  0.30671128948E+03  0.33573080757E+03  0.12509000000E+03 0.  0.
         25    1    3    3    0    0 -0.71347506873E+02  0.66057382142E+02  0.32354317408E+03  0.36025232556E+03  0.12509000000E+03 0.  0.
<mgrwt>
<rscale>  2 0.44333931E+03</rscale>
<asrwt>0</asrwt>
<pdfrwt beam="1">  1       21 0.17012452E+00 0.44333931E+03</pdfrwt>
<pdfrwt beam="2">  1       21 0.62463706E-02 0.44333931E+03</pdfrwt>
<totfact> 0.35274327E+04</totfact>
</mgrwt>
</event>
<event>
 7    0  0.4752811E-002  0.4565797E+03  0.7546771E-02  0.1025778E+00
         21   -1    0    0  502  501  0.00000000000E+00  0.00000000000E+00  0.29554675952E+03  0.29554675952E+03  0.00000000000E+00 0.  1.
         21   -1    0    0  501  502 -0.00000000000E+00 -0.00000000000E+00 -0.17633846135E+03  0.17633846135E+03  0.00000000000E+00 0.  1.
      99926    2    1    2    0    0 -0.35527136788E-14  0.00000000000E+00  0.11920829816E+03  0.47188522087E+03  0.45657972286E+03 0.  0.
      99925    2    3    3    0    0  0.23910323987E+02  0.95554948494E+02  0.13580682895E+03  0.31180564348E+03  0.26282468061E+03 0.  0.
         25    1    4    4    0    0  0.52064639927E+01  0.62553809277E+02  0.11129272108E+03  0.17881181222E+03  0.12509000000E+03 0.  0.
         25    1    3    3    0    0 -0.23910323987E+02 -0.95554948494E+02 -0.16598530791E+02  0.16007957740E+03  0.12509000000E+03 0.  0.
         25    1    4    4    0    0  0.18703859994E+02  0.33001139217E+02  0.24514107874E+02  0.13299383126E+03  0.12509000000E+03 0.  0.
<mgrwt>
<rscale>  2 0.45657972E+03</rscale>
<asrwt>0</asrwt>
<pdfrwt beam="1">  1       21 0.43462759E-01 0.45657972E+03</pdfrwt>
<pdfrwt beam="2">  1       21 0.25932126E-01 0.45657972E+03</pdfrwt>
<totfact> 0.66458956E+04</totfact>
</mgrwt>
</event>
<event>
 7    0  0.4752811E-002  0.4527525E+03  0.7546771E-02  0.1026904E+00
         21   -1    0    0  502  501  0.00000000000E+00  0.00000000000E+00  0.22846882858E+04  0.22846882858E+04  0.00000000000E+00 0. -1.
         21   -1    0    0  501  502 -0.00000000000E+00 -0.00000000000E+00 -0.22430278897E+02  0.22430278897E+02  0.00000000000E+00 0. -1.
      99926    2    1    2    0    0  0.00000000000E+00  0.00000000000E+00  0.22622580069E+04  0.23071185647E+04  0.45275245088E+03 0.  0.
      99925    2    3    3    0    0  0.73638027888E+02 -0.82351169192E+02  0.14288818674E+04  0.14571964670E+04  0.26365484660E+03 0.  0.
         25    1    4    4    0    0  0.36433943062E+02 -0.24462697068E+02  0.49406311838E+03  0.51153858975E+03  0.12509000000E+03 0.  0.
         25    1    3    3    0    0 -0.73638027888E+02  0.82351169192E+02  0.83337613951E+03  0.84992209774E+03  0.12509000000E+03 0.  0.
         25    1    4    4    0    0  0.37204084825E+02 -0.57888472124E+02  0.93481874903E+03  0.94565787723E+03  0.12509000000E+03 0.  0.
<mgrwt>
<rscale>  2 0.45275245E+03</rscale>
<asrwt>0</asrwt>
<pdfrwt beam="1">  1       21 0.33598341E+00 0.45275245E+03</pdfrwt>
<pdfrwt beam="2">  1       21 0.32985720E-02 0.45275245E+03</pdfrwt>
<totfact> 0.94768001E+03</totfact>
</mgrwt>
</event>
<event>
 7    0  0.4752811E-002  0.4582608E+03  0.7546771E-02  0.1025287E+00
         21   -1    0    0  502  501  0.00000000000E+00  0.00000000000E+00  0.97231023415E+02  0.97231023415E+02  0.00000000000E+00 0.  1.
         21   -1    0    0  501  502 -0.00000000000E+00 -0.00000000000E+00 -0.53995882916E+03  0.53995882916E+03  0.00000000000E+00 0.  1.
      99926    2    1    2    0    0  0.00000000000E+00  0.00000000000E+00 -0.44272780574E+03  0.63718985257E+03  0.45826084084E+03 0.  0.
      99925    2    3    3    0    0 -0.52183897161E+02  0.33256601328E+02 -0.14115071047E+03  0.30488665796E+03  0.26306499289E+03 0.  0.
         25    1    4    4    0    0 -0.67011877099E+02  0.12842198280E+02 -0.69438508096E+02  0.15850781758E+03  0.12509000000E+03 0.  0.
         25    1    3    3    0    0  0.52183897161E+02 -0.33256601328E+02 -0.30157709527E+03  0.33230319461E+03  0.12509000000E+03 0.  0.
         25    1    4    4    0    0  0.14827979937E+02  0.20414403048E+02 -0.71712202373E+02  0.14637884038E+03  0.12509000000E+03 0.  0.
<mgrwt>
<rscale>  2 0.45826084E+03</rscale>
<asrwt>0</asrwt>
<pdfrwt beam="1">  1       21 0.14298680E-01 0.45826084E+03</pdfrwt>
<pdfrwt beam="2">  1       21 0.79405709E-01 0.45826084E+03</pdfrwt>
<totfact> 0.55015959E+04</totfact>
</mgrwt>
</event>
<event>
 7    0  0.4752811E-002  0.4363644E+03  0.7546771E-02  0.1031868E+00
         21   -1    0    0  502  501  0.00000000000E+00  0.00000000000E+00  0.85652820208E+03  0.85652820208E+03  0.00000000000E+00 0. -1.
         21   -1    0    0  501  502 -0.00000000000E+00 -0.00000000000E+00 -0.55577245533E+02  0.55577245533E+02  0.00000000000E+00 0. -1.
      99926    2    1    2    0    0  0.71054273576E-14  0.00000000000E+00  0.80095095654E+03  0.91210544761E+03  0.43636442656E+03 0.  0.
      99925    2    3    3    0    0 -0.63469908448E+02  0.57126179933E+02  0.59478620240E+03  0.65628667648E+03  0.26391238213E+03 0.  0.
         25    1    4    4    0    0  0.20737067650E+01  0.40379648584E+02  0.33947517072E+03  0.36404081628E+03  0.12509000000E+03 0.  0.
         25    1    4    4    0    0 -0.65543615213E+02  0.16746531350E+02  0.25531103168E+03  0.29224586020E+03  0.12509000000E+03 0.  0.
         25    1    3    3    0    0  0.63469908448E+02 -0.57126179933E+02  0.20616475414E+03  0.25581877113E+03  0.12509000000E+03 0.  0.
<mgrwt>
<rscale>  2 0.43636443E+03</rscale>
<asrwt>0</asrwt>
<pdfrwt beam="1">  1       21 0.12596002E+00 0.43636443E+03</pdfrwt>
<pdfrwt beam="2">  1       21 0.81731249E-02 0.43636443E+03</pdfrwt>
<totfact> 0.49554030E+04</totfact>
</mgrwt>
</event>
<event>
 7    0  0.4752811E-002  0.4447788E+03  0.7546771E-02  0.1029291E+00
         21   -1    0    0  502  501  0.00000000000E+00  0.00000000000E+00  0.31256803325E+03  0.31256803325E+03  0.00000000000E+00 0.  1.
         21   -1    0    0  501  502 -0.00000000000E+00 -0.00000000000E+00 -0.15822806437E+03  0.15822806437E+03  0.00000000000E+00 0.  1.
      99926    2    1    2    0    0  0.00000000000E+00 -0.71054273576E-14  0.15433996888E+03  0.47079609763E+03  0.44477875348E+03 0.  0.
      99925    2    3    3    0    0  0.94732170525E+02 -0.36365459071E+02  0.77263041151E+02  0.29223240693E+03  0.26293263660E+03 0.  0.
         25    1    3    3    0    0 -0.94732170525E+02  0.36365459071E+02  0.77076927727E+02  0.17856369069E+03  0.12509000000E+03 0.  0.
         25    1    4    4    0    0  0.75638064104E+02 -0.41104485605E+02  0.64441632846E+02  0.16495735092E+03  0.12509000000E+03 0.  0.
         25    1    4    4    0    0  0.19094106421E+02  0.47390265334E+01  0.12821408305E+02  0.12727505601E+03  0.12509000000E+03 0.  0.
<mgrwt>
<rscale>  2 0.44477875E+03</rscale>
<asrwt>0</asrwt>
<pdfrwt beam="1">  1       21 0.45965887E-01 0.44477875E+03</pdfrwt>
<pdfrwt beam="2">  1       21 0.23268833E-01 0.44477875E+03</pdfrwt>
<totfact> 0.73131199E+04</totfact>
</mgrwt>
</event>
<event>
 7    0  0.4752811E-002  0.4468222E+03  0.7546771E-02  0.1028674E+00
         21   -1    0    0  502  501  0.00000000000E+00  0.00000000000E+00  0.41993205713E+02  0.41993205713E+02  0.00000000000E+00 0. -1.
         21   -1    0    0  501  502 -0.00000000000E+00 -0.00000000000E+00 -0.11885858472E+04  0.11885858472E+04  0.00000000000E+00 0. -1.
      99926    2    1    2    0    0  0.00000000000E+00  0.66613381478E-15 -0.11465926415E+04  0.12305790530E+04  0.44682224650E+03 0.  0.
      99925    2    3    3    0    0 -0.10479060092E+03  0.15972679091E+01 -0.69667103534E+03  0.75197631464E+03  0.26293387951E+03 0.  0.
         25    1    3    3    0    0  0.10479060092E+03 -0.15972679091E+01 -0.44992160618E+03  0.47860273831E+03  0.12509000000E+03 0.  0.
         25    1    4    4    0    0 -0.87540671526E+02 -0.68107727820E+01 -0.32019204652E+03  0.35479601259E+03  0.12509000000E+03 0.  0.
         25    1    4    4    0    0 -0.17249929396E+02  0.84080406911E+01 -0.37647898882E+03  0.39718030205E+03  0.12509000000E+03 0.  0.
<mgrwt>
<rscale>  2 0.44682225E+03</rscale>
<asrwt>0</asrwt>
<pdfrwt beam="1">  1       21 0.61754723E-02 0.44682225E+03</pdfrwt>
<pdfrwt beam="2">  1       21 0.17479201E+00 0.44682225E+03</pdfrwt>
<totfact> 0.33267562E+04</totfact>
</mgrwt>
</event>
<event>
 7    0  0.4752811E-002  0.4499985E+03  0.7546771E-02  0.1027723E+00
         21   -1    0    0  502  501  0.00000000000E+00  0.00000000000E+00  0.12531461867E+04  0.12531461867E+04  0.00000000000E+00 0. -1.
         21   -1    0    0  501  502 -0.00000000000E+00 -0.00000000000E+00 -0.40398043677E+02  0.40398043677E+02  0.00000000000E+00 0. -1.
      99926    2    1    2    0    0  0.00000000000E+00  0.00000000000E+00  0.12127481430E+04  0.12935442304E+04  0.44999846393E+03 0.  0.
      99925    2    3    3    0    0 -0.69353769838E+02  0.66262468231E+02  0.91206420904E+03  0.95404607671E+03  0.26294892088E+03 0.  0.
         25    1    3    3    0    0  0.69353769838E+02 -0.66262468231E+02  0.30068393400E+03  0.33949815368E+03  0.12509000000E+03 0.  0.
         25    1    4    4    0    0 -0.75082942001E+01  0.57004143586E+02  0.39048527731E+03  0.41404360490E+03  0.12509000000E+03 0.  0.
         25    1    4    4    0    0 -0.61845475638E+02  0.92583246452E+01  0.52157893173E+03  0.54000247181E+03  0.12509000000E+03 0.  0.
<mgrwt>
<rscale>  2 0.44999846E+03</rscale>
<asrwt>0</asrwt>
<pdfrwt beam="1">  1       21 0.18428618E+00 0.44999846E+03</pdfrwt>
<pdfrwt beam="2">  1       21 0.59408896E-02 0.44999846E+03</pdfrwt>
<totfact> 0.30470945E+04</totfact>
</mgrwt>
</event>
<event>
 7    0  0.4752811E-002  0.4484696E+03  0.7546771E-02  0.1028179E+00
         21   -1    0    0  502  501  0.00000000000E+00  0.00000000000E+00  0.20874942609E+03  0.20874942609E+03  0.00000000000E+00 0.  1.
         21   -1    0    0  501  502 -0.00000000000E+00 -0.00000000000E+00 -0.24086894192E+03  0.24086894192E+03  0.00000000000E+00 0.  1.
      99926    2    1    2    0    0  0.00000000000E+00  0.00000000000E+00 -0.32119515828E+02  0.44961836801E+03  0.44846963504E+03 0.  0.
      99925    2    3    3    0    0 -0.28039749307E+02  0.84188364965E+02  0.39568132688E+02  0.28032414074E+03  0.26294881331E+03 0.  0.
         25    1    3    3    0    0  0.28039749307E+02 -0.84188364965E+02 -0.71687648516E+02  0.16929422727E+03  0.12509000000E+03 0.  0.
         25    1    4    4    0    0  0.17248573365E+02  0.31894688577E+02 -0.57545410447E+01  0.13036643466E+03  0.12509000000E+03 0.  0.
         25    1    4    4    0    0 -0.45288322671E+02  0.52293676388E+02  0.45322673733E+02  0.14995770609E+03  0.12509000000E+03 0.  0.
<mgrwt>
<rscale>  2 0.44846964E+03</rscale>
<asrwt>0</asrwt>
<pdfrwt beam="1">  1       21 0.30698445E-01 0.44846964E+03</pdfrwt>
<pdfrwt beam="2">  1       21 0.35421903E-01 0.44846964E+03</pdfrwt>
<totfact> 0.72654329E+04</totfact>
</mgrwt>
</event>
<event>
 7    0  0.4752811E-002  0.4465387E+03  0.7546771E-02  0.1028759E+00
         21   -1    0    0  502  501  0.00000000000E+00  0.00000000000E+00  0.45449949817E+03  0.45449949817E+03  0.00000000000E+00 0.  1.
         21   -1    0    0  501  502 -0.00000000000E+00 -0.00000000000E+00 -0.10967932114E+03  0.10967932114E+03  0.00000000000E+00 0.  1.
      99926    2    1    2    0    0  0.00000000000E+00  0.00000000000E+00  0.34482017703E+03  0.56417881931E+03  0.44653867209E+03 0.  0.
      99925    2    3    3    0    0  0.24627710021E+01  0.78713075229E+02  0.30651402900E+03  0.41148080842E+03  0.26299009919E+03 0.  0.
         25    1    3    3    0    0 -0.24627710021E+01 -0.78713075229E+02  0.38306148030E+02  0.15269801089E+03  0.12509000000E+03 0.  0.
         25    1    4    4    0    0  0.28859703254E+01  0.75942615969E+02  0.13454321163E+03  0.19880893752E+03  0.12509000000E+03 0.  0.
         25    1    4    4    0    0 -0.42319932328E+00  0.27704592594E+01  0.17197081737E+03  0.21267187089E+03  0.12509000000E+03 0.  0.
<mgrwt>
<rscale>  2 0.44653867E+03</rscale>
<asrwt>0</asrwt>
<pdfrwt beam="1">  1       21 0.66838161E-01 0.44653867E+03</pdfrwt>
<pdfrwt beam="2">  1       21 0.16129312E-01 0.44653867E+03</pdfrwt>
<totfact> 0.65193600E+04</totfact>
</mgrwt>
</event>
<event>
 7    0  0.4752811E-002  0.4507516E+03  0.7546771E-02  0.1027498E+00
         21   -1    0    0  502  501  0.00000000000E+00  0.00000000000E+00  0.86269189948E+03  0.86269189948E+03  0.00000000000E+00 0.  1.
         21   -1    0    0  501  502 -0.00000000000E+00 -0.00000000000E+00 -0.58878780039E+02  0.58878780039E+02  0.00000000000E+00 0.  1.
      99926    2    1    2    0    0 -0.11102230246E-15 -0.35527136788E-14  0.80381311944E+03  0.92157067952E+03  0.45075157943E+03 0.  0.
      99925    2    3    3    0    0 -0.44033634841E+00 -0.22630900291E+02  0.72607677135E+03  0.77256464119E+03  0.26297584561E+03 0.  0.
         25    1    4    4    0    0  0.27106940261E+01 -0.35062450831E+02  0.27274035846E+03  0.30211179148E+03  0.12509000000E+03 0.  0.
         25    1    3    3    0    0  0.44033634841E+00  0.22630900291E+02  0.77736348084E+02  0.14900603833E+03  0.12509000000E+03 0.  0.
         25    1    4    4    0    0 -0.31510303745E+01  0.12431550540E+02  0.45333641290E+03  0.47045284971E+03  0.12509000000E+03 0.  0.
<mgrwt>
<rscale>  2 0.45075158E+03</rscale>
<asrwt>0</asrwt>
<pdfrwt beam="1">  1       21 0.12686645E+00 0.45075158E+03</pdfrwt>
<pdfrwt beam="2">  1       21 0.86586447E-02 0.45075158E+03</pdfrwt>
<totfact> 0.43749922E+04</totfact>
</mgrwt>
</event>
<event>
 7    0  0.4752811E-002  0.4619409E+03  0.7546771E-02  0.1024220E+00
         21   -1    0    0  502  501  0.00000000000E+00  0.00000000000E+00  0.16907100869E+03  0.16907100869E+03  0.00000000000E+00 0. -1.
         21   -1    0    0  501  502 -0.00000000000E+00 -0.00000000000E+00 -0.31553226339E+03  0.31553226339E+03  0.00000000000E+00 0. -1.
      99926    2    1    2    0    0  0.00000000000E+00 -0.14210854715E-13 -0.14646125470E+03  0.48460327207E+03  0.46194094014E+03 0.  0.
      99925    2    3    3    0    0 -0.21754486435E+02  0.72152001724E+02  0.57745875926E+01  0.27364728422E+03  0.26300251190E+03 0.  0.
         25    1    3    3    0    0  0.21754486435E+02 -0.72152001724E+02 -0.15223584229E+03  0.21095598785E+03  0.12509000000E+03 0.  0.
         25    1    4    4    0    0 -0.15698986534E+02  0.76224213291E+02  0.14537153433E+02  0.14803859564E+03  0.12509000000E+03 0.  0.
         25    1    4    4    0    0 -0.60554999012E+01 -0.40722115662E+01 -0.87625658405E+01  0.12560868858E+03  0.12509000000E+03 0.  0.
<mgrwt>
<rscale>  2 0.46194094E+03</rscale>
<asrwt>0</asrwt>
<pdfrwt beam="1">  1       21 0.24863384E-01 0.46194094E+03</pdfrwt>
<pdfrwt beam="2">  1       21 0.46401803E-01 0.46194094E+03</pdfrwt>
<totfact> 0.62832787E+04</totfact>
</mgrwt>
</event>
<event>
 7    0  0.4752811E-002  0.4620690E+03  0.7546771E-02  0.1024183E+00
         21   -1    0    0  502  501  0.00000000000E+00  0.00000000000E+00  0.21516731578E+03  0.21516731578E+03  0.00000000000E+00 0. -1.
         21   -1    0    0  501  502 -0.00000000000E+00 -0.00000000000E+00 -0.24807176800E+03  0.24807176800E+03  0.00000000000E+00 0. -1.
      99926    2    1    2    0    0  0.00000000000E+00  0.00000000000E+00 -0.32904452213E+02  0.46323908378E+03  0.46206898377E+03 0.  0.
      99925    2    3    3    0    0  0.93098680224E+02  0.56998158751E+02 -0.69648963493E+02  0.29319843696E+03  0.26305549027E+03 0.  0.
         25    1    4    4    0    0  0.55045772958E+02  0.65748771073E+02 -0.19584993284E+02  0.15291833795E+03  0.12509000000E+03 0.  0.
         25    1    4    4    0    0  0.38052907266E+02 -0.87506123213E+01 -0.50063970209E+02  0.14028009902E+03  0.12509000000E+03 0.  0.
         25    1    3    3    0    0 -0.93098680224E+02 -0.56998158751E+02  0.36744511279E+02  0.17004064682E+03  0.12509000000E+03 0.  0.
<mgrwt>
<rscale>  2 0.46206898E+03</rscale>
<asrwt>0</asrwt>
<pdfrwt beam="1">  1       21 0.31642253E-01 0.46206898E+03</pdfrwt>
<pdfrwt beam="2">  1       21 0.36481142E-01 0.46206898E+03</pdfrwt>
<totfact> 0.64245655E+04</totfact>
</mgrwt>
</event>
<event>
 7    0  0.4752811E-002  0.4510269E+03  0.7546771E-02  0.1027416E+00
         21   -1    0    0  502  501  0.00000000000E+00  0.00000000000E+00  0.26885681465E+03  0.26885681465E+03  0.00000000000E+00 0.  1.
         21   -1    0    0  501  502 -0.00000000000E+00 -0.00000000000E+00 -0.18915763889E+03  0.18915763889E+03  0.00000000000E+00 0.  1.
      99926    2    1    2    0    0  0.00000000000E+00  0.00000000000E+00  0.79699175763E+02  0.45801445354E+03  0.45102691830E+03 0.  0.
      99925    2    3    3    0    0 -0.56000526032E+02  0.18202835338E+02 -0.43274094099E+02  0.27298111781E+03  0.26301832888E+03 0.  0.
         25    1    4    4    0    0 -0.24797616536E+00 -0.65083299811E+01  0.58651828388E+01  0.12539668385E+03  0.12509000000E+03 0.  0.
         25    1    3    3    0    0  0.56000526032E+02 -0.18202835338E+02  0.12297326986E+03  0.18503333573E+03  0.12509000000E+03 0.  0.
         25    1    4    4    0    0 -0.55752549866E+02  0.24711165319E+02 -0.49139276938E+02  0.14758443396E+03  0.12509000000E+03 0.  0.
<mgrwt>
<rscale>  2 0.45102692E+03</rscale>
<asrwt>0</asrwt>
<pdfrwt beam="1">  1       21 0.39537767E-01 0.45102692E+03</pdfrwt>
<pdfrwt beam="2">  1       21 0.27817300E-01 0.45102692E+03</pdfrwt>
<totfact> 0.70533322E+04</totfact>
</mgrwt>
</event>
<event>
 7    0  0.4752811E-002  0.4560869E+03  0.7546771E-02  0.1025922E+00
         21   -1    0    0  502  501  0.00000000000E+00  0.00000000000E+00  0.54257345821E+03  0.54257345821E+03  0.00000000000E+00 0. -1.
         21   -1    0    0  501  502 -0.00000000000E+00 -0.00000000000E+00 -0.95846599123E+02  0.95846599123E+02  0.00000000000E+00 0. -1.
      99926    2    1    2    0    0  0.00000000000E+00  0.00000000000E+00  0.44672685909E+03  0.63842005733E+03  0.45608692480E+03 0.  0.
      99925    2    3    3    0    0 -0.57987492499E+02 -0.27864876787E+02  0.41288986076E+03  0.49374299903E+03  0.26299260697E+03 0.  0.
         25    1    3    3    0    0  0.57987492499E+02  0.27864876787E+02  0.33836998324E+02  0.14467705831E+03  0.12509000000E+03 0.  0.
         25    1    4    4    0    0 -0.13517071685E+02 -0.36498970769E+02  0.25951833744E+03  0.29070975502E+03  0.12509000000E+03 0.  0.
         25    1    4    4    0    0 -0.44470420814E+02  0.86340939816E+01  0.15337152332E+03  0.20303324400E+03  0.12509000000E+03 0.  0.
<mgrwt>
<rscale>  2 0.45608692E+03</rscale>
<asrwt>0</asrwt>
<pdfrwt beam="1">  1       21 0.79790213E-01 0.45608692E+03</pdfrwt>
<pdfrwt beam="2">  1       21 0.14095088E-01 0.45608692E+03</pdfrwt>
<totfact> 0.55892595E+04</totfact>
</mgrwt>
</event>
<event>
 7    0  0.4752811E-002  0.4540169E+03  0.7546771E-02  0.1026531E+00
         21   -1    0    0  502  501  0.00000000000E+00  0.00000000000E+00  0.95063927422E+02  0.95063927422E+02  0.00000000000E+00 0.  1.
         21   -1    0    0  501  502 -0.00000000000E+00 -0.00000000000E+00 -0.54208623707E+03  0.54208623707E+03  0.00000000000E+00 0.  1.
      99926    2    1    2    0    0 -0.71054273576E-14  0.00000000000E+00 -0.44702230965E+03  0.63715016449E+03  0.45401694549E+03 0.  0.
      99925    2    3    3    0    0 -0.33953945886E+02  0.95161089149E+02 -0.34982409609E+03  0.44925789709E+03  0.26314873469E+03 0.  0.
         25    1    4    4    0    0 -0.34297420373E+02  0.10945982821E+02 -0.18017878222E+03  0.22227916962E+03  0.12509000000E+03 0.  0.
         25    1    4    4    0    0  0.34347448713E+00  0.84215106328E+02 -0.16964531387E+03  0.22697872747E+03  0.12509000000E+03 0.  0.
         25    1    3    3    0    0  0.33953945886E+02 -0.95161089149E+02 -0.97198213562E+02  0.18789226740E+03  0.12509000000E+03 0.  0.
<mgrwt>
<rscale>  2 0.45401695E+03</rscale>
<asrwt>0</asrwt>
<pdfrwt beam="1">  1       21 0.13979990E-01 0.45401695E+03</pdfrwt>
<pdfrwt beam="2">  1       21 0.79718561E-01 0.45401695E+03</pdfrwt>
<totfact> 0.56887987E+04</totfact>
</mgrwt>
</event>
<event>
 7    0  0.4752811E-002  0.4553797E+03  0.7546771E-02  0.1026130E+00
         21   -1    0    0  502  501  0.00000000000E+00  0.00000000000E+00  0.38628959356E+03  0.38628959356E+03  0.00000000000E+00 0. -1.
         21   -1    0    0  501  502 -0.00000000000E+00 -0.00000000000E+00 -0.13420672303E+03  0.13420672303E+03  0.00000000000E+00 0. -1.
      99926    2    1    2    0    0  0.00000000000E+00  0.00000000000E+00  0.25208287054E+03  0.52049631659E+03  0.45537966793E+03 0.  0.
      99925    2    3    3    0    0  0.29380956121E+02 -0.97572657112E+02  0.21576001669E+03  0.35511638489E+03  0.26300493914E+03 0.  0.
         25    1    4    4    0    0  0.34297095495E+02 -0.87449362003E+02  0.11720855792E+03  0.19547131714E+03  0.12509000000E+03 0.  0.
         25    1    4    4    0    0 -0.49161393738E+01 -0.10123295109E+02  0.98551458778E+02  0.15964506775E+03  0.12509000000E+03 0.  0.
         25    1    3    3    0    0 -0.29380956121E+02  0.97572657112E+02  0.36322853843E+02  0.16537993170E+03  0.12509000000E+03 0.  0.
<mgrwt>
<rscale>  2 0.45537967E+03</rscale>
<asrwt>0</asrwt>
<pdfrwt beam="1">  1       21 0.56807293E-01 0.45537967E+03</pdfrwt>
<pdfrwt beam="2">  1       21 0.19736283E-01 0.45537967E+03</pdfrwt>
<totfact> 0.63661486E+04</totfact>
</mgrwt>
</event>
<event>
 7    0  0.4752811E-002  0.4556230E+03  0.7546771E-02  0.1026058E+00
         21   -1    0    0  502  501  0.00000000000E+00  0.00000000000E+00  0.33309456004E+03  0.33309456004E+03  0.00000000000E+00 0.  1.
         21   -1    0    0  501  502 -0.00000000000E+00 -0.00000000000E+00 -0.15580584760E+03  0.15580584760E+03  0.00000000000E+00 0.  1.
      99926    2    1    2    0    0  0.00000000000E+00  0.00000000000E+00  0.17728871245E+03  0.48890040764E+03  0.45562300318E+03 0.  0.
      99925    2    3    3    0    0  0.95988113398E+02 -0.55130807820E+02  0.14051187732E+03  0.31786483360E+03  0.26275718998E+03 0.  0.
         25    1    4    4    0    0  0.25331741298E+02 -0.60443331239E+02  0.64654897133E+02  0.15531534770E+03  0.12509000000E+03 0.  0.
         25    1    4    4    0    0  0.70656372101E+02  0.53125234188E+01  0.75856980187E+02  0.16254948590E+03  0.12509000000E+03 0.  0.
         25    1    3    3    0    0 -0.95988113398E+02  0.55130807820E+02  0.36776835125E+02  0.17103557404E+03  0.12509000000E+03 0.  0.
<mgrwt>
<rscale>  2 0.45562300E+03</rscale>
<asrwt>0</asrwt>
<pdfrwt beam="1">  1       21 0.48984494E-01 0.45562300E+03</pdfrwt>
<pdfrwt beam="2">  1       21 0.22912625E-01 0.45562300E+03</pdfrwt>
<totfact> 0.65732002E+04</totfact>
</mgrwt>
</event>
<event>
 7    0  0.4752811E-002  0.4450609E+03  0.7546771E-02  0.1029205E+00
         21   -1    0    0  502  501  0.00000000000E+00  0.00000000000E+00  0.34899028218E+02  0.34899028218E+02  0.00000000000E+00 0. -1.
         21   -1    0    0  501  502 -0.00000000000E+00 -0.00000000000E+00 -0.14189447283E+04  0.14189447283E+04  0.00000000000E+00 0. -1.
      99926    2    1    2    0    0  0.00000000000E+00  0.14210854715E-13 -0.13840457000E+04  0.14538437565E+04  0.44506085926E+03 0.  0.
      99925    2    3    3    0    0  0.75837978747E+02 -0.68186383316E+02 -0.93789008551E+03  0.97939341938E+03  0.26300736785E+03 0.  0.
         25    1    4    4    0    0  0.62511395912E+02 -0.69708076668E+02 -0.51246481544E+03  0.53575608792E+03  0.12509000000E+03 0.  0.
         25    1    4    4    0    0  0.13326582835E+02  0.15216933516E+01 -0.42542527007E+03  0.44363733147E+03  0.12509000000E+03 0.  0.
         25    1    3    3    0    0 -0.75837978747E+02  0.68186383316E+02 -0.44615561452E+03  0.47445033709E+03  0.12509000000E+03 0.  0.
<mgrwt>
<rscale>  2 0.44506086E+03</rscale>
<asrwt>0</asrwt>
<pdfrwt beam="1">  1       21 0.51322101E-02 0.44506086E+03</pdfrwt>
<pdfrwt beam="2">  1       21 0.20866834E+00 0.44506086E+03</pdfrwt>
<totfact> 0.26953917E+04</totfact>
</mgrwt>
</event>
<event>
 7    0  0.4752811E-002  0.4606751E+03  0.7546771E-02  0.1024586E+00
         21   -1    0    0  502  501  0.00000000000E+00  0.00000000000E+00  0.95349588838E+02  0.95349588838E+02  0.00000000000E+00 0. -1.
         21   -1    0    0  501  502 -0.00000000000E+00 -0.00000000000E+00 -0.55643004248E+03  0.55643004248E+03  0.00000000000E+00 0. -1.
      99926    2    1    2    0    0 -0.14210854715E-13  0.00000000000E+00 -0.46108045364E+03  0.65177963132E+03  0.46067505149E+03 0.  0.
      99925    2    3    3    0    0  0.68077836992E+02  0.13260606208E+02 -0.15284162538E+03  0.31197215801E+03  0.26297457930E+03 0.  0.
         25    1    4    4    0    0 -0.82379640077E+00  0.93410115320E+01 -0.97047757386E+02  0.15859920697E+03  0.12509000000E+03 0.  0.
         25    1    4    4    0    0  0.68901633393E+02  0.39195946761E+01 -0.55793867998E+02  0.15337295105E+03  0.12509000000E+03 0.  0.
         25    1    3    3    0    0 -0.68077836992E+02 -0.13260606208E+02 -0.30823882826E+03  0.33980747330E+03  0.12509000000E+03 0.  0.
<mgrwt>
<rscale>  2 0.46067505E+03</rscale>
<asrwt>0</asrwt>
<pdfrwt beam="1">  1       21 0.14021999E-01 0.46067505E+03</pdfrwt>
<pdfrwt beam="2">  1       21 0.81827946E-01 0.46067505E+03</pdfrwt>
<totfact> 0.53178022E+04</totfact>
</mgrwt>
</event>
<event>
 7    0  0.4752811E-002  0.4577954E+03  0.7546771E-02  0.1025423E+00
         21   -1    0    0  502  501  0.00000000000E+00  0.00000000000E+00  0.23690786118E+02  0.23690786118E+02  0.00000000000E+00 0.  1.
         21   -1    0    0  501  502 -0.00000000000E+00 -0.00000000000E+00 -0.22115833243E+04  0.22115833243E+04  0.00000000000E+00 0.  1.
      99926    2    1    2    0    0  0.15543122345E-14 -0.14210854715E-13 -0.21878925382E+04  0.22352741105E+04  0.45779535829E+03 0.  0.
      99925    2    3    3    0    0 -0.10984669101E+01 -0.10798929005E+03 -0.11725267604E+04  0.12065476821E+04  0.26320222660E+03 0.  0.
         25    1    4    4    0    0 -0.29432315756E+02 -0.24669174982E+02 -0.49874125229E+03  0.51562115380E+03  0.12509000000E+03 0.  0.
         25    1    3    3    0    0  0.10984669101E+01  0.10798929005E+03 -0.10153657778E+04  0.10287264283E+04  0.12509000000E+03 0.  0.
         25    1    4    4    0    0  0.28333848846E+02 -0.83320115070E+02 -0.67378550808E+03  0.69092652834E+03  0.12509000000E+03 0.  0.
<mgrwt>
<rscale>  2 0.45779536E+03</rscale>
<asrwt>0</asrwt>
<pdfrwt beam="1">  1       21 0.34839414E-02 0.45779536E+03</pdfrwt>
<pdfrwt beam="2">  1       21 0.32523263E+00 0.45779536E+03</pdfrwt>
<totfact> 0.10015596E+04</totfact>
</mgrwt>
</event>
<event>
 7    0  0.4752811E-002  0.4699966E+03  0.7546771E-02  0.1021921E+00
         21   -1    0    0  502  501  0.00000000000E+00  0.00000000000E+00  0.90357167720E+02  0.90357167720E+02  0.00000000000E+00 0. -1.
         21   -1    0    0  501  502 -0.00000000000E+00 -0.00000000000E+00 -0.61117686202E+03  0.61117686202E+03  0.00000000000E+00 0. -1.
      99926    2    1    2    0    0 -0.35527136788E-14  0.71054273576E-14 -0.52081969430E+03  0.70153402975E+03  0.46999663926E+03 0.  0.
      99925    2    3    3    0    0  0.21580869902E+02 -0.46494618683E+02 -0.15119026729E+03  0.30795950703E+03  0.26334972477E+03 0.  0.
         25    1    4    4    0    0  0.19816109112E+02 -0.61743253957E+02 -0.64274915868E+02  0.15486665393E+03  0.12509000000E+03 0.  0.
         25    1    3    3    0    0 -0.21580869902E+02  0.46494618683E+02 -0.36962942702E+03  0.39357452271E+03  0.12509000000E+03 0.  0.
         25    1    4    4    0    0  0.17647607897E+01  0.15248635274E+02 -0.86915351418E+02  0.15309285310E+03  0.12509000000E+03 0.  0.
<mgrwt>
<rscale>  2 0.46999664E+03</rscale>
<asrwt>0</asrwt>
<pdfrwt beam="1">  1       21 0.13287819E-01 0.46999664E+03</pdfrwt>
<pdfrwt beam="2">  1       21 0.89878950E-01 0.46999664E+03</pdfrwt>
<totfact> 0.47017998E+04</totfact>
</mgrwt>
</event>
<event>
 7    0  0.4752811E-002  0.4504428E+03  0.7546771E-02  0.1027590E+00
         21   -1    0    0  502  501  0.00000000000E+00  0.00000000000E+00  0.19846744097E+03  0.19846744097E+03  0.00000000000E+00 0. -1.
         21   -1    0    0  501  502 -0.00000000000E+00 -0.00000000000E+00 -0.25558183304E+03  0.25558183304E+03  0.00000000000E+00 0. -1.
      99926    2    1    2    0    0  0.00000000000E+00 -0.35527136788E-14 -0.57114392078E+02  0.45404927401E+03  0.45044277045E+03 0.  0.
      99925    2    3    3    0    0 -0.10160565871E+03 -0.94673761296E+01  0.17235515284E+01  0.28222741044E+03  0.26312734461E+03 0.  0.
         25    1    4    4    0    0 -0.62197789618E+02 -0.33601005239E+02 -0.26015704999E+02  0.14602026432E+03  0.12509000000E+03 0.  0.
         25    1    3    3    0    0  0.10160565871E+03  0.94673761296E+01 -0.58837943607E+02  0.17182186357E+03  0.12509000000E+03 0.  0.
         25    1    4    4    0    0 -0.39407869094E+02  0.24133629109E+02  0.27739256527E+02  0.13620714612E+03  0.12509000000E+03 0.  0.
<mgrwt>
<rscale>  2 0.45044277E+03</rscale>
<asrwt>0</asrwt>
<pdfrwt beam="1">  1       21 0.29186388E-01 0.45044277E+03</pdfrwt>
<pdfrwt beam="2">  1       21 0.37585564E-01 0.45044277E+03</pdfrwt>
<totfact> 0.71167930E+04</totfact>
</mgrwt>
</event>
<event>
 7    0  0.4752811E-002  0.4602601E+03  0.7546771E-02  0.1024706E+00
         21   -1    0    0  502  501  0.00000000000E+00  0.00000000000E+00  0.78803669579E+03  0.78803669579E+03  0.00000000000E+00 0.  1.
         21   -1    0    0  501  502 -0.00000000000E+00 -0.00000000000E+00 -0.67204801858E+02  0.67204801858E+02  0.00000000000E+00 0.  1.
      99926    2    1    2    0    0 -0.71054273576E-14  0.71054273576E-14  0.72083189393E+03  0.85524149765E+03  0.46026014382E+03 0.  0.
      99925    2    3    3    0    0 -0.63901310342E+02  0.18390514464E+02  0.27016479469E+03  0.38283284941E+03  0.26296460944E+03 0.  0.
         25    1    4    4    0    0 -0.45282306826E+02 -0.23577858524E+02  0.16383919337E+03  0.21236099479E+03  0.12509000000E+03 0.  0.
         25    1    4    4    0    0 -0.18619003516E+02  0.41968372988E+02  0.10632560132E+03  0.17047185462E+03  0.12509000000E+03 0.  0.
         25    1    3    3    0    0  0.63901310342E+02 -0.18390514464E+02  0.45066709925E+03  0.47240864824E+03  0.12509000000E+03 0.  0.
<mgrwt>
<rscale>  2 0.46026014E+03</rscale>
<asrwt>0</asrwt>
<pdfrwt beam="1">  1       21 0.11588774E+00 0.46026014E+03</pdfrwt>
<pdfrwt beam="2">  1       21 0.98830596E-02 0.46026014E+03</pdfrwt>
<totfact> 0.43387667E+04</totfact>
</mgrwt>
</event>
<event>
 7    0  0.4752811E-002  0.4627140E+03  0.7546771E-02  0.1023997E+00
         21   -1    0    0  502  501  0.00000000000E+00  0.00000000000E+00  0.68390376973E+02  0.68390376973E+02  0.00000000000E+00 0. -1.
         21   -1    0    0  501  502 -0.00000000000E+00 -0.00000000000E+00 -0.78265470441E+03  0.78265470441E+03  0.00000000000E+00 0. -1.
      99926    2    1    2    0    0  0.00000000000E+00  0.00000000000E+00 -0.71426432744E+03  0.85104508139E+03  0.46271395170E+03 0.  0.
      99925    2    3    3    0    0  0.91216118915E+02  0.66484159869E+02 -0.37000585483E+03  0.46776720839E+03  0.26298536988E+03 0.  0.
         25    1    3    3    0    0 -0.91216118915E+02 -0.66484159869E+02 -0.34425847261E+03  0.38327787300E+03  0.12509000000E+03 0.  0.
         25    1    4    4    0    0  0.81854097404E+02  0.43218527050E+02 -0.16936297102E+03  0.22999838781E+03  0.12509000000E+03 0.  0.
         25    1    4    4    0    0  0.93620215112E+01  0.23265632819E+02 -0.20064288380E+03  0.23776882058E+03  0.12509000000E+03 0.  0.
<mgrwt>
<rscale>  2 0.46271395E+03</rscale>
<asrwt>0</asrwt>
<pdfrwt beam="1">  1       21 0.10057409E-01 0.46271395E+03</pdfrwt>
<pdfrwt beam="2">  1       21 0.11509628E+00 0.46271395E+03</pdfrwt>
<totfact> 0.42746629E+04</totfact>
</mgrwt>
</event>
<event>
 7    0  0.4752811E-002  0.4472932E+03  0.7546771E-02  0.1028532E+00
         21   -1    0    0  502  501  0.00000000000E+00  0.00000000000E+00  0.45206743754E+03  0.45206743754E+03  0.00000000000E+00 0. -1.
         21   -1    0    0  501  502 -0.00000000000E+00 -0.00000000000E+00 -0.11064234488E+03  0.11064234488E+03  0.00000000000E+00 0. -1.
      99926    2    1    2    0    0  0.00000000000E+00  0.14210854715E-13  0.34142509266E+03  0.56270978241E+03  0.44729319839E+03 0.  0.
      99925    2    3    3    0    0  0.48693349367E+02 -0.91488883083E+02  0.24221401785E+03  0.37236377256E+03  0.26314613939E+03 0.  0.
         25    1    4    4    0    0  0.49213778005E+02 -0.81796689517E+02  0.13500391061E+03  0.20733127681E+03  0.12509000000E+03 0.  0.
         25    1    3    3    0    0 -0.48693349367E+02  0.91488883083E+02  0.99211074811E+02  0.19034600985E+03  0.12509000000E+03 0.  0.
         25    1    4    4    0    0 -0.52042863825E+00 -0.96921935650E+01  0.10721010724E+03  0.16503249576E+03  0.12509000000E+03 0.  0.
<mgrwt>
<rscale>  2 0.44729320E+03</rscale>
<asrwt>0</asrwt>
<pdfrwt beam="1">  1       21 0.66480505E-01 0.44729320E+03</pdfrwt>
<pdfrwt beam="2">  1       21 0.16270933E-01 0.44729320E+03</pdfrwt>
<totfact> 0.64900832E+04</totfact>
</mgrwt>
</event>
<event>
 7    0  0.4752811E-002  0.4556513E+03  0.7546771E-02  0.1026050E+00
         21   -1    0    0  502  501  0.00000000000E+00  0.00000000000E+00  0.20222770625E+03  0.20222770625E+03  0.00000000000E+00 0.  1.
         21   -1    0    0  501  502 -0.00000000000E+00 -0.00000000000E+00 -0.25666375248E+03  0.25666375248E+03  0.00000000000E+00 0.  1.
      99926    2    1    2    0    0  0.00000000000E+00  0.14210854715E-13 -0.54436046230E+02  0.45889145874E+03  0.45565127869E+03 0.  0.
      99925    2    3    3    0    0 -0.56706921087E+02 -0.97594821207E+02 -0.19623112049E+02  0.28684532390E+03  0.26297290600E+03 0.  0.
         25    1    3    3    0    0  0.56706921087E+02  0.97594821207E+02 -0.34812934181E+02  0.17204613484E+03  0.12509000000E+03 0.  0.
         25    1    4    4    0    0 -0.44114241263E+02 -0.86971003260E+02 -0.24955011941E+02  0.16056239414E+03  0.12509000000E+03 0.  0.
         25    1    4    4    0    0 -0.12592679824E+02 -0.10623817947E+02  0.53318998927E+01  0.12628292976E+03  0.12509000000E+03 0.  0.
<mgrwt>
<rscale>  2 0.45565128E+03</rscale>
<asrwt>0</asrwt>
<pdfrwt beam="1">  1       21 0.29739369E-01 0.45565128E+03</pdfrwt>
<pdfrwt beam="2">  1       21 0.37744669E-01 0.45565128E+03</pdfrwt>
<totfact> 0.67907980E+04</totfact>
</mgrwt>
</event>
<event>
 7    0  0.4752811E-002  0.4587294E+03  0.7546771E-02  0.1025150E+00
         21   -1    0    0  502  501  0.00000000000E+00  0.00000000000E+00  0.57433136536E+02  0.57433136536E+02  0.00000000000E+00 0. -1.
         21   -1    0    0  501  502 -0.00000000000E+00 -0.00000000000E+00 -0.91598979604E+03  0.91598979604E+03  0.00000000000E+00 0. -1.
      99926    2    1    2    0    0  0.00000000000E+00  0.00000000000E+00 -0.85855665951E+03  0.97342293258E+03  0.45872940617E+03 0.  0.
      99925    2    3    3    0    0  0.11869677291E+02 -0.87817309598E+02 -0.69945906633E+03  0.75248782591E+03  0.26294899424E+03 0.  0.
         25    1    4    4    0    0 -0.22133664502E+02 -0.66632584241E+02 -0.31268813254E+03  0.34402205847E+03  0.12509000000E+03 0.  0.
         25    1    4    4    0    0  0.34003341793E+02 -0.21184725357E+02 -0.38677093379E+03  0.40846576744E+03  0.12509000000E+03 0.  0.
         25    1    3    3    0    0 -0.11869677291E+02  0.87817309598E+02 -0.15909759318E+03  0.22093510667E+03  0.12509000000E+03 0.  0.
<mgrwt>
<rscale>  2 0.45872941E+03</rscale>
<asrwt>0</asrwt>
<pdfrwt beam="1">  1       21 0.84460486E-02 0.45872941E+03</pdfrwt>
<pdfrwt beam="2">  1       21 0.13470440E+00 0.45872941E+03</pdfrwt>
<totfact> 0.39055431E+04</totfact>
</mgrwt>
</event>
<event>
 7    0  0.4752811E-002  0.4589649E+03  0.7546771E-02  0.1025082E+00
         21   -1    0    0  502  501  0.00000000000E+00  0.00000000000E+00  0.47919782065E+03  0.47919782065E+03  0.00000000000E+00 0.  1.
         21   -1    0    0  501  502 -0.00000000000E+00 -0.00000000000E+00 -0.10989654575E+03  0.10989654575E+03  0.00000000000E+00 0.  1.
      99926    2    1    2    0    0  0.00000000000E+00  0.00000000000E+00  0.36930127490E+03  0.58909436640E+03  0.45896485801E+03 0.  0.
      99925    2    3    3    0    0  0.93594121694E+02  0.51628274219E+02  0.17079900293E+03  0.33126496856E+03  0.26294265854E+03 0.  0.
         25    1    4    4    0    0  0.66933445916E+02  0.55661835011E+02  0.66919671794E+02  0.16644541637E+03  0.12509000000E+03 0.  0.
         25    1    3    3    0    0 -0.93594121694E+02 -0.51628274219E+02  0.19850227197E+03  0.25782939784E+03  0.12509000000E+03 0.  0.
         25    1    4    4    0    0  0.26660675779E+02 -0.40335607920E+01  0.10387933114E+03  0.16481955219E+03  0.12509000000E+03 0.  0.
<mgrwt>
<rscale>  2 0.45896486E+03</rscale>
<asrwt>0</asrwt>
<pdfrwt beam="1">  1       21 0.70470267E-01 0.45896486E+03</pdfrwt>
<pdfrwt beam="2">  1       21 0.16161257E-01 0.45896486E+03</pdfrwt>
<totfact> 0.57530432E+04</totfact>
</mgrwt>
</event>
<event>
 7    0  0.4752811E-002  0.4511439E+03  0.7546771E-02  0.1027381E+00
         21   -1    0    0  502  501  0.00000000000E+00  0.00000000000E+00  0.33565915692E+02  0.33565915692E+02  0.00000000000E+00 0.  1.
         21   -1    0    0  501  502 -0.00000000000E+00 -0.00000000000E+00 -0.15159040502E+04  0.15159040502E+04  0.00000000000E+00 0.  1.
      99926    2    1    2    0    0  0.00000000000E+00  0.00000000000E+00 -0.14823381345E+04  0.15494699659E+04  0.45114391295E+03 0.  0.
      99925    2    3    3    0    0 -0.86153132424E+02 -0.13613262784E+02 -0.11629597597E+04  0.11955522671E+04  0.26317700781E+03 0.  0.
         25    1    4    4    0    0 -0.60472610288E+02 -0.42562143095E+02 -0.66221613799E+03  0.67797211899E+03  0.12509000000E+03 0.  0.
         25    1    3    3    0    0  0.86153132424E+02  0.13613262784E+02 -0.31937837477E+03  0.35391769879E+03  0.12509000000E+03 0.  0.
         25    1    4    4    0    0 -0.25680522136E+02  0.28948880311E+02 -0.50074362176E+03  0.51758014812E+03  0.12509000000E+03 0.  0.
<mgrwt>
<rscale>  2 0.45114391E+03</rscale>
<asrwt>0</asrwt>
<pdfrwt beam="1">  1       21 0.49361669E-02 0.45114391E+03</pdfrwt>
<pdfrwt beam="2">  1       21 0.22292694E+00 0.45114391E+03</pdfrwt>
<totfact> 0.23281844E+04</totfact>
</mgrwt>
</event>
<event>
 7    0  0.4752811E-002  0.4537435E+03  0.7546771E-02  0.1026612E+00
         21   -1    0    0  502  501  0.00000000000E+00  0.00000000000E+00  0.43112643668E+03  0.43112643668E+03  0.00000000000E+00 0. -1.
         21   -1    0    0  501  502 -0.00000000000E+00 -0.00000000000E+00 -0.11938674223E+03  0.11938674223E+03  0.00000000000E+00 0. -1.
      99926    2    1    2    0    0  0.00000000000E+00  0.00000000000E+00  0.31173969445E+03  0.55051317892E+03  0.45374345512E+03 0.  0.
      99925    2    3    3    0    0  0.59758805600E+02 -0.69607726729E+02  0.11852101415E+03  0.30272835900E+03  0.26302258093E+03 0.  0.
         25    1    3    3    0    0 -0.59758805600E+02  0.69607726729E+02  0.19321868030E+03  0.24778481992E+03  0.12509000000E+03 0.  0.
         25    1    4    4    0    0  0.20137880916E+02 -0.52066577634E+02  0.98778817020E+02  0.16888228310E+03  0.12509000000E+03 0.  0.
         25    1    4    4    0    0  0.39620924684E+02 -0.17541149095E+02  0.19742197131E+02  0.13384607589E+03  0.12509000000E+03 0.  0.
<mgrwt>
<rscale>  2 0.45374346E+03</rscale>
<asrwt>0</asrwt>
<pdfrwt beam="1">  1       21 0.63400946E-01 0.45374346E+03</pdfrwt>
<pdfrwt beam="2">  1       21 0.17556874E-01 0.45374346E+03</pdfrwt>
<totfact> 0.62451160E+04</totfact>
</mgrwt>
</event>
<event>
 7    0  0.4752811E-002  0.4540921E+03  0.7546771E-02  0.1026509E+00
         21   -1    0    0  502  501  0.00000000000E+00  0.00000000000E+00  0.47644908035E+03  0.47644908035E+03  0.00000000000E+00 0.  1.
         21   -1    0    0  501  502 -0.00000000000E+00 -0.00000000000E+00 -0.10819606719E+03  0.10819606719E+03  0.00000000000E+00 0.  1.
      99926    2    1    2    0    0  0.88817841970E-15  0.00000000000E+00  0.36825301316E+03  0.58464514755E+03  0.45409213476E+03 0.  0.
      99925    2    3    3    0    0 -0.79701313460E+01 -0.11145995050E+03  0.21722900566E+03  0.35894046771E+03  0.26298854518E+03 0.  0.
         25    1    4    4    0    0  0.44705690303E+01 -0.53120297173E+02  0.15737890978E+03  0.20798408906E+03  0.12509000000E+03 0.  0.
         25    1    4    4    0    0 -0.12440700376E+02 -0.58339653332E+02  0.59850095882E+02  0.15095637865E+03  0.12509000000E+03 0.  0.
         25    1    3    3    0    0  0.79701313460E+01  0.11145995050E+03  0.15102400750E+03  0.22570467984E+03  0.12509000000E+03 0.  0.
<mgrwt>
<rscale>  2 0.45409213E+03</rscale>
<asrwt>0</asrwt>
<pdfrwt beam="1">  1       21 0.70066040E-01 0.45409213E+03</pdfrwt>
<pdfrwt beam="2">  1       21 0.15911187E-01 0.45409213E+03</pdfrwt>
<totfact> 0.60063371E+04</totfact>
</mgrwt>
</event>
<event>
 7    0  0.4752811E-002  0.4501428E+03  0.7546771E-02  0.1027679E+00
         21   -1    0    0  502  501  0.00000000000E+00  0.00000000000E+00  0.58284721627E+02  0.58284721627E+02  0.00000000000E+00 0.  1.
         21   -1    0    0  501  502 -0.00000000000E+00 -0.00000000000E+00 -0.86913249295E+03  0.86913249295E+03  0.00000000000E+00 0.  1.
      99926    2    1    2    0    0  0.71054273576E-14  0.00000000000E+00 -0.81084777133E+03  0.92741721458E+03  0.45014284581E+03 0.  0.
      99925    2    3    3    0    0 -0.58097051291E+02  0.17239838168E+02 -0.69809780510E+03  0.74844084080E+03  0.26296514464E+03 0.  0.
         25    1    4    4    0    0 -0.21392700531E+02  0.47883335321E+02 -0.36896145422E+03  0.39310370672E+03  0.12509000000E+03 0.  0.
         25    1    4    4    0    0 -0.36704350760E+02 -0.30643497154E+02 -0.32913635088E+03  0.35533713407E+03  0.12509000000E+03 0.  0.
         25    1    3    3    0    0  0.58097051291E+02 -0.17239838168E+02 -0.11274996623E+03  0.17897637378E+03  0.12509000000E+03 0.  0.
<mgrwt>
<rscale>  2 0.45014285E+03</rscale>
<asrwt>0</asrwt>
<pdfrwt beam="1">  1       21 0.85712829E-02 0.45014285E+03</pdfrwt>
<pdfrwt beam="2">  1       21 0.12781360E+00 0.45014285E+03</pdfrwt>
<totfact> 0.43706037E+04</totfact>
</mgrwt>
</event>
<event>
 7    0  0.4752811E-002  0.4550490E+03  0.7546771E-02  0.1026227E+00
         21   -1    0    0  502  501  0.00000000000E+00  0.00000000000E+00  0.81585075495E+03  0.81585075495E+03  0.00000000000E+00 0.  1.
         21   -1    0    0  501  502 -0.00000000000E+00 -0.00000000000E+00 -0.63452038611E+02  0.63452038611E+02  0.00000000000E+00 0.  1.
      99926    2    1    2    0    0  0.00000000000E+00  0.00000000000E+00  0.75239871634E+03  0.87930279356E+03  0.45504898024E+03 0.  0.
      99925    2    3    3    0    0 -0.15952900189E+02  0.73388771213E+02  0.30992517132E+03  0.41339426938E+03  0.26306045574E+03 0.  0.
         25    1    3    3    0    0  0.15952900189E+02 -0.73388771213E+02  0.44247354502E+03  0.46590852418E+03  0.12509000000E+03 0.  0.
         25    1    4    4    0    0 -0.17182687681E+01  0.57134026423E+02  0.21358359653E+03  0.25403289202E+03  0.12509000000E+03 0.  0.
         25    1    4    4    0    0 -0.14234631421E+02  0.16254744790E+02  0.96341574796E+02  0.15936137736E+03  0.12509000000E+03 0.  0.
<mgrwt>
<rscale>  2 0.45504898E+03</rscale>
<asrwt>0</asrwt>
<pdfrwt beam="1">  1       21 0.11997805E+00 0.45504898E+03</pdfrwt>
<pdfrwt beam="2">  1       21 0.93311826E-02 0.45504898E+03</pdfrwt>
<totfact> 0.44123766E+04</totfact>
</mgrwt>
</event>
<event>
 7    0  0.4752811E-002  0.4682174E+03  0.7546771E-02  0.1022425E+00
         21   -1    0    0  502  501  0.00000000000E+00  0.00000000000E+00  0.11225170868E+03  0.11225170868E+03  0.00000000000E+00 0.  1.
         21   -1    0    0  501  502 -0.00000000000E+00 -0.00000000000E+00 -0.48824981896E+03  0.48824981896E+03  0.00000000000E+00 0.  1.
      99926    2    1    2    0    0  0.00000000000E+00  0.00000000000E+00 -0.37599811028E+03  0.60050152764E+03  0.46821737020E+03 0.  0.
      99925    2    3    3    0    0 -0.15652534724E+02 -0.12400398452E+03 -0.22548572579E+03  0.36828723866E+03  0.26300130723E+03 0.  0.
         25    1    4    4    0    0  0.63347522434E+00 -0.61906701838E+02 -0.62188063109E+02  0.15279955601E+03  0.12509000000E+03 0.  0.
         25    1    3    3    0    0  0.15652534724E+02  0.12400398452E+03 -0.15051238449E+03  0.23221428898E+03  0.12509000000E+03 0.  0.
         25    1    4    4    0    0 -0.16286009949E+02 -0.62097282684E+02 -0.16329766268E+03  0.21548768265E+03  0.12509000000E+03 0.  0.
<mgrwt>
<rscale>  2 0.46821737E+03</rscale>
<asrwt>0</asrwt>
<pdfrwt beam="1">  1       21 0.16507604E-01 0.46821737E+03</pdfrwt>
<pdfrwt beam="2">  1       21 0.71801445E-01 0.46821737E+03</pdfrwt>
<totfact> 0.52902052E+04</totfact>
</mgrwt>
</event>
<event>
 7    0  0.5788140E-002  0.4156459E+03  0.7546771E-02  0.1038493E+00
         21   -1    0    0  502  501  0.00000000000E+00  0.00000000000E+00  0.95808430149E+02  0.95808430149E+02  0.00000000000E+00 0.  1.
         21   -1    0    0  501  502 -0.00000000000E+00 -0.00000000000E+00 -0.45079937847E+03  0.45079937847E+03  0.00000000000E+00 0.  1.
      99926    2    1    2    0    0 -0.17763568394E-14  0.00000000000E+00 -0.35499094832E+03  0.54660780862E+03  0.41564591067E+03 0.  0.
      99925    2    3    3    0    0 -0.13255966590E+02  0.68970488817E+02 -0.23326759056E+03  0.35846761381E+03  0.26296884296E+03 0.  0.
         25    1    4    4    0    0 -0.21571264519E+02  0.60352153386E+02 -0.16015482001E+03  0.21308396548E+03  0.12509000000E+03 0.  0.
         25    1    3    3    0    0  0.13255966590E+02 -0.68970488817E+02 -0.12172335776E+03  0.18814019481E+03  0.12509000000E+03 0.  0.
         25    1    4    4    0    0  0.83152979290E+01  0.86183354314E+01 -0.73112770555E+02  0.14538364834E+03  0.12509000000E+03 0.  0.
<mgrwt>
<rscale>  2 0.41564591E+03</rscale>
<asrwt>0</asrwt>
<pdfrwt beam="1">  1       21 0.14089475E-01 0.41564591E+03</pdfrwt>
<pdfrwt beam="2">  1       21 0.66294024E-01 0.41564591E+03</pdfrwt>
<totfact> 0.85864576E+04</totfact>
</mgrwt>
</event>
<event>
 7    0  0.4752811E-002  0.4549986E+03  0.7546771E-02  0.1026242E+00
         21   -1    0    0  502  501  0.00000000000E+00  0.00000000000E+00  0.13956849837E+03  0.13956849837E+03  0.00000000000E+00 0. -1.
         21   -1    0    0  501  502 -0.00000000000E+00 -0.00000000000E+00 -0.37082825426E+03  0.37082825426E+03  0.00000000000E+00 0. -1.
      99926    2    1    2    0    0  0.71054273576E-14  0.00000000000E+00 -0.23125975589E+03  0.51039675263E+03  0.45499864880E+03 0.  0.
      99925    2    3    3    0    0 -0.54628353868E+02  0.96215236675E+02 -0.17010677548E+03  0.33255180914E+03  0.26346301805E+03 0.  0.
         25    1    4    4    0    0 -0.13381538580E+02  0.56992233082E+01 -0.74514862892E+02  0.14632675631E+03  0.12509000000E+03 0.  0.
         25    1    4    4    0    0 -0.41246815288E+02  0.90516013366E+02 -0.95591912590E+02  0.18622505283E+03  0.12509000000E+03 0.  0.
         25    1    3    3    0    0  0.54628353868E+02 -0.96215236675E+02 -0.61152980408E+02  0.17784494350E+03  0.12509000000E+03 0.  0.
<mgrwt>
<rscale>  2 0.45499865E+03</rscale>
<asrwt>0</asrwt>
<pdfrwt beam="1">  1       21 0.20524780E-01 0.45499865E+03</pdfrwt>
<pdfrwt beam="2">  1       21 0.54533566E-01 0.45499865E+03</pdfrwt>
<totfact> 0.64546949E+04</totfact>
</mgrwt>
</event>
<event>
 7    0  0.4752811E-002  0.4591942E+03  0.7546771E-02  0.1025015E+00
         21   -1    0    0  502  501  0.00000000000E+00  0.00000000000E+00  0.39206696576E+02  0.39206696576E+02  0.00000000000E+00 0. -1.
         21   -1    0    0  501  502 -0.00000000000E+00 -0.00000000000E+00 -0.13445362098E+04  0.13445362098E+04  0.00000000000E+00 0. -1.
      99926    2    1    2    0    0  0.14210854715E-13  0.00000000000E+00 -0.13053295132E+04  0.13837429063E+04  0.45919417771E+03 0.  0.
      99925    2    3    3    0    0 -0.91807649321E+02 -0.60870594764E+02 -0.94088815807E+03  0.98299500154E+03  0.26244003749E+03 0.  0.
         25    1    4    4    0    0 -0.51783492695E+01 -0.37363606104E+02 -0.42959202841E+03  0.44902079388E+03  0.12509000000E+03 0.  0.
         25    1    3    3    0    0  0.91807649321E+02  0.60870594764E+02 -0.36444135513E+03  0.40074790481E+03  0.12509000000E+03 0.  0.
         25    1    4    4    0    0 -0.86629300051E+02 -0.23506988660E+02 -0.51129612966E+03  0.53397420766E+03  0.12509000000E+03 0.  0.
<mgrwt>
<rscale>  2 0.45919418E+03</rscale>
<asrwt>0</asrwt>
<pdfrwt beam="1">  1       21 0.57656908E-02 0.45919418E+03</pdfrwt>
<pdfrwt beam="2">  1       21 0.19772591E+00 0.45919418E+03</pdfrwt>
<totfact> 0.25913437E+04</totfact>
</mgrwt>
</event>
<event>
 7    0  0.4752811E-002  0.4575893E+03  0.7546771E-02  0.1025483E+00
         21   -1    0    0  502  501  0.00000000000E+00  0.00000000000E+00  0.51592925288E+03  0.51592925288E+03  0.00000000000E+00 0.  1.
         21   -1    0    0  501  502 -0.00000000000E+00 -0.00000000000E+00 -0.10146155125E+03  0.10146155125E+03  0.00000000000E+00 0.  1.
      99926    2    1    2    0    0  0.00000000000E+00  0.00000000000E+00  0.41446770163E+03  0.61739080413E+03  0.45758925832E+03 0.  0.
      99925    2    3    3    0    0 -0.50718061943E+02 -0.10384271565E+03  0.26419212805E+03  0.39026553580E+03  0.26297162680E+03 0.  0.
         25    1    4    4    0    0 -0.32920267681E+02 -0.13474401902E+02  0.98484840448E+02  0.16313207971E+03  0.12509000000E+03 0.  0.
         25    1    3    3    0    0  0.50718061943E+02  0.10384271565E+03  0.15027557358E+03  0.22712526833E+03  0.12509000000E+03 0.  0.
         25    1    4    4    0    0 -0.17797794262E+02 -0.90368313751E+02  0.16570728761E+03  0.22713345609E+03  0.12509000000E+03 0.  0.
<mgrwt>
<rscale>  2 0.45758926E+03</rscale>
<asrwt>0</asrwt>
<pdfrwt beam="1">  1       21 0.75871948E-01 0.45758926E+03</pdfrwt>
<pdfrwt beam="2">  1       21 0.14920817E-01 0.45758926E+03</pdfrwt>
<totfact> 0.56457062E+04</totfact>
</mgrwt>
</event>
<event>
 7    0  0.4752811E-002  0.4096372E+03  0.7546771E-02  0.1040493E+00
         21   -1    0    0  502  501  0.00000000000E+00  0.00000000000E+00  0.10949180776E+04  0.10949180776E+04  0.00000000000E+00 0. -1.
         21   -1    0    0  501  502 -0.00000000000E+00 -0.00000000000E+00 -0.38313966916E+02  0.38313966916E+02  0.00000000000E+00 0. -1.
      99926    2    1    2    0    0  0.00000000000E+00  0.00000000000E+00  0.10566041107E+04  0.11332320445E+04  0.40963718093E+03 0.  0.
      99925    2    3    3    0    0  0.46260379890E+02 -0.16227121905E+02  0.80069502779E+03  0.84419863980E+03  0.26297428331E+03 0.  0.
         25    1    4    4    0    0  0.31296695493E+02  0.26790065730E+02  0.45785664001E+03  0.47642145384E+03  0.12509000000E+03 0.  0.
         25    1    4    4    0    0  0.14963684397E+02 -0.43017187635E+02  0.34283838778E+03  0.36777718597E+03  0.12509000000E+03 0.  0.
         25    1    3    3    0    0 -0.46260379890E+02  0.16227121905E+02  0.25590908287E+03  0.28903340469E+03  0.12509000000E+03 0.  0.
<mgrwt>
<rscale>  2 0.40963718E+03</rscale>
<asrwt>0</asrwt>
<pdfrwt beam="1">  1       21 0.16101734E+00 0.40963718E+03</pdfrwt>
<pdfrwt beam="2">  1       21 0.56344076E-02 0.40963718E+03</pdfrwt>
<totfact> 0.49740438E+04</totfact>
</mgrwt>
</event>
<event>
 7    0  0.4752811E-002  0.4459555E+03  0.7546771E-02  0.1028935E+00
         21   -1    0    0  502  501  0.00000000000E+00  0.00000000000E+00  0.24959496895E+03  0.24959496895E+03  0.00000000000E+00 0.  1.
         21   -1    0    0  501  502 -0.00000000000E+00 -0.00000000000E+00 -0.19919901960E+03  0.19919901960E+03  0.00000000000E+00 0.  1.
      99926    2    1    2    0    0  0.00000000000E+00  0.00000000000E+00  0.50395949357E+02  0.44879398855E+03  0.44595548259E+03 0.  0.
      99925    2    3    3    0    0 -0.77116778108E+02  0.17970392779E+02 -0.36522451381E+02  0.27711915356E+03  0.26304220827E+03 0.  0.
         25    1    3    3    0    0  0.77116778108E+02 -0.17970392779E+02  0.86918400738E+02  0.17167483499E+03  0.12509000000E+03 0.  0.
         25    1    4    4    0    0 -0.44599571654E+01  0.89962484351E+01  0.72898534015E+01  0.12570391309E+03  0.12509000000E+03 0.  0.
         25    1    4    4    0    0 -0.72656820942E+02  0.89741443444E+01 -0.43812304783E+02  0.15141524047E+03  0.12509000000E+03 0.  0.
<mgrwt>
<rscale>  2 0.44595548E+03</rscale>
<asrwt>0</asrwt>
<pdfrwt beam="1">  1       21 0.36705143E-01 0.44595548E+03</pdfrwt>
<pdfrwt beam="2">  1       21 0.29293973E-01 0.44595548E+03</pdfrwt>
<totfact> 0.74215390E+04</totfact>
</mgrwt>
</event>
<event>
 7    0  0.4752811E-002  0.4500131E+03  0.7546771E-02  0.1027718E+00
         21   -1    0    0  502  501  0.00000000000E+00  0.00000000000E+00  0.35652488151E+03  0.35652488151E+03  0.00000000000E+00 0. -1.
         21   -1    0    0  501  502 -0.00000000000E+00 -0.00000000000E+00 -0.14200393640E+03  0.14200393640E+03  0.00000000000E+00 0. -1.
      99926    2    1    2    0    0  0.71054273576E-14  0.00000000000E+00  0.21452094511E+03  0.49852881790E+03  0.45001305136E+03 0.  0.
      99925    2    3    3    0    0  0.38296145206E+02  0.90449823813E+01  0.23825647917E+02  0.26709716295E+03  0.26310611265E+03 0.  0.
         25    1    4    4    0    0 -0.82725219916E+01  0.11599380060E+02  0.41202613688E+02  0.13246940670E+03  0.12509000000E+03 0.  0.
         25    1    4    4    0    0  0.46568667198E+02 -0.25543976783E+01 -0.17376965771E+02  0.13462775624E+03  0.12509000000E+03 0.  0.
         25    1    3    3    0    0 -0.38296145206E+02 -0.90449823813E+01  0.19069529719E+03  0.23143165496E+03  0.12509000000E+03 0.  0.
<mgrwt>
<rscale>  2 0.45001305E+03</rscale>
<asrwt>0</asrwt>
<pdfrwt beam="1">  1       21 0.52430129E-01 0.45001305E+03</pdfrwt>
<pdfrwt beam="2">  1       21 0.20882932E-01 0.45001305E+03</pdfrwt>
<totfact> 0.68027431E+04</totfact>
</mgrwt>
</event>
<event>
 7    0  0.4752811E-002  0.4508282E+03  0.7546771E-02  0.1027475E+00
         21   -1    0    0  502  501  0.00000000000E+00  0.00000000000E+00  0.39763441628E+03  0.39763441628E+03  0.00000000000E+00 0. -1.
         21   -1    0    0  501  502 -0.00000000000E+00 -0.00000000000E+00 -0.12778451216E+03  0.12778451216E+03  0.00000000000E+00 0. -1.
      99926    2    1    2    0    0 -0.14210854715E-13  0.00000000000E+00  0.26984990413E+03  0.52541892844E+03  0.45082821518E+03 0.  0.
      99925    2    3    3    0    0 -0.84005656221E+02  0.40429704185E+02  0.10445636557E+03  0.29805569053E+03  0.26312459233E+03 0.  0.
         25    1    3    3    0    0  0.84005656221E+02 -0.40429704185E+02  0.16539353856E+03  0.22736323792E+03  0.12509000000E+03 0.  0.
         25    1    4    4    0    0 -0.48538382386E+01 -0.15564040041E+01  0.43088200788E+02  0.13240122086E+03  0.12509000000E+03 0.  0.
         25    1    4    4    0    0 -0.79151817982E+02  0.41986108189E+02  0.61368164777E+02  0.16565446966E+03  0.12509000000E+03 0.  0.
<mgrwt>
<rscale>  2 0.45082822E+03</rscale>
<asrwt>0</asrwt>
<pdfrwt beam="1">  1       21 0.58475649E-01 0.45082822E+03</pdfrwt>
<pdfrwt beam="2">  1       21 0.18791840E-01 0.45082822E+03</pdfrwt>
<totfact> 0.65662298E+04</totfact>
</mgrwt>
</event>
<event>
 7    0  0.4752811E-002  0.4598726E+03  0.7546771E-02  0.1024818E+00
         21   -1    0    0  502  501  0.00000000000E+00  0.00000000000E+00  0.16109290495E+03  0.16109290495E+03  0.00000000000E+00 0. -1.
         21   -1    0    0  501  502 -0.00000000000E+00 -0.00000000000E+00 -0.32820006973E+03  0.32820006973E+03  0.00000000000E+00 0. -1.
      99926    2    1    2    0    0  0.00000000000E+00 -0.14210854715E-13 -0.16710716478E+03  0.48929297467E+03  0.45987260251E+03 0.  0.
      99925    2    3    3    0    0  0.78786904808E+02  0.82100505360E+02 -0.73803490643E+02  0.29615842816E+03  0.26327740121E+03 0.  0.
         25    1    4    4    0    0  0.51877281660E+02  0.76410152449E+02 -0.62503685049E+02  0.16758276312E+03  0.12509000000E+03 0.  0.
         25    1    3    3    0    0 -0.78786904808E+02 -0.82100505360E+02 -0.93303674136E+02  0.19313454651E+03  0.12509000000E+03 0.  0.
         25    1    4    4    0    0  0.26909623149E+02  0.56903529114E+01 -0.11299805594E+02  0.12857566504E+03  0.12509000000E+03 0.  0.
<mgrwt>
<rscale>  2 0.45987260E+03</rscale>
<asrwt>0</asrwt>
<pdfrwt beam="1">  1       21 0.23690133E-01 0.45987260E+03</pdfrwt>
<pdfrwt beam="2">  1       21 0.48264716E-01 0.45987260E+03</pdfrwt>
<totfact> 0.63536166E+04</totfact>
</mgrwt>
</event>
<event>
 7    0  0.4752811E-002  0.4574150E+03  0.7546771E-02  0.1025534E+00
         21   -1    0    0  502  501  0.00000000000E+00  0.00000000000E+00  0.91667375787E+02  0.91667375787E+02  0.00000000000E+00 0.  1.
         21   -1    0    0  501  502 -0.00000000000E+00 -0.00000000000E+00 -0.57061877127E+03  0.57061877127E+03  0.00000000000E+00 0.  1.
      99926    2    1    2    0    0  0.71054273576E-14  0.28421709430E-13 -0.47895139548E+03  0.66228614706E+03  0.45741502090E+03 0.  0.
      99925    2    3    3    0    0  0.60315379865E+02  0.92122485423E+02 -0.35071220649E+03  0.45200705855E+03  0.26303389864E+03 0.  0.
         25    1    4    4    0    0  0.23114693546E+02  0.87808473059E+02 -0.18878472209E+03  0.24399138590E+03  0.12509000000E+03 0.  0.
         25    1    3    3    0    0 -0.60315379865E+02 -0.92122485423E+02 -0.12823918900E+03  0.21027908851E+03  0.12509000000E+03 0.  0.
         25    1    4    4    0    0  0.37200686319E+02  0.43140123639E+01 -0.16192748440E+03  0.20801567265E+03  0.12509000000E+03 0.  0.
<mgrwt>
<rscale>  2 0.45741502E+03</rscale>
<asrwt>0</asrwt>
<pdfrwt beam="1">  1       21 0.13480496E-01 0.45741502E+03</pdfrwt>
<pdfrwt beam="2">  1       21 0.83914526E-01 0.45741502E+03</pdfrwt>
<totfact> 0.53963530E+04</totfact>
</mgrwt>
</event>
<event>
 7    0  0.4752811E-002  0.4495160E+03  0.7546771E-02  0.1027866E+00
         21   -1    0    0  502  501  0.00000000000E+00  0.00000000000E+00  0.52009887428E+03  0.52009887428E+03  0.00000000000E+00 0. -1.
         21   -1    0    0  501  502 -0.00000000000E+00 -0.00000000000E+00 -0.97127988414E+02  0.97127988414E+02  0.00000000000E+00 0. -1.
      99926    2    1    2    0    0  0.55511151231E-15  0.00000000000E+00  0.42297088587E+03  0.61722686270E+03  0.44951599498E+03 0.  0.
      99925    2    3    3    0    0  0.97562262414E+00  0.10423534847E+03  0.30484129264E+03  0.41606009455E+03  0.26327139774E+03 0.  0.
         25    1    3    3    0    0 -0.97562262414E+00 -0.10423534847E+03  0.11812959323E+03  0.20116676815E+03  0.12509000000E+03 0.  0.
         25    1    4    4    0    0  0.20152012061E+02  0.45279828491E+02  0.20179604674E+03  0.24253972672E+03  0.12509000000E+03 0.  0.
         25    1    4    4    0    0 -0.19176389437E+02  0.58955519983E+02  0.10304524590E+03  0.17352036783E+03  0.12509000000E+03 0.  0.
<mgrwt>
<rscale>  2 0.44951599E+03</rscale>
<asrwt>0</asrwt>
<pdfrwt beam="1">  1       21 0.76485127E-01 0.44951599E+03</pdfrwt>
<pdfrwt beam="2">  1       21 0.14283528E-01 0.44951599E+03</pdfrwt>
<totfact> 0.60195052E+04</totfact>
</mgrwt>
</event>
<event>
 7    0  0.4752811E-002  0.4520719E+03  0.7546771E-02  0.1027106E+00
         21   -1    0    0  502  501  0.00000000000E+00  0.00000000000E+00  0.11221310859E+03  0.11221310859E+03  0.00000000000E+00 0. -1.
         21   -1    0    0  501  502 -0.00000000000E+00 -0.00000000000E+00 -0.45531451915E+03  0.45531451915E+03  0.00000000000E+00 0. -1.
      99926    2    1    2    0    0 -0.35527136788E-14  0.14210854715E-13 -0.34310141056E+03  0.56752762774E+03  0.45207193046E+03 0.  0.
      99925    2    3    3    0    0  0.21218420478E+02 -0.98247714755E+02 -0.27613515477E+03  0.39364599462E+03  0.26192310046E+03 0.  0.
         25    1    4    4    0    0  0.33117571632E+02 -0.23134115277E+02 -0.15799526160E+03  0.20552851780E+03  0.12509000000E+03 0.  0.
         25    1    3    3    0    0 -0.21218420478E+02  0.98247714755E+02 -0.66966255791E+02  0.17388163312E+03  0.12509000000E+03 0.  0.
         25    1    4    4    0    0 -0.11899151154E+02 -0.75113599477E+02 -0.11813989317E+03  0.18811747681E+03  0.12509000000E+03 0.  0.
<mgrwt>
<rscale>  2 0.45207193E+03</rscale>
<asrwt>0</asrwt>
<pdfrwt beam="1">  1       21 0.16501928E-01 0.45207193E+03</pdfrwt>
<pdfrwt beam="2">  1       21 0.66958017E-01 0.45207193E+03</pdfrwt>
<totfact> 0.62149598E+04</totfact>
</mgrwt>
</event>
<event>
 7    0  0.4752811E-002  0.4607021E+03  0.7546771E-02  0.1024578E+00
         21   -1    0    0  502  501  0.00000000000E+00  0.00000000000E+00  0.56719687923E+03  0.56719687923E+03  0.00000000000E+00 0.  1.
         21   -1    0    0  501  502 -0.00000000000E+00 -0.00000000000E+00 -0.93550582593E+02  0.93550582593E+02  0.00000000000E+00 0.  1.
      99926    2    1    2    0    0  0.26645352591E-14  0.14210854715E-13  0.47364629664E+03  0.66074746183E+03  0.46070206640E+03 0.  0.
      99925    2    3    3    0    0 -0.36038311363E+01  0.10679068814E+03  0.22329889063E+03  0.36118349458E+03  0.26300928411E+03 0.  0.
         25    1    4    4    0    0  0.38325915996E+02  0.48812184918E+02  0.11554005986E+03  0.18124160330E+03  0.12509000000E+03 0.  0.
         25    1    3    3    0    0  0.36038311363E+01 -0.10679068814E+03  0.25034740602E+03  0.29956396725E+03  0.12509000000E+03 0.  0.
         25    1    4    4    0    0 -0.41929747132E+02  0.57978503226E+02  0.10775883076E+03  0.17994189128E+03  0.12509000000E+03 0.  0.
<mgrwt>
<rscale>  2 0.46070207E+03</rscale>
<asrwt>0</asrwt>
<pdfrwt beam="1">  1       21 0.83411304E-01 0.46070207E+03</pdfrwt>
<pdfrwt beam="2">  1       21 0.13757439E-01 0.46070207E+03</pdfrwt>
<totfact> 0.52677149E+04</totfact>
</mgrwt>
</event>
<event>
 7    0  0.4752811E-002  0.4719455E+03  0.7546771E-02  0.1021373E+00
         21   -1    0    0  502  501  0.00000000000E+00  0.00000000000E+00  0.23643843781E+03  0.23643843781E+03  0.00000000000E+00 0. -1.
         21   -1    0    0  501  502 -0.00000000000E+00 -0.00000000000E+00 -0.23550794435E+03  0.23550794435E+03  0.00000000000E+00 0. -1.
      99926    2    1    2    0    0  0.00000000000E+00  0.35527136788E-14  0.93049346500E+00  0.47194638216E+03  0.47194546488E+03 0.  0.
      99925    2    3    3    0    0  0.10287597695E+03 -0.23488873481E+02 -0.72635627609E+02  0.29251763285E+03  0.26297421417E+03 0.  0.
         25    1    4    4    0    0  0.53272193210E+02  0.27216592182E+02 -0.24045250980E+02  0.14072793487E+03  0.12509000000E+03 0.  0.
         25    1    3    3    0    0 -0.10287597695E+03  0.23488873481E+02  0.73566121074E+02  0.17942874932E+03  0.12509000000E+03 0.  0.
         25    1    4    4    0    0  0.49603783744E+02 -0.50705465663E+02 -0.48590376628E+02  0.15178969797E+03  0.12509000000E+03 0.  0.
<mgrwt>
<rscale>  2 0.47194546E+03</rscale>
<asrwt>0</asrwt>
<pdfrwt beam="1">  1       21 0.34770358E-01 0.47194546E+03</pdfrwt>
<pdfrwt beam="2">  1       21 0.34633521E-01 0.47194546E+03</pdfrwt>
<totfact> 0.58940288E+04</totfact>
</mgrwt>
</event>
<event>
 7    0  0.4752811E-002  0.4495420E+03  0.7546771E-02  0.1027859E+00
         21   -1    0    0  502  501  0.00000000000E+00  0.00000000000E+00  0.41399560918E+02  0.41399560918E+02  0.00000000000E+00 0.  1.
         21   -1    0    0  501  502 -0.00000000000E+00 -0.00000000000E+00 -0.12203514155E+04  0.12203514155E+04  0.00000000000E+00 0.  1.
      99926    2    1    2    0    0 -0.35527136788E-14  0.00000000000E+00 -0.11789518546E+04  0.12617509764E+04  0.44954204594E+03 0.  0.
      99925    2    3    3    0    0  0.29026265585E+02 -0.83876450319E+02 -0.58022501355E+03  0.64369020167E+03  0.26419353959E+03 0.  0.
         25    1    3    3    0    0 -0.29026265585E+02  0.83876450319E+02 -0.59872684102E+03  0.61806077474E+03  0.12509000000E+03 0.  0.
         25    1    4    4    0    0  0.48873895634E+02 -0.33930241715E+02 -0.23795778515E+03  0.27533858174E+03  0.12509000000E+03 0.  0.
         25    1    4    4    0    0 -0.19847630049E+02 -0.49946208604E+02 -0.34226722839E+03  0.36835161993E+03  0.12509000000E+03 0.  0.
<mgrwt>
<rscale>  2 0.44954205E+03</rscale>
<asrwt>0</asrwt>
<pdfrwt beam="1">  1       21 0.60881715E-02 0.44954205E+03</pdfrwt>
<pdfrwt beam="2">  1       21 0.17946342E+00 0.44954205E+03</pdfrwt>
<totfact> 0.31565659E+04</totfact>
</mgrwt>
</event>
<event>
 7    0  0.4752811E-002  0.4604573E+03  0.7546771E-02  0.1024649E+00
         21   -1    0    0  502  501  0.00000000000E+00  0.00000000000E+00  0.65949812186E+02  0.65949812186E+02  0.00000000000E+00 0.  1.
         21   -1    0    0  501  502 -0.00000000000E+00 -0.00000000000E+00 -0.80372062044E+03  0.80372062044E+03  0.00000000000E+00 0.  1.
      99926    2    1    2    0    0  0.14210854715E-13  0.35527136788E-14 -0.73777080826E+03  0.86967043263E+03  0.46045726824E+03 0.  0.
      99925    2    3    3    0    0 -0.10358996861E+03 -0.12293744573E+02 -0.56703960516E+03  0.63370715252E+03  0.26299966459E+03 0.  0.
         25    1    4    4    0    0 -0.51938104924E+02  0.19564746872E+02 -0.21110075055E+03  0.25157778330E+03  0.12509000000E+03 0.  0.
         25    1    4    4    0    0 -0.51651863687E+02 -0.31858491445E+02 -0.35593885461E+03  0.38212936922E+03  0.12509000000E+03 0.  0.
         25    1    3    3    0    0  0.10358996861E+03  0.12293744573E+02 -0.17073120310E+03  0.23596328012E+03  0.12509000000E+03 0.  0.
<mgrwt>
<rscale>  2 0.46045727E+03</rscale>
<asrwt>0</asrwt>
<pdfrwt beam="1">  1       21 0.96985028E-02 0.46045727E+03</pdfrwt>
<pdfrwt beam="2">  1       21 0.11819420E+00 0.46045727E+03</pdfrwt>
<totfact> 0.42714024E+04</totfact>
</mgrwt>
</event>
<event>
 7    0  0.4752811E-002  0.4530497E+03  0.7546771E-02  0.1026816E+00
         21   -1    0    0  502  501  0.00000000000E+00  0.00000000000E+00  0.68224115006E+02  0.68224115006E+02  0.00000000000E+00 0. -1.
         21   -1    0    0  501  502 -0.00000000000E+00 -0.00000000000E+00 -0.75213156095E+03  0.75213156095E+03  0.00000000000E+00 0. -1.
      99926    2    1    2    0    0  0.00000000000E+00  0.35527136788E-14 -0.68390744595E+03  0.82035567596E+03  0.45304971080E+03 0.  0.
      99925    2    3    3    0    0 -0.71468205593E+02  0.11261812869E+02 -0.27776820439E+03  0.38927433274E+03  0.26295398442E+03 0.  0.
         25    1    3    3    0    0  0.71468205593E+02 -0.11261812869E+02 -0.40613924156E+03  0.43108134322E+03  0.12509000000E+03 0.  0.
         25    1    4    4    0    0 -0.17925032706E+02  0.41899454485E+02 -0.14139500142E+03  0.19420845916E+03  0.12509000000E+03 0.  0.
         25    1    4    4    0    0 -0.53543172886E+02 -0.30637641615E+02 -0.13637320297E+03  0.19506587358E+03  0.12509000000E+03 0.  0.
<mgrwt>
<rscale>  2 0.45304971E+03</rscale>
<asrwt>0</asrwt>
<pdfrwt beam="1">  1       21 0.10032958E-01 0.45304971E+03</pdfrwt>
<pdfrwt beam="2">  1       21 0.11060758E+00 0.45304971E+03</pdfrwt>
<totfact> 0.47518976E+04</totfact>
</mgrwt>
</event>
<event>
 7    0  0.4752811E-002  0.4518703E+03  0.7546771E-02  0.1027166E+00
         21   -1    0    0  502  501  0.00000000000E+00  0.00000000000E+00  0.28342761376E+03  0.28342761376E+03  0.00000000000E+00 0.  1.
         21   -1    0    0  501  502 -0.00000000000E+00 -0.00000000000E+00 -0.18010484394E+03  0.18010484394E+03  0.00000000000E+00 0.  1.
      99926    2    1    2    0    0 -0.14210854715E-13  0.00000000000E+00  0.10332276982E+03  0.46353245769E+03  0.45187027405E+03 0.  0.
      99925    2    3    3    0    0 -0.72676142702E+02 -0.82868041435E+02  0.64436039316E+02  0.29233485281E+03  0.26298047265E+03 0.  0.
         25    1    3    3    0    0  0.72676142702E+02  0.82868041435E+02  0.38886730505E+02  0.17119760489E+03  0.12509000000E+03 0.  0.
         25    1    4    4    0    0 -0.66246878693E+02 -0.72048055564E+02  0.45309678102E+02  0.16516672267E+03  0.12509000000E+03 0.  0.
         25    1    4    4    0    0 -0.64292640090E+01 -0.10819985871E+02  0.19126361215E+02  0.12716813014E+03  0.12509000000E+03 0.  0.
<mgrwt>
<rscale>  2 0.45187027E+03</rscale>
<asrwt>0</asrwt>
<pdfrwt beam="1">  1       21 0.41680532E-01 0.45187027E+03</pdfrwt>
<pdfrwt beam="2">  1       21 0.26486006E-01 0.45187027E+03</pdfrwt>
<totfact> 0.69632768E+04</totfact>
</mgrwt>
</event>
<event>
 7    0  0.4752811E-002  0.4574931E+03  0.7546771E-02  0.1025511E+00
         21   -1    0    0  502  501  0.00000000000E+00  0.00000000000E+00  0.53032052682E+03  0.53032052682E+03  0.00000000000E+00 0. -1.
         21   -1    0    0  501  502 -0.00000000000E+00 -0.00000000000E+00 -0.98666729328E+02  0.98666729328E+02  0.00000000000E+00 0. -1.
      99926    2    1    2    0    0 -0.14210854715E-13 -0.71054273576E-14  0.43165379750E+03  0.62898725615E+03  0.45749313384E+03 0.  0.
      99925    2    3    3    0    0 -0.58656315400E+02 -0.54573269217E+02  0.38540097474E+03  0.47340564810E+03  0.26298325285E+03 0.  0.
         25    1    4    4    0    0  0.74558620724E+01 -0.44456399975E+02  0.17994452851E+03  0.22373981054E+03  0.12509000000E+03 0.  0.
         25    1    3    3    0    0  0.58656315400E+02  0.54573269217E+02  0.46252822761E+02  0.15558160805E+03  0.12509000000E+03 0.  0.
         25    1    4    4    0    0 -0.66112177472E+02 -0.10116869242E+02  0.20545644622E+03  0.24966583757E+03  0.12509000000E+03 0.  0.
<mgrwt>
<rscale>  2 0.45749313E+03</rscale>
<asrwt>0</asrwt>
<pdfrwt beam="1">  1       21 0.77988311E-01 0.45749313E+03</pdfrwt>
<pdfrwt beam="2">  1       21 0.14509813E-01 0.45749313E+03</pdfrwt>
<totfact> 0.55821758E+04</totfact>
</mgrwt>
</event>
<event>
 7    0  0.4752811E-002  0.4522451E+03  0.7546771E-02  0.1027055E+00
         21   -1    0    0  502  501  0.00000000000E+00  0.00000000000E+00  0.21686305622E+04  0.21686305622E+04  0.00000000000E+00 0. -1.
         21   -1    0    0  501  502 -0.00000000000E+00 -0.00000000000E+00 -0.23577743298E+02  0.23577743298E+02  0.00000000000E+00 0. -1.
      99926    2    1    2    0    0  0.00000000000E+00  0.00000000000E+00  0.21450528189E+04  0.21922083055E+04  0.45224513134E+03 0.  0.
      99925    2    3    3    0    0  0.77371748596E+02 -0.78676241877E+02  0.13870578548E+04  0.14160767366E+04  0.26299713477E+03 0.  0.
         25    1    4    4    0    0  0.28974650965E+02 -0.10307930569E+02  0.49954348623E+03  0.51588466401E+03  0.12509000000E+03 0.  0.
         25    1    3    3    0    0 -0.77371748596E+02  0.78676241877E+02  0.75799496409E+03  0.77613156887E+03  0.12509000000E+03 0.  0.
         25    1    4    4    0    0  0.48397097631E+02 -0.68368311308E+02  0.88751436860E+03  0.90019207263E+03  0.12509000000E+03 0.  0.
<mgrwt>
<rscale>  2 0.45224513E+03</rscale>
<asrwt>0</asrwt>
<pdfrwt beam="1">  1       21 0.31891612E+00 0.45224513E+03</pdfrwt>
<pdfrwt beam="2">  1       21 0.34673167E-02 0.45224513E+03</pdfrwt>
<totfact> 0.11052646E+04</totfact>
</mgrwt>
</event>
<event>
 7    0  0.4752811E-002  0.4590825E+03  0.7546771E-02  0.1025048E+00
         21   -1    0    0  502  501  0.00000000000E+00  0.00000000000E+00  0.18578105413E+04  0.18578105413E+04  0.00000000000E+00 0.  1.
         21   -1    0    0  501  502 -0.00000000000E+00 -0.00000000000E+00 -0.28360898796E+02  0.28360898796E+02  0.00000000000E+00 0.  1.
      99926    2    1    2    0    0  0.71054273576E-14  0.17763568394E-14  0.18294496425E+04  0.18861714400E+04  0.45908246206E+03 0.  0.
      99925    2    3    3    0    0 -0.34853308295E+02 -0.95333785434E+01  0.69008952120E+03  0.73939568498E+03  0.26301481572E+03 0.  0.
         25    1    4    4    0    0 -0.31532295053E+02 -0.32621120278E+02  0.27983317061E+03  0.30985889464E+03  0.12509000000E+03 0.  0.
         25    1    4    4    0    0 -0.33210132422E+01  0.23087741735E+02  0.41025635059E+03  0.42953679033E+03  0.12509000000E+03 0.  0.
         25    1    3    3    0    0  0.34853308295E+02  0.95333785434E+01  0.11393601213E+04  0.11467757551E+04  0.12509000000E+03 0.  0.
<mgrwt>
<rscale>  2 0.45908246E+03</rscale>
<asrwt>0</asrwt>
<pdfrwt beam="1">  1       21 0.27320735E+00 0.45908246E+03</pdfrwt>
<pdfrwt beam="2">  1       21 0.41707217E-02 0.45908246E+03</pdfrwt>
<totfact> 0.15172165E+04</totfact>
</mgrwt>
</event>
<event>
 7    0  0.4752811E-002  0.4540763E+03  0.7546771E-02  0.1026513E+00
         21   -1    0    0  502  501  0.00000000000E+00  0.00000000000E+00  0.98028994707E+02  0.98028994707E+02  0.00000000000E+00 0.  1.
         21   -1    0    0  501  502 -0.00000000000E+00 -0.00000000000E+00 -0.52582731900E+03  0.52582731900E+03  0.00000000000E+00 0.  1.
      99926    2    1    2    0    0  0.00000000000E+00  0.99920072216E-15 -0.42779832430E+03  0.62385631371E+03  0.45407630844E+03 0.  0.
      99925    2    3    3    0    0  0.97206103988E+02  0.46104961767E+00 -0.34677795025E+03  0.44592079637E+03  0.26294708715E+03 0.  0.
         25    1    4    4    0    0  0.21123976074E+02 -0.21428882055E+02 -0.12581256578E+03  0.17994924051E+03  0.12509000000E+03 0.  0.
         25    1    3    3    0    0 -0.97206103988E+02 -0.46104961767E+00 -0.81020374050E+02  0.17793551734E+03  0.12509000000E+03 0.  0.
         25    1    4    4    0    0  0.76082127914E+02  0.21889931672E+02 -0.22096538447E+03  0.26597155587E+03  0.12509000000E+03 0.  0.
<mgrwt>
<rscale>  2 0.45407631E+03</rscale>
<asrwt>0</asrwt>
<pdfrwt beam="1">  1       21 0.14416029E-01 0.45407631E+03</pdfrwt>
<pdfrwt beam="2">  1       21 0.77327546E-01 0.45407631E+03</pdfrwt>
<totfact> 0.57652676E+04</totfact>
</mgrwt>
</event>
<event>
 7    0  0.4752811E-002  0.4498958E+03  0.7546771E-02  0.1027753E+00
         21   -1    0    0  502  501  0.00000000000E+00  0.00000000000E+00  0.21364499256E+04  0.21364499256E+04  0.00000000000E+00 0.  1.
         21   -1    0    0  501  502 -0.00000000000E+00 -0.00000000000E+00 -0.23684876765E+02  0.23684876765E+02  0.00000000000E+00 0.  1.
      99926    2    1    2    0    0  0.71054273576E-14  0.00000000000E+00  0.21127650488E+04  0.21601348023E+04  0.44989577994E+03 0.  0.
      99925    2    3    3    0    0 -0.42029542942E+02  0.97802930583E+02  0.12393768339E+04  0.12714355407E+04  0.26298574462E+03 0.  0.
         25    1    3    3    0    0  0.42029542942E+02 -0.97802930583E+02  0.87338821487E+03  0.88869926166E+03  0.12509000000E+03 0.  0.
         25    1    4    4    0    0 -0.42808123588E+02  0.66620881502E+02  0.79795411133E+03  0.81157202341E+03  0.12509000000E+03 0.  0.
         25    1    4    4    0    0  0.77858064595E+00  0.31182049082E+02  0.44142272260E+03  0.45986351725E+03  0.12509000000E+03 0.  0.
<mgrwt>
<rscale>  2 0.44989578E+03</rscale>
<asrwt>0</asrwt>
<pdfrwt beam="1">  1       21 0.31418368E+00 0.44989578E+03</pdfrwt>
<pdfrwt beam="2">  1       21 0.34830716E-02 0.44989578E+03</pdfrwt>
<totfact> 0.11725047E+04</totfact>
</mgrwt>
</event>
<event>
 7    0  0.4752811E-002  0.4557064E+03  0.7546771E-02  0.1026034E+00
         21   -1    0    0  502  501  0.00000000000E+00  0.00000000000E+00  0.56547033118E+03  0.56547033118E+03  0.00000000000E+00 0.  1.
         21   -1    0    0  501  502 -0.00000000000E+00 -0.00000000000E+00 -0.91812219205E+02  0.91812219205E+02  0.00000000000E+00 0.  1.
      99926    2    1    2    0    0  0.00000000000E+00  0.00000000000E+00  0.47365811197E+03  0.65728255038E+03  0.45570642304E+03 0.  0.
      99925    2    3    3    0    0  0.90376211905E+02 -0.53858596222E+02  0.23506388803E+03  0.36807100175E+03  0.26296886281E+03 0.  0.
         25    1    4    4    0    0  0.28780494417E+02 -0.41846739410E+02  0.71382585307E+02  0.15271688853E+03  0.12509000000E+03 0.  0.
         25    1    4    4    0    0  0.61595717488E+02 -0.12011856812E+02  0.16368130272E+03  0.21535411321E+03  0.12509000000E+03 0.  0.
         25    1    3    3    0    0 -0.90376211905E+02  0.53858596222E+02  0.23859422395E+03  0.28921154864E+03  0.12509000000E+03 0.  0.
<mgrwt>
<rscale>  2 0.45570642E+03</rscale>
<asrwt>0</asrwt>
<pdfrwt beam="1">  1       21 0.83157400E-01 0.45570642E+03</pdfrwt>
<pdfrwt beam="2">  1       21 0.13501797E-01 0.45570642E+03</pdfrwt>
<totfact> 0.54976847E+04</totfact>
</mgrwt>
</event>
<event>
 7    0  0.4752811E-002  0.4540490E+03  0.7546771E-02  0.1026521E+00
         21   -1    0    0  502  501  0.00000000000E+00  0.00000000000E+00  0.43739688548E+02  0.43739688548E+02  0.00000000000E+00 0.  1.
         21   -1    0    0  501  502 -0.00000000000E+00 -0.00000000000E+00 -0.11783377138E+04  0.11783377138E+04  0.00000000000E+00 0.  1.
      99926    2    1    2    0    0  0.00000000000E+00  0.00000000000E+00 -0.11345980252E+04  0.12220774023E+04  0.45404900442E+03 0.  0.
      99925    2    3    3    0    0 -0.93219998529E+02  0.54008956704E+02 -0.79948703971E+03  0.84850837758E+03  0.26302092053E+03 0.  0.
         25    1    4    4    0    0 -0.46090898183E+02  0.51615055610E+02 -0.50969715013E+03  0.52936488154E+03  0.12509000000E+03 0.  0.
         25    1    3    3    0    0  0.93219998529E+02 -0.54008956704E+02 -0.33511098551E+03  0.37356902473E+03  0.12509000000E+03 0.  0.
         25    1    4    4    0    0 -0.47129100346E+02  0.23939010937E+01 -0.28978988958E+03  0.31914349604E+03  0.12509000000E+03 0.  0.
<mgrwt>
<rscale>  2 0.45404900E+03</rscale>
<asrwt>0</asrwt>
<pdfrwt beam="1">  1       21 0.64323073E-02 0.45404900E+03</pdfrwt>
<pdfrwt beam="2">  1       21 0.17328495E+00 0.45404900E+03</pdfrwt>
<totfact> 0.31698038E+04</totfact>
</mgrwt>
</event>
<event>
 7    0  0.4752811E-002  0.4243816E+03  0.7546771E-02  0.1035650E+00
         21   -1    0    0  502  501  0.00000000000E+00  0.00000000000E+00  0.25642489545E+03  0.25642489545E+03  0.00000000000E+00 0.  1.
         21   -1    0    0  501  502 -0.00000000000E+00 -0.00000000000E+00 -0.17558719190E+03  0.17558719190E+03  0.00000000000E+00 0.  1.
      99926    2    1    2    0    0  0.35527136788E-14  0.00000000000E+00  0.80837703550E+02  0.43201208735E+03  0.42438156098E+03 0.  0.
      99925    2    3    3    0    0  0.27274264970E+02 -0.55262867124E+02  0.10627384900E+03  0.29026451027E+03  0.26298571240E+03 0.  0.
         25    1    4    4    0    0  0.41426955789E+02 -0.57254484718E+02  0.65723868886E+02  0.15799178373E+03  0.12509000000E+03 0.  0.
         25    1    3    3    0    0 -0.27274264970E+02  0.55262867124E+02 -0.25436145450E+02  0.14174757708E+03  0.12509000000E+03 0.  0.
         25    1    4    4    0    0 -0.14152690819E+02  0.19916175938E+01  0.40549980114E+02  0.13227272654E+03  0.12509000000E+03 0.  0.
<mgrwt>
<rscale>  2 0.42438156E+03</rscale>
<asrwt>0</asrwt>
<pdfrwt beam="1">  1       21 0.37709544E-01 0.42438156E+03</pdfrwt>
<pdfrwt beam="2">  1       21 0.25821646E-01 0.42438156E+03</pdfrwt>
<totfact> 0.90400178E+04</totfact>
</mgrwt>
</event>
<event>
 7    0  0.4752811E-002  0.4542975E+03  0.7546771E-02  0.1026448E+00
         21   -1    0    0  502  501  0.00000000000E+00  0.00000000000E+00  0.94790418966E+02  0.94790418966E+02  0.00000000000E+00 0. -1.
         21   -1    0    0  501  502 -0.00000000000E+00 -0.00000000000E+00 -0.54432244679E+03  0.54432244679E+03  0.00000000000E+00 0. -1.
      99926    2    1    2    0    0  0.14210854715E-13  0.00000000000E+00 -0.44953202783E+03  0.63911286576E+03  0.45429749189E+03 0.  0.
      99925    2    3    3    0    0 -0.10266159178E+03  0.43912189728E+02 -0.26342728821E+03  0.38861303534E+03  0.26297998446E+03 0.  0.
         25    1    3    3    0    0  0.10266159178E+03 -0.43912189728E+02 -0.18610473962E+03  0.25049983042E+03  0.12509000000E+03 0.  0.
         25    1    4    4    0    0 -0.89395573677E+02  0.43954440773E+02 -0.14813948056E+03  0.21798251136E+03  0.12509000000E+03 0.  0.
         25    1    4    4    0    0 -0.13266018100E+02 -0.42251044928E-01 -0.11528780764E+03  0.17063052398E+03  0.12509000000E+03 0.  0.
<mgrwt>
<rscale>  2 0.45429749E+03</rscale>
<asrwt>0</asrwt>
<pdfrwt beam="1">  1       21 0.13939768E-01 0.45429749E+03</pdfrwt>
<pdfrwt beam="2">  1       21 0.80047417E-01 0.45429749E+03</pdfrwt>
<totfact> 0.56646489E+04</totfact>
</mgrwt>
</event>
<event>
 7    0  0.4752811E-002  0.4474461E+03  0.7546771E-02  0.1028486E+00
         21   -1    0    0  502  501  0.00000000000E+00  0.00000000000E+00  0.23079294171E+02  0.23079294171E+02  0.00000000000E+00 0.  1.
         21   -1    0    0  501  502 -0.00000000000E+00 -0.00000000000E+00 -0.21686970788E+04  0.21686970788E+04  0.00000000000E+00 0.  1.
      99926    2    1    2    0    0  0.35527136788E-14  0.00000000000E+00 -0.21456177847E+04  0.21917763730E+04  0.44744607653E+03 0.  0.
      99925    2    3    3    0    0  0.18155224983E+02  0.14574527859E+02 -0.18657808841E+04  0.18843707321E+04  0.26300707099E+03 0.  0.
         25    1    3    3    0    0 -0.18155224983E+02 -0.14574527859E+02 -0.27983690058E+03  0.30740564095E+03  0.12509000000E+03 0.  0.
         25    1    4    4    0    0  0.48041528165E+02  0.66917311833E+01 -0.10342459199E+04  0.10429117406E+04  0.12509000000E+03 0.  0.
         25    1    4    4    0    0 -0.29886303182E+02  0.78827966756E+01 -0.83153496418E+03  0.84145899149E+03  0.12509000000E+03 0.  0.
<mgrwt>
<rscale>  2 0.44744608E+03</rscale>
<asrwt>0</asrwt>
<pdfrwt beam="1">  1       21 0.33940134E-02 0.44744608E+03</pdfrwt>
<pdfrwt beam="2">  1       21 0.31892608E+00 0.44744608E+03</pdfrwt>
<totfact> 0.11483073E+04</totfact>
</mgrwt>
</event>
<event>
 7    0  0.4752811E-002  0.4495862E+03  0.7546771E-02  0.1027846E+00
         21   -1    0    0  502  501  0.00000000000E+00  0.00000000000E+00  0.32988457678E+03  0.32988457678E+03  0.00000000000E+00 0. -1.
         21   -1    0    0  501  502 -0.00000000000E+00 -0.00000000000E+00 -0.15318068565E+03  0.15318068565E+03  0.00000000000E+00 0. -1.
      99926    2    1    2    0    0 -0.14210854715E-13  0.00000000000E+00  0.17670389113E+03  0.48306526243E+03  0.44958623491E+03 0.  0.
      99925    2    3    3    0    0  0.84592086052E+02 -0.66134466514E+02  0.12443985373E+03  0.31012415572E+03  0.26298693139E+03 0.  0.
         25    1    3    3    0    0 -0.84592086052E+02  0.66134466514E+02  0.52264037400E+02  0.17294110671E+03  0.12509000000E+03 0.  0.
         25    1    4    4    0    0  0.52940587577E+02  0.33829610621E+01  0.76425208367E+02  0.15589249761E+03  0.12509000000E+03 0.  0.
         25    1    4    4    0    0  0.31651498475E+02 -0.69517427576E+02  0.48014645358E+02  0.15423165810E+03  0.12509000000E+03 0.  0.
<mgrwt>
<rscale>  2 0.44958623E+03</rscale>
<asrwt>0</asrwt>
<pdfrwt beam="1">  1       21 0.48512438E-01 0.44958623E+03</pdfrwt>
<pdfrwt beam="2">  1       21 0.22526571E-01 0.44958623E+03</pdfrwt>
<totfact> 0.69413190E+04</totfact>
</mgrwt>
</event>
<event>
 7    0  0.4752811E-002  0.4467749E+03  0.7546771E-02  0.1028688E+00
         21   -1    0    0  502  501  0.00000000000E+00  0.00000000000E+00  0.35645170211E+02  0.35645170211E+02  0.00000000000E+00 0.  1.
         21   -1    0    0  501  502 -0.00000000000E+00 -0.00000000000E+00 -0.13999639219E+04  0.13999639219E+04  0.00000000000E+00 0.  1.
      99926    2    1    2    0    0  0.00000000000E+00 -0.71054273576E-14 -0.13643187517E+04  0.14356090921E+04  0.44677489762E+03 0.  0.
      99925    2    3    3    0    0  0.34914196457E+02  0.58228168465E+02 -0.11234481968E+04  0.11558312284E+04  0.26305979724E+03 0.  0.
         25    1    4    4    0    0  0.50741157240E+02  0.52469658227E+02 -0.56077953796E+03  0.57917953034E+03  0.12509000000E+03 0.  0.
         25    1    4    4    0    0 -0.15826960783E+02  0.57585102387E+01 -0.56266865880E+03  0.57665169802E+03  0.12509000000E+03 0.  0.
         25    1    3    3    0    0 -0.34914196457E+02 -0.58228168465E+02 -0.24087055496E+03  0.27977786379E+03  0.12509000000E+03 0.  0.
<mgrwt>
<rscale>  2 0.44677490E+03</rscale>
<asrwt>0</asrwt>
<pdfrwt beam="1">  1       21 0.52419376E-02 0.44677490E+03</pdfrwt>
<pdfrwt beam="2">  1       21 0.20587702E+00 0.44677490E+03</pdfrwt>
<totfact> 0.27088684E+04</totfact>
</mgrwt>
</event>
<event>
 7    0  0.4752811E-002  0.4512661E+03  0.7546771E-02  0.1027345E+00
         21   -1    0    0  502  501  0.00000000000E+00  0.00000000000E+00  0.16947819886E+03  0.16947819886E+03  0.00000000000E+00 0. -1.
         21   -1    0    0  501  502 -0.00000000000E+00 -0.00000000000E+00 -0.30039419838E+03  0.30039419838E+03  0.00000000000E+00 0. -1.
      99926    2    1    2    0    0  0.00000000000E+00  0.00000000000E+00 -0.13091599952E+03  0.46987239725E+03  0.45126607535E+03 0.  0.
      99925    2    3    3    0    0 -0.41844131536E+02 -0.94909779447E+02 -0.45698405209E+02  0.28638304045E+03  0.26299829664E+03 0.  0.
         25    1    3    3    0    0  0.41844131536E+02  0.94909779447E+02 -0.85217594311E+02  0.18348935680E+03  0.12509000000E+03 0.  0.
         25    1    4    4    0    0  0.29852724297E+01 -0.11663395952E+02 -0.26229048049E+02  0.12837607923E+03  0.12509000000E+03 0.  0.
         25    1    4    4    0    0 -0.44829403966E+02 -0.83246383496E+02 -0.19469357161E+02  0.15800696122E+03  0.12509000000E+03 0.  0.
<mgrwt>
<rscale>  2 0.45126608E+03</rscale>
<asrwt>0</asrwt>
<pdfrwt beam="1">  1       21 0.24923265E-01 0.45126608E+03</pdfrwt>
<pdfrwt beam="2">  1       21 0.44175617E-01 0.45126608E+03</pdfrwt>
<totfact> 0.69480898E+04</totfact>
</mgrwt>
</event>
<event>
 7    0  0.4752811E-002  0.4800305E+03  0.7546771E-02  0.1019127E+00
         21   -1    0    0  502  501  0.00000000000E+00  0.00000000000E+00  0.12601398736E+03  0.12601398736E+03  0.00000000000E+00 0. -1.
         21   -1    0    0  501  502 -0.00000000000E+00 -0.00000000000E+00 -0.45715026597E+03  0.45715026597E+03  0.00000000000E+00 0. -1.
      99926    2    1    2    0    0  0.17763568394E-14  0.00000000000E+00 -0.33113627862E+03  0.58316425333E+03  0.48003053168E+03 0.  0.
      99925    2    3    3    0    0 -0.10132754405E+02 -0.94877677184E+02 -0.87535268385E+02  0.29317562144E+03  0.26303055992E+03 0.  0.
         25    1    3    3    0    0  0.10132754405E+02  0.94877677184E+02 -0.24360101023E+03  0.28998863189E+03  0.12509000000E+03 0.  0.
         25    1    4    4    0    0  0.92278154845E+01 -0.84429546966E+02 -0.31962485997E+02  0.15453999350E+03  0.12509000000E+03 0.  0.
         25    1    4    4    0    0 -0.19360569889E+02 -0.10448130217E+02 -0.55572782388E+02  0.13863562794E+03  0.12509000000E+03 0.  0.
<mgrwt>
<rscale>  2 0.48003053E+03</rscale>
<asrwt>0</asrwt>
<pdfrwt beam="1">  1       21 0.18531469E-01 0.48003053E+03</pdfrwt>
<pdfrwt beam="2">  1       21 0.67227978E-01 0.48003053E+03</pdfrwt>
<totfact> 0.49235811E+04</totfact>
</mgrwt>
</event>
<event>
 7    0  0.4752811E-002  0.4595988E+03  0.7546771E-02  0.1024898E+00
         21   -1    0    0  502  501  0.00000000000E+00  0.00000000000E+00  0.16259719187E+03  0.16259719187E+03  0.00000000000E+00 0.  1.
         21   -1    0    0  501  502 -0.00000000000E+00 -0.00000000000E+00 -0.32477654974E+03  0.32477654974E+03  0.00000000000E+00 0.  1.
      99926    2    1    2    0    0  0.14210854715E-13  0.00000000000E+00 -0.16217935787E+03  0.48737374160E+03  0.45959875966E+03 0.  0.
      99925    2    3    3    0    0 -0.11275319254E+03  0.32479312078E+02 -0.96069336708E+02  0.30356342867E+03  0.26297005463E+03 0.  0.
         25    1    4    4    0    0 -0.83326223603E+02 -0.14438937049E+02 -0.55526608762E+02  0.16088024995E+03  0.12509000000E+03 0.  0.
         25    1    3    3    0    0  0.11275319254E+03 -0.32479312078E+02 -0.66110021163E+02  0.18381031293E+03  0.12509000000E+03 0.  0.
         25    1    4    4    0    0 -0.29426968935E+02  0.46918249127E+02 -0.40542727946E+02  0.14268317873E+03  0.12509000000E+03 0.  0.
<mgrwt>
<rscale>  2 0.45959876E+03</rscale>
<asrwt>0</asrwt>
<pdfrwt beam="1">  1       21 0.23911352E-01 0.45959876E+03</pdfrwt>
<pdfrwt beam="2">  1       21 0.47761257E-01 0.45959876E+03</pdfrwt>
<totfact> 0.63805814E+04</totfact>
</mgrwt>
</event>
<event>
 7    0  0.4752811E-002  0.4562760E+03  0.7546771E-02  0.1025867E+00
         21   -1    0    0  502  501  0.00000000000E+00  0.00000000000E+00  0.26040334729E+03  0.26040334729E+03  0.00000000000E+00 0.  1.
         21   -1    0    0  501  502 -0.00000000000E+00 -0.00000000000E+00 -0.19987051862E+03  0.19987051862E+03  0.00000000000E+00 0.  1.
      99926    2    1    2    0    0  0.00000000000E+00  0.14210854715E-13  0.60532828672E+02  0.46027386591E+03  0.45627602204E+03 0.  0.
      99925    2    3    3    0    0 -0.71291151338E+01  0.79807864550E+02  0.12036992552E+03  0.30012360589E+03  0.26299266209E+03 0.  0.
         25    1    3    3    0    0  0.71291151338E+01 -0.79807864550E+02 -0.59837096844E+02  0.16015026002E+03  0.12509000000E+03 0.  0.
         25    1    4    4    0    0 -0.10642914789E+02  0.81172033973E+02  0.58731572532E+02  0.16062090912E+03  0.12509000000E+03 0.  0.
         25    1    4    4    0    0  0.35137996548E+01 -0.13641694233E+01  0.61638352984E+02  0.13950269677E+03  0.12509000000E+03 0.  0.
<mgrwt>
<rscale>  2 0.45627602E+03</rscale>
<asrwt>0</asrwt>
<pdfrwt beam="1">  1       21 0.38294610E-01 0.45627602E+03</pdfrwt>
<pdfrwt beam="2">  1       21 0.29392723E-01 0.45627602E+03</pdfrwt>
<totfact> 0.67471397E+04</totfact>
</mgrwt>
</event>
<event>
 7    0  0.4752811E-002  0.4703753E+03  0.7546771E-02  0.1021814E+00
         21   -1    0    0  502  501  0.00000000000E+00  0.00000000000E+00  0.63179078727E+02  0.63179078727E+02  0.00000000000E+00 0. -1.
         21   -1    0    0  501  502 -0.00000000000E+00 -0.00000000000E+00 -0.87549905001E+03  0.87549905001E+03  0.00000000000E+00 0. -1.
      99926    2    1    2    0    0  0.00000000000E+00  0.00000000000E+00 -0.81231997128E+03  0.93867812874E+03  0.47037526893E+03 0.  0.
      99925    2    3    3    0    0  0.89898443824E+02  0.83697112537E+02 -0.57275150685E+03  0.64181537577E+03  0.26228944151E+03 0.  0.
         25    1    3    3    0    0 -0.89898443824E+02 -0.83697112537E+02 -0.23956846444E+03  0.29686275297E+03  0.12509000000E+03 0.  0.
         25    1    4    4    0    0  0.56366319267E+02  0.30793436462E+02 -0.36693466148E+03  0.39295540660E+03  0.12509000000E+03 0.  0.
         25    1    4    4    0    0  0.33532124557E+02  0.52903676075E+02 -0.20581684536E+03  0.24885996917E+03  0.12509000000E+03 0.  0.
<mgrwt>
<rscale>  2 0.47037527E+03</rscale>
<asrwt>0</asrwt>
<pdfrwt beam="1">  1       21 0.92910413E-02 0.47037527E+03</pdfrwt>
<pdfrwt beam="2">  1       21 0.12874986E+00 0.47037527E+03</pdfrwt>
<totfact> 0.36952877E+04</totfact>
</mgrwt>
</event>
<event>
 7    0  0.4752811E-002  0.4565285E+03  0.7546771E-02  0.1025793E+00
         21   -1    0    0  502  501  0.00000000000E+00  0.00000000000E+00  0.44588313669E+03  0.44588313669E+03  0.00000000000E+00 0.  1.
         21   -1    0    0  501  502 -0.00000000000E+00 -0.00000000000E+00 -0.11685699431E+03  0.11685699431E+03  0.00000000000E+00 0.  1.
      99926    2    1    2    0    0  0.71054273576E-14  0.00000000000E+00  0.32902614237E+03  0.56274013100E+03  0.45652847959E+03 0.  0.
      99925    2    3    3    0    0  0.47584351718E+02 -0.10229363718E+03  0.18204970838E+03  0.33918289228E+03  0.26301079703E+03 0.  0.
         25    1    3    3    0    0 -0.47584351718E+02  0.10229363718E+03  0.14697643399E+03  0.22355723872E+03  0.12509000000E+03 0.  0.
         25    1    4    4    0    0 -0.11445209324E+02 -0.49410568657E+02  0.11186112826E+03  0.17530777857E+03  0.12509000000E+03 0.  0.
         25    1    4    4    0    0  0.59029561042E+02 -0.52883068525E+02  0.70188580116E+02  0.16387511371E+03  0.12509000000E+03 0.  0.
<mgrwt>
<rscale>  2 0.45652848E+03</rscale>
<asrwt>0</asrwt>
<pdfrwt beam="1">  1       21 0.65571049E-01 0.45652848E+03</pdfrwt>
<pdfrwt beam="2">  1       21 0.17184852E-01 0.45652848E+03</pdfrwt>
<totfact> 0.60300104E+04</totfact>
</mgrwt>
</event>
<event>
 7    0  0.4752811E-002  0.4508868E+03  0.7546771E-02  0.1027458E+00
         21   -1    0    0  502  501  0.00000000000E+00  0.00000000000E+00  0.24569623239E+02  0.24569623239E+02  0.00000000000E+00 0.  1.
         21   -1    0    0  501  502 -0.00000000000E+00 -0.00000000000E+00 -0.20685998133E+04  0.20685998133E+04  0.00000000000E+00 0.  1.
      99926    2    1    2    0    0  0.35527136788E-14  0.00000000000E+00 -0.20440301901E+04  0.20931694366E+04  0.45088676204E+03 0.  0.
      99925    2    3    3    0    0  0.18408052596E+02  0.10670005090E+03 -0.12209725775E+04  0.12536486810E+04  0.26293958078E+03 0.  0.
         25    1    3    3    0    0 -0.18408052596E+02 -0.10670005090E+03 -0.82305761262E+03  0.83952075558E+03  0.12509000000E+03 0.  0.
         25    1    4    4    0    0  0.43724676889E+02  0.46230631642E+02 -0.69619017465E+03  0.71019531542E+03  0.12509000000E+03 0.  0.
         25    1    4    4    0    0 -0.25316624293E+02  0.60469419254E+02 -0.52478240282E+03  0.54345336556E+03  0.12509000000E+03 0.  0.
<mgrwt>
<rscale>  2 0.45088676E+03</rscale>
<asrwt>0</asrwt>
<pdfrwt beam="1">  1       21 0.36131792E-02 0.45088676E+03</pdfrwt>
<pdfrwt beam="2">  1       21 0.30420591E+00 0.45088676E+03</pdfrwt>
<totfact> 0.12646734E+04</totfact>
</mgrwt>
</event>
<event>
 7    0  0.4752811E-002  0.4574560E+03  0.7546771E-02  0.1025522E+00
         21   -1    0    0  502  501  0.00000000000E+00  0.00000000000E+00  0.90732825174E+02  0.90732825174E+02  0.00000000000E+00 0. -1.
         21   -1    0    0  501  502 -0.00000000000E+00 -0.00000000000E+00 -0.57659947343E+03  0.57659947343E+03  0.00000000000E+00 0. -1.
      99926    2    1    2    0    0  0.00000000000E+00  0.00000000000E+00 -0.48586664825E+03  0.66733229860E+03  0.45745600539E+03 0.  0.
      99925    2    3    3    0    0  0.98780097547E+02 -0.16565858757E+02 -0.22051348743E+03  0.35734561597E+03  0.26275036778E+03 0.  0.
         25    1    3    3    0    0 -0.98780097547E+02  0.16565858757E+02 -0.26535316083E+03  0.30998668263E+03  0.12509000000E+03 0.  0.
         25    1    4    4    0    0  0.57939862619E+02 -0.33199159144E+02 -0.15268439244E+03  0.20837284766E+03  0.12509000000E+03 0.  0.
         25    1    4    4    0    0  0.40840234928E+02  0.16633300387E+02 -0.67829094991E+02  0.14897276831E+03  0.12509000000E+03 0.  0.
<mgrwt>
<rscale>  2 0.45745601E+03</rscale>
<asrwt>0</asrwt>
<pdfrwt beam="1">  1       21 0.13343063E-01 0.45745601E+03</pdfrwt>
<pdfrwt beam="2">  1       21 0.84794037E-01 0.45745601E+03</pdfrwt>
<totfact> 0.53665973E+04</totfact>
</mgrwt>
</event>
<event>
 7    0  0.4752811E-002  0.4604801E+03  0.7546771E-02  0.1024642E+00
         21   -1    0    0  502  501  0.00000000000E+00  0.00000000000E+00  0.20020132029E+03  0.20020132029E+03  0.00000000000E+00 0. -1.
         21   -1    0    0  501  502 -0.00000000000E+00 -0.00000000000E+00 -0.26478581802E+03  0.26478581802E+03  0.00000000000E+00 0. -1.
      99926    2    1    2    0    0  0.00000000000E+00  0.00000000000E+00 -0.64584497733E+02  0.46498713831E+03  0.46048005543E+03 0.  0.
      99925    2    3    3    0    0 -0.47299382439E+01 -0.40493531933E+02 -0.15253984543E+03  0.30672864807E+03  0.26296760382E+03 0.  0.
         25    1    3    3    0    0  0.47299382439E+01  0.40493531933E+02  0.87955347700E+02  0.15825849024E+03  0.12509000000E+03 0.  0.
         25    1    4    4    0    0  0.24947802381E+02 -0.48634702170E+02 -0.90184109709E+02  0.16361054013E+03  0.12509000000E+03 0.  0.
         25    1    4    4    0    0 -0.29677740625E+02  0.81411702369E+01 -0.62355735724E+02  0.14311810794E+03  0.12509000000E+03 0.  0.
<mgrwt>
<rscale>  2 0.46048006E+03</rscale>
<asrwt>0</asrwt>
<pdfrwt beam="1">  1       21 0.29441371E-01 0.46048006E+03</pdfrwt>
<pdfrwt beam="2">  1       21 0.38939091E-01 0.46048006E+03</pdfrwt>
<totfact> 0.64934142E+04</totfact>
</mgrwt>
</event>
<event>
 7    0  0.4752811E-002  0.4550423E+03  0.7546771E-02  0.1026229E+00
         21   -1    0    0  502  501  0.00000000000E+00  0.00000000000E+00  0.51142461163E+03  0.51142461163E+03  0.00000000000E+00 0.  1.
         21   -1    0    0  501  502 -0.00000000000E+00 -0.00000000000E+00 -0.10121898444E+03  0.10121898444E+03  0.00000000000E+00 0.  1.
      99926    2    1    2    0    0  0.35527136788E-14  0.00000000000E+00  0.41020562719E+03  0.61264359607E+03  0.45504232685E+03 0.  0.
      99925    2    3    3    0    0 -0.25012322231E+02 -0.10972095531E+03  0.24136680932E+03  0.37427757748E+03  0.26298567274E+03 0.  0.
         25    1    4    4    0    0  0.17875862259E+02 -0.78429889775E+02  0.10733500633E+03  0.18340966645E+03  0.12509000000E+03 0.  0.
         25    1    4    4    0    0 -0.42888184490E+02 -0.31291065531E+02  0.13403180299E+03  0.19086791104E+03  0.12509000000E+03 0.  0.
         25    1    3    3    0    0  0.25012322231E+02  0.10972095531E+03  0.16883881787E+03  0.23836601859E+03  0.12509000000E+03 0.  0.
<mgrwt>
<rscale>  2 0.45504233E+03</rscale>
<asrwt>0</asrwt>
<pdfrwt beam="1">  1       21 0.75209501E-01 0.45504233E+03</pdfrwt>
<pdfrwt beam="2">  1       21 0.14885145E-01 0.45504233E+03</pdfrwt>
<totfact> 0.57887341E+04</totfact>
</mgrwt>
</event>
<event>
 7    0  0.4752811E-002  0.4661748E+03  0.7546771E-02  0.1023005E+00
         21   -1    0    0  502  501  0.00000000000E+00  0.00000000000E+00  0.12410518473E+03  0.12410518473E+03  0.00000000000E+00 0. -1.
         21   -1    0    0  501  502 -0.00000000000E+00 -0.00000000000E+00 -0.43777178017E+03  0.43777178017E+03  0.00000000000E+00 0. -1.
      99926    2    1    2    0    0  0.00000000000E+00 -0.14210854715E-13 -0.31366659544E+03  0.56187696490E+03  0.46617484981E+03 0.  0.
      99925    2    3    3    0    0  0.24171121640E+02 -0.90052987795E+02 -0.99266369626E+02  0.29671899564E+03  0.26361822111E+03 0.  0.
         25    1    4    4    0    0  0.47418418355E+01 -0.21199519403E+02 -0.83034773450E+02  0.15170427281E+03  0.12509000000E+03 0.  0.
         25    1    3    3    0    0 -0.24171121640E+02  0.90052987795E+02 -0.21440022582E+03  0.26515796926E+03  0.12509000000E+03 0.  0.
         25    1    4    4    0    0  0.19429279805E+02 -0.68853468393E+02 -0.16231596176E+02  0.14501472283E+03  0.12509000000E+03 0.  0.
<mgrwt>
<rscale>  2 0.46617485E+03</rscale>
<asrwt>0</asrwt>
<pdfrwt beam="1">  1       21 0.18250763E-01 0.46617485E+03</pdfrwt>
<pdfrwt beam="2">  1       21 0.64378203E-01 0.46617485E+03</pdfrwt>
<totfact> 0.55974317E+04</totfact>
</mgrwt>
</event>
<event>
 7    0  0.4752811E-002  0.4654750E+03  0.7546771E-02  0.1023205E+00
         21   -1    0    0  502  501  0.00000000000E+00  0.00000000000E+00  0.40298964902E+03  0.40298964902E+03  0.00000000000E+00 0.  1.
         21   -1    0    0  501  502 -0.00000000000E+00 -0.00000000000E+00 -0.13441226205E+03  0.13441226205E+03  0.00000000000E+00 0.  1.
      99926    2    1    2    0    0  0.00000000000E+00  0.00000000000E+00  0.26857738698E+03  0.53740191107E+03  0.46547502750E+03 0.  0.
      99925    2    3    3    0    0 -0.12059383114E+03  0.22416109723E+02  0.17238035436E+03  0.33753512727E+03  0.26300118153E+03 0.  0.
         25    1    4    4    0    0 -0.62157864671E+02  0.10825588497E+01  0.40557021827E+02  0.14545498339E+03  0.12509000000E+03 0.  0.
         25    1    3    3    0    0  0.12059383114E+03 -0.22416109723E+02  0.96197032615E+02  0.19986678380E+03  0.12509000000E+03 0.  0.
         25    1    4    4    0    0 -0.58435966470E+02  0.21333550873E+02  0.13182333253E+03  0.19208014387E+03  0.12509000000E+03 0.  0.
<mgrwt>
<rscale>  2 0.46547503E+03</rscale>
<asrwt>0</asrwt>
<pdfrwt beam="1">  1       21 0.59263183E-01 0.46547503E+03</pdfrwt>
<pdfrwt beam="2">  1       21 0.19766509E-01 0.46547503E+03</pdfrwt>
<totfact> 0.57761643E+04</totfact>
</mgrwt>
</event>
<event>
 7    0  0.4752811E-002  0.4379795E+03  0.7546771E-02  0.1031369E+00
         21   -1    0    0  502  501  0.00000000000E+00  0.00000000000E+00  0.50894247121E+03  0.50894247121E+03  0.00000000000E+00 0. -1.
         21   -1    0    0  501  502 -0.00000000000E+00 -0.00000000000E+00 -0.94227770746E+02  0.94227770746E+02  0.00000000000E+00 0. -1.
      99926    2    1    2    0    0 -0.71054273576E-14  0.00000000000E+00  0.41471470047E+03  0.60317024196E+03  0.43797951779E+03 0.  0.
      99925    2    3    3    0    0  0.43489260677E+02 -0.85531194674E+02  0.25253155764E+03  0.37698938297E+03  0.26294848585E+03 0.  0.
         25    1    3    3    0    0 -0.43489260677E+02  0.85531194674E+02  0.16218314282E+03  0.22618085899E+03  0.12509000000E+03 0.  0.
         25    1    4    4    0    0  0.50068929468E+02 -0.38087892442E+02  0.90316892651E+02  0.16662003015E+03  0.12509000000E+03 0.  0.
         25    1    4    4    0    0 -0.65796687915E+01 -0.47443302232E+02  0.16221466499E+03  0.21036935282E+03  0.12509000000E+03 0.  0.
<mgrwt>
<rscale>  2 0.43797952E+03</rscale>
<asrwt>0</asrwt>
<pdfrwt beam="1">  1       21 0.74844480E-01 0.43797952E+03</pdfrwt>
<pdfrwt beam="2">  1       21 0.13857025E-01 0.43797952E+03</pdfrwt>
<totfact> 0.67055042E+04</totfact>
</mgrwt>
</event>
<event>
 7    0  0.4752811E-002  0.4937429E+03  0.7546771E-02  0.1015425E+00
         21   -1    0    0  502  501  0.00000000000E+00  0.00000000000E+00  0.10260322691E+04  0.10260322691E+04  0.00000000000E+00 0. -1.
         21   -1    0    0  501  502 -0.00000000000E+00 -0.00000000000E+00 -0.59399206913E+02  0.59399206913E+02  0.00000000000E+00 0. -1.
      99926    2    1    2    0    0  0.00000000000E+00  0.00000000000E+00  0.96663306219E+03  0.10854314760E+04  0.49374286041E+03 0.  0.
      99925    2    3    3    0    0  0.42114031367E+02  0.13354904400E+03  0.49398705797E+03  0.57685435090E+03  0.26292354386E+03 0.  0.
         25    1    4    4    0    0 -0.50592613138E+01  0.52060364109E+02  0.17374105457E+03  0.22038452708E+03  0.12509000000E+03 0.  0.
         25    1    3    3    0    0 -0.42114031367E+02 -0.13354904400E+03  0.47264600422E+03  0.50857712512E+03  0.12509000000E+03 0.  0.
         25    1    4    4    0    0  0.47173292681E+02  0.81488679889E+02  0.32024600341E+03  0.35646982381E+03  0.12509000000E+03 0.  0.
<mgrwt>
<rscale>  2 0.49374286E+03</rscale>
<asrwt>0</asrwt>
<pdfrwt beam="1">  1       21 0.15088709E+00 0.49374286E+03</pdfrwt>
<pdfrwt beam="2">  1       21 0.87351781E-02 0.49374286E+03</pdfrwt>
<totfact> 0.26902686E+04</totfact>
</mgrwt>
</event>
<event>
 7    0  0.4752811E-002  0.4578996E+03  0.7546771E-02  0.1025392E+00
         21   -1    0    0  502  501  0.00000000000E+00  0.00000000000E+00  0.51067645540E+03  0.51067645540E+03  0.00000000000E+00 0. -1.
         21   -1    0    0  501  502 -0.00000000000E+00 -0.00000000000E+00 -0.10264426403E+03  0.10264426403E+03  0.00000000000E+00 0. -1.
      99926    2    1    2    0    0  0.00000000000E+00  0.00000000000E+00  0.40803219137E+03  0.61332071943E+03  0.45789959128E+03 0.  0.
      99925    2    3    3    0    0  0.60049393184E+02 -0.87012009209E+01  0.12394877131E+03  0.29704151023E+03  0.26303748853E+03 0.  0.
         25    1    3    3    0    0 -0.60049393184E+02  0.87012009209E+01  0.28408342006E+03  0.31627920920E+03  0.12509000000E+03 0.  0.
         25    1    4    4    0    0  0.27365566785E+02  0.20600400222E+02  0.96511116808E+02  0.16166370806E+03  0.12509000000E+03 0.  0.
         25    1    4    4    0    0  0.32683826399E+02 -0.29301601143E+02  0.27437654498E+02  0.13537780218E+03  0.12509000000E+03 0.  0.
<mgrwt>
<rscale>  2 0.45789959E+03</rscale>
<asrwt>0</asrwt>
<pdfrwt beam="1">  1       21 0.75099478E-01 0.45789959E+03</pdfrwt>
<pdfrwt beam="2">  1       21 0.15094745E-01 0.45789959E+03</pdfrwt>
<totfact> 0.56559267E+04</totfact>
</mgrwt>
</event>
<event>
 7    0  0.4752811E-002  0.4574646E+03  0.7546771E-02  0.1025519E+00
         21   -1    0    0  502  501  0.00000000000E+00  0.00000000000E+00  0.21392604993E+03  0.21392604993E+03  0.00000000000E+00 0. -1.
         21   -1    0    0  501  502 -0.00000000000E+00 -0.00000000000E+00 -0.24456335618E+03  0.24456335618E+03  0.00000000000E+00 0. -1.
      99926    2    1    2    0    0  0.14210854715E-13  0.00000000000E+00 -0.30637306256E+02  0.45848940611E+03  0.45746463358E+03 0.  0.
      99925    2    3    3    0    0  0.66625385589E+02  0.57488264162E+02 -0.94167212571E+02  0.29287720964E+03  0.26299382784E+03 0.  0.
         25    1    3    3    0    0 -0.66625385589E+02 -0.57488264162E+02  0.63529906315E+02  0.16561219646E+03  0.12509000000E+03 0.  0.
         25    1    4    4    0    0 -0.17351509165E-01  0.46332955914E+02 -0.29150578460E+02  0.13654306071E+03  0.12509000000E+03 0.  0.
         25    1    4    4    0    0  0.66642737098E+02  0.11155308248E+02 -0.65016634111E+02  0.15633414893E+03  0.12509000000E+03 0.  0.
<mgrwt>
<rscale>  2 0.45746463E+03</rscale>
<asrwt>0</asrwt>
<pdfrwt beam="1">  1       21 0.31459713E-01 0.45746463E+03</pdfrwt>
<pdfrwt beam="2">  1       21 0.35965200E-01 0.45746463E+03</pdfrwt>
<totfact> 0.66964391E+04</totfact>
</mgrwt>
</event>
<event>
 7    0  0.4752811E-002  0.4592829E+03  0.7546771E-02  0.1024989E+00
         21   -1    0    0  502  501  0.00000000000E+00  0.00000000000E+00  0.20635758002E+03  0.20635758002E+03  0.00000000000E+00 0.  1.
         21   -1    0    0  501  502 -0.00000000000E+00 -0.00000000000E+00 -0.25555252121E+03  0.25555252121E+03  0.00000000000E+00 0.  1.
      99926    2    1    2    0    0  0.71054273576E-14  0.00000000000E+00 -0.49194941187E+02  0.46191010124E+03  0.45928291867E+03 0.  0.
      99925    2    3    3    0    0  0.41272127406E+02  0.77268129178E+02 -0.10913885754E+03  0.29785360641E+03  0.26292913178E+03 0.  0.
         25    1    4    4    0    0 -0.63486123715E+01  0.17227841690E+02 -0.75813237014E+02  0.14741865016E+03  0.12509000000E+03 0.  0.
         25    1    3    3    0    0 -0.41272127406E+02 -0.77268129178E+02  0.59943916351E+02  0.16405649483E+03  0.12509000000E+03 0.  0.
         25    1    4    4    0    0  0.47620739778E+02  0.60040287488E+02 -0.33325620525E+02  0.15043495625E+03  0.12509000000E+03 0.  0.
<mgrwt>
<rscale>  2 0.45928292E+03</rscale>
<asrwt>0</asrwt>
<pdfrwt beam="1">  1       21 0.30346703E-01 0.45928292E+03</pdfrwt>
<pdfrwt beam="2">  1       21 0.37581253E-01 0.45928292E+03</pdfrwt>
<totfact> 0.65766246E+04</totfact>
</mgrwt>
</event>
<event>
 7    0  0.4752811E-002  0.4557938E+03  0.7546771E-02  0.1026008E+00
         21   -1    0    0  502  501  0.00000000000E+00  0.00000000000E+00  0.22590244155E+03  0.22590244155E+03  0.00000000000E+00 0.  1.
         21   -1    0    0  501  502 -0.00000000000E+00 -0.00000000000E+00 -0.22990892685E+03  0.22990892685E+03  0.00000000000E+00 0.  1.
      99926    2    1    2    0    0  0.00000000000E+00  0.00000000000E+00 -0.40064852949E+01  0.45581136840E+03  0.45579375998E+03 0.  0.
      99925    2    3    3    0    0 -0.10107291718E+03 -0.45858053552E+02 -0.28202813038E+02  0.28683898592E+03  0.26298766040E+03 0.  0.
         25    1    4    4    0    0 -0.36821025566E+02 -0.41238788612E+02  0.19768529586E+02  0.13818367658E+03  0.12509000000E+03 0.  0.
         25    1    3    3    0    0  0.10107291718E+03  0.45858053552E+02  0.24196327743E+02  0.16897238247E+03  0.12509000000E+03 0.  0.
         25    1    4    4    0    0 -0.64251891614E+02 -0.46192649406E+01 -0.47971342625E+02  0.14865530935E+03  0.12509000000E+03 0.  0.
<mgrwt>
<rscale>  2 0.45579376E+03</rscale>
<asrwt>0</asrwt>
<pdfrwt beam="1">  1       21 0.33220947E-01 0.45579376E+03</pdfrwt>
<pdfrwt beam="2">  1       21 0.33810136E-01 0.45579376E+03</pdfrwt>
<totfact> 0.68054355E+04</totfact>
</mgrwt>
</event>
<event>
 7    0  0.4752811E-002  0.4501504E+03  0.7546771E-02  0.1027677E+00
         21   -1    0    0  502  501  0.00000000000E+00  0.00000000000E+00  0.63855367553E+02  0.63855367553E+02  0.00000000000E+00 0. -1.
         21   -1    0    0  501  502 -0.00000000000E+00 -0.00000000000E+00 -0.79333743864E+03  0.79333743864E+03  0.00000000000E+00 0. -1.
      99926    2    1    2    0    0  0.00000000000E+00  0.00000000000E+00 -0.72948207109E+03  0.85719280620E+03  0.45015043591E+03 0.  0.
      99925    2    3    3    0    0  0.80908825762E+02 -0.40142940482E+02 -0.34649109218E+03  0.44429173841E+03  0.26302353145E+03 0.  0.
         25    1    4    4    0    0  0.58029183484E+02 -0.26111361907E+01 -0.12493442176E+03  0.18609224060E+03  0.12509000000E+03 0.  0.
         25    1    4    4    0    0  0.22879642278E+02 -0.37531804291E+02 -0.22155667042E+03  0.25819949781E+03  0.12509000000E+03 0.  0.
         25    1    3    3    0    0 -0.80908825762E+02  0.40142940482E+02 -0.38299097891E+03  0.41290106779E+03  0.12509000000E+03 0.  0.
<mgrwt>
<rscale>  2 0.45015044E+03</rscale>
<asrwt>0</asrwt>
<pdfrwt beam="1">  1       21 0.93904950E-02 0.45015044E+03</pdfrwt>
<pdfrwt beam="2">  1       21 0.11666727E+00 0.45015044E+03</pdfrwt>
<totfact> 0.46877161E+04</totfact>
</mgrwt>
</event>
<event>
 7    0  0.4752811E-002  0.4312553E+03  0.7546771E-02  0.1033464E+00
         21   -1    0    0  502  501  0.00000000000E+00  0.00000000000E+00  0.13519487164E+03  0.13519487164E+03  0.00000000000E+00 0.  1.
         21   -1    0    0  501  502 -0.00000000000E+00 -0.00000000000E+00 -0.34391299804E+03  0.34391299804E+03  0.00000000000E+00 0.  1.
      99926    2    1    2    0    0  0.00000000000E+00  0.00000000000E+00 -0.20871812641E+03  0.47910786968E+03  0.43125525446E+03 0.  0.
      99925    2    3    3    0    0  0.73941406610E+02 -0.42975735138E+02 -0.16252332156E+03  0.32069160310E+03  0.26289737318E+03 0.  0.
         25    1    4    4    0    0  0.29726300922E+02 -0.57498555030E+02 -0.10335048207E+03  0.17469564116E+03  0.12509000000E+03 0.  0.
         25    1    4    4    0    0  0.44215105689E+02  0.14522819893E+02 -0.59172839498E+02  0.14599596194E+03  0.12509000000E+03 0.  0.
         25    1    3    3    0    0 -0.73941406610E+02  0.42975735138E+02 -0.46194804845E+02  0.15841626658E+03  0.12509000000E+03 0.  0.
<mgrwt>
<rscale>  2 0.43125525E+03</rscale>
<asrwt>0</asrwt>
<pdfrwt beam="1">  1       21 0.19881599E-01 0.43125525E+03</pdfrwt>
<pdfrwt beam="2">  1       21 0.50575440E-01 0.43125525E+03</pdfrwt>
<totfact> 0.80987635E+04</totfact>
</mgrwt>
</event>
<event>
 6    0  0.4752811E-002  0.4554645E+03  0.7546771E-02  0.1026105E+00
         21   -1    0    0  502  501  0.00000000000E+00  0.00000000000E+00  0.30241360464E+03  0.30241360464E+03  0.00000000000E+00 0. -1.
         21   -1    0    0  501  502 -0.00000000000E+00 -0.00000000000E+00 -0.17149350946E+03  0.17149350946E+03  0.00000000000E+00 0. -1.
      99926    2    1    2    0    0 -0.71054273576E-14 -0.71054273576E-14  0.13092009519E+03  0.47390711410E+03  0.45546446785E+03 0.  0.
         25    1    3    3    0    0  0.66768701237E+00 -0.25323931456E+02  0.13501041725E+03  0.18578769652E+03  0.12509000000E+03 0.  0.
         25    1    3    3    0    0 -0.54071264390E+02 -0.19227750824E+02  0.30300659039E+02  0.14092212769E+03  0.12509000000E+03 0.  0.
         25    1    3    3    0    0  0.53403577378E+02  0.44551682280E+02 -0.34390981102E+02  0.14719728989E+03  0.12509000000E+03 0.  0.
<mgrwt>
<rscale>  2 0.45546447E+03</rscale>
<asrwt>0</asrwt>
<pdfrwt beam="1">  1       21 0.44472589E-01 0.45546447E+03</pdfrwt>
<pdfrwt beam="2">  1       21 0.25219634E-01 0.45546447E+03</pdfrwt>
<totfact> 0.66899479E+04</totfact>
</mgrwt>
</event>
<event>
 7    0  0.4752811E-002  0.4605113E+03  0.7546771E-02  0.1024633E+00
         21   -1    0    0  502  501  0.00000000000E+00  0.00000000000E+00  0.10160295328E+03  0.10160295328E+03  0.00000000000E+00 0. -1.
         21   -1    0    0  501  502 -0.00000000000E+00 -0.00000000000E+00 -0.52181214275E+03  0.52181214275E+03  0.00000000000E+00 0. -1.
      99926    2    1    2    0    0 -0.55511151231E-15  0.00000000000E+00 -0.42020918947E+03  0.62341509603E+03  0.46051125833E+03 0.  0.
      99925    2    3    3    0    0  0.40323940765E+00 -0.80499567402E+02 -0.38038600638E+03  0.46942244372E+03  0.26302770551E+03 0.  0.
         25    1    4    4    0    0 -0.26040123701E+02 -0.41402552077E+02 -0.13777162154E+03  0.19240786668E+03  0.12509000000E+03 0.  0.
         25    1    3    3    0    0 -0.40323940765E+00  0.80499567402E+02 -0.39823183093E+02  0.15399265231E+03  0.12509000000E+03 0.  0.
         25    1    4    4    0    0  0.26443363108E+02 -0.39097015325E+02 -0.24261438484E+03  0.27701457704E+03  0.12509000000E+03 0.  0.
<mgrwt>
<rscale>  2 0.46051126E+03</rscale>
<asrwt>0</asrwt>
<pdfrwt beam="1">  1       21 0.14941611E-01 0.46051126E+03</pdfrwt>
<pdfrwt beam="2">  1       21 0.76737079E-01 0.46051126E+03</pdfrwt>
<totfact> 0.54834215E+04</totfact>
</mgrwt>
</event>
<event>
 7    0  0.4752811E-002  0.4505886E+03  0.7546771E-02  0.1027547E+00
         21   -1    0    0  502  501  0.00000000000E+00  0.00000000000E+00  0.31730347022E+03  0.31730347022E+03  0.00000000000E+00 0. -1.
         21   -1    0    0  501  502 -0.00000000000E+00 -0.00000000000E+00 -0.15996522842E+03  0.15996522842E+03  0.00000000000E+00 0. -1.
      99926    2    1    2    0    0  0.00000000000E+00  0.00000000000E+00  0.15733824180E+03  0.47726869864E+03  0.45058860213E+03 0.  0.
      99925    2    3    3    0    0  0.10011103190E+03  0.32050969569E+02  0.13035627988E+03  0.31166369350E+03  0.26285359953E+03 0.  0.
         25    1    4    4    0    0  0.72633952608E+02 -0.17601668920E+02  0.65405290543E+02  0.15972122574E+03  0.12509000000E+03 0.  0.
         25    1    4    4    0    0  0.27477079289E+02  0.49652638489E+02  0.64950989336E+02  0.15194246777E+03  0.12509000000E+03 0.  0.
         25    1    3    3    0    0 -0.10011103190E+03 -0.32050969569E+02  0.26981961923E+02  0.16560500514E+03  0.12509000000E+03 0.  0.
<mgrwt>
<rscale>  2 0.45058860E+03</rscale>
<asrwt>0</asrwt>
<pdfrwt beam="1">  1       21 0.46662275E-01 0.45058860E+03</pdfrwt>
<pdfrwt beam="2">  1       21 0.23524298E-01 0.45058860E+03</pdfrwt>
<totfact> 0.69294190E+04</totfact>
</mgrwt>
</event>
<event>
 7    0  0.4752811E-002  0.4560099E+03  0.7546771E-02  0.1025945E+00
         21   -1    0    0  502  501  0.00000000000E+00  0.00000000000E+00  0.31761020921E+02  0.31761020921E+02  0.00000000000E+00 0.  1.
         21   -1    0    0  501  502 -0.00000000000E+00 -0.00000000000E+00 -0.16367943398E+04  0.16367943398E+04  0.00000000000E+00 0.  1.
      99926    2    1    2    0    0  0.00000000000E+00  0.00000000000E+00 -0.16050333188E+04  0.16685553607E+04  0.45600990896E+03 0.  0.
      99925    2    3    3    0    0 -0.10178323333E+03 -0.51196954539E+02 -0.98474177607E+03  0.10256011937E+04  0.26298381735E+03 0.  0.
         25    1    4    4    0    0 -0.13714515320E+02 -0.68215308154E+01 -0.48376391208E+03  0.49990964378E+03  0.12509000000E+03 0.  0.
         25    1    3    3    0    0  0.10178323333E+03  0.51196954539E+02 -0.62029154278E+03  0.64295416701E+03  0.12509000000E+03 0.  0.
         25    1    4    4    0    0 -0.88068718005E+02 -0.44375423723E+02 -0.50097786399E+03  0.52569154989E+03  0.12509000000E+03 0.  0.
<mgrwt>
<rscale>  2 0.45600991E+03</rscale>
<asrwt>0</asrwt>
<pdfrwt beam="1">  1       21 0.46707389E-02 0.45600991E+03</pdfrwt>
<pdfrwt beam="2">  1       21 0.24070502E+00 0.45600991E+03</pdfrwt>
<totfact> 0.19768584E+04</totfact>
</mgrwt>
</event>
<event>
 7    0  0.4752811E-002  0.4569706E+03  0.7546771E-02  0.1025663E+00
         21   -1    0    0  502  501  0.00000000000E+00  0.00000000000E+00  0.29137361720E+03  0.29137361720E+03  0.00000000000E+00 0. -1.
         21   -1    0    0  501  502 -0.00000000000E+00 -0.00000000000E+00 -0.17917045416E+03  0.17917045416E+03  0.00000000000E+00 0. -1.
      99926    2    1    2    0    0  0.00000000000E+00  0.00000000000E+00  0.11220316303E+03  0.47054407136E+03  0.45697064818E+03 0.  0.
      99925    2    3    3    0    0 -0.68469601508E+02  0.39683888257E+02 -0.15387527233E+02  0.27512199057E+03  0.26304455209E+03 0.  0.
         25    1    3    3    0    0  0.68469601508E+02 -0.39683888257E+02  0.12759069027E+03  0.19542208079E+03  0.12509000000E+03 0.  0.
         25    1    4    4    0    0 -0.63472320162E+02  0.11149625380E+02 -0.35581092172E+02  0.14514328022E+03  0.12509000000E+03 0.  0.
         25    1    4    4    0    0 -0.49972813456E+01  0.28534262878E+02  0.20193564940E+02  0.12997871035E+03  0.12509000000E+03 0.  0.
<mgrwt>
<rscale>  2 0.45697065E+03</rscale>
<asrwt>0</asrwt>
<pdfrwt beam="1">  1       21 0.42849061E-01 0.45697065E+03</pdfrwt>
<pdfrwt beam="2">  1       21 0.26348596E-01 0.45697065E+03</pdfrwt>
<totfact> 0.66351979E+04</totfact>
</mgrwt>
</event>
<event>
 7    0  0.4752811E-002  0.4528568E+03  0.7546771E-02  0.1026874E+00
         21   -1    0    0  502  501  0.00000000000E+00  0.00000000000E+00  0.97054539533E+02  0.97054539533E+02  0.00000000000E+00 0. -1.
         21   -1    0    0  501  502 -0.00000000000E+00 -0.00000000000E+00 -0.52825780446E+03  0.52825780446E+03  0.00000000000E+00 0. -1.
      99926    2    1    2    0    0  0.00000000000E+00  0.00000000000E+00 -0.43120326493E+03  0.62531234400E+03  0.45285678958E+03 0.  0.
      99925    2    3    3    0    0  0.10525963980E+03 -0.33655213697E+02 -0.25856298720E+03  0.38517813408E+03  0.26323964641E+03 0.  0.
         25    1    4    4    0    0  0.32832640988E+02 -0.40974965693E+02 -0.16147769359E+03  0.21090159733E+03  0.12509000000E+03 0.  0.
         25    1    4    4    0    0  0.72426998811E+02  0.73197519958E+01 -0.97085293611E+02  0.17427653675E+03  0.12509000000E+03 0.  0.
         25    1    3    3    0    0 -0.10525963980E+03  0.33655213697E+02 -0.17264027773E+03  0.24013420992E+03  0.12509000000E+03 0.  0.
<mgrwt>
<rscale>  2 0.45285679E+03</rscale>
<asrwt>0</asrwt>
<pdfrwt beam="1">  1       21 0.14272727E-01 0.45285679E+03</pdfrwt>
<pdfrwt beam="2">  1       21 0.77684969E-01 0.45285679E+03</pdfrwt>
<totfact> 0.58123945E+04</totfact>
</mgrwt>
</event>
<event>
 7    0  0.4752811E-002  0.4543521E+03  0.7546771E-02  0.1026432E+00
         21   -1    0    0  502  501  0.00000000000E+00  0.00000000000E+00  0.36176092592E+03  0.36176092592E+03  0.00000000000E+00 0. -1.
         21   -1    0    0  501  502 -0.00000000000E+00 -0.00000000000E+00 -0.14266040812E+03  0.14266040812E+03  0.00000000000E+00 0. -1.
      99926    2    1    2    0    0 -0.35527136788E-14  0.00000000000E+00  0.21910051780E+03  0.50442133404E+03  0.45435211602E+03 0.  0.
      99925    2    3    3    0    0  0.28164480746E+02 -0.10380923695E+03  0.17464933125E+03  0.33356170821E+03  0.26304263652E+03 0.  0.
         25    1    4    4    0    0  0.52935334139E+02 -0.56563240327E+02  0.10510811156E+03  0.18082249023E+03  0.12509000000E+03 0.  0.
         25    1    3    3    0    0 -0.28164480746E+02  0.10380923695E+03  0.44451186550E+02  0.17085962583E+03  0.12509000000E+03 0.  0.
         25    1    4    4    0    0 -0.24770853393E+02 -0.47245996625E+02  0.69541219691E+02  0.15273921799E+03  0.12509000000E+03 0.  0.
<mgrwt>
<rscale>  2 0.45435212E+03</rscale>
<asrwt>0</asrwt>
<pdfrwt beam="1">  1       21 0.53200136E-01 0.45435212E+03</pdfrwt>
<pdfrwt beam="2">  1       21 0.20979472E-01 0.45435212E+03</pdfrwt>
<totfact> 0.65296292E+04</totfact>
</mgrwt>
</event>
<event>
 7    0  0.4752811E-002  0.4345009E+03  0.7546771E-02  0.1032448E+00
         21   -1    0    0  502  501  0.00000000000E+00  0.00000000000E+00  0.55710093590E+02  0.55710093590E+02  0.00000000000E+00 0.  1.
         21   -1    0    0  501  502 -0.00000000000E+00 -0.00000000000E+00 -0.84720279963E+03  0.84720279963E+03  0.00000000000E+00 0.  1.
      99926    2    1    2    0    0 -0.71054273576E-14  0.88817841970E-15 -0.79149270604E+03  0.90291289322E+03  0.43450085043E+03 0.  0.
      99925    2    3    3    0    0 -0.44140817171E+02 -0.19898281937E+01 -0.67712624399E+03  0.72775705718E+03  0.26301713408E+03 0.  0.
         25    1    3    3    0    0  0.44140817171E+02  0.19898281937E+01 -0.11436646205E+03  0.17515583604E+03  0.12509000000E+03 0.  0.
         25    1    4    4    0    0 -0.10942932423E+02  0.28803472871E+02 -0.40232718357E+03  0.42245006634E+03  0.12509000000E+03 0.  0.
         25    1    4    4    0    0 -0.33197884749E+02 -0.30793301065E+02 -0.27479906043E+03  0.30530699084E+03  0.12509000000E+03 0.  0.
<mgrwt>
<rscale>  2 0.43450085E+03</rscale>
<asrwt>0</asrwt>
<pdfrwt beam="1">  1       21 0.81926611E-02 0.43450085E+03</pdfrwt>
<pdfrwt beam="2">  1       21 0.12458864E+00 0.43450085E+03</pdfrwt>
<totfact> 0.50776129E+04</totfact>
</mgrwt>
</event>
<event>
 7    0  0.4752811E-002  0.4736812E+03  0.7546771E-02  0.1020886E+00
         21   -1    0    0  502  501  0.00000000000E+00  0.00000000000E+00  0.60545867138E+02  0.60545867138E+02  0.00000000000E+00 0. -1.
         21   -1    0    0  501  502 -0.00000000000E+00 -0.00000000000E+00 -0.92646234863E+03  0.92646234863E+03  0.00000000000E+00 0. -1.
      99926    2    1    2    0    0  0.00000000000E+00  0.00000000000E+00 -0.86591648149E+03  0.98700821577E+03  0.47368118505E+03 0.  0.
      99925    2    3    3    0    0 -0.12791865956E+03  0.16421871687E+02 -0.50590233636E+03  0.58465196301E+03  0.26314992417E+03 0.  0.
         25    1    4    4    0    0 -0.10860494837E+03  0.14360247625E+02 -0.29750549679E+03  0.34082001151E+03  0.12509000000E+03 0.  0.
         25    1    4    4    0    0 -0.19313711192E+02  0.20616240615E+01 -0.20839683956E+03  0.24383195150E+03  0.12509000000E+03 0.  0.
         25    1    3    3    0    0  0.12791865956E+03 -0.16421871687E+02 -0.36001414514E+03  0.40235625276E+03  0.12509000000E+03 0.  0.
<mgrwt>
<rscale>  2 0.47368119E+03</rscale>
<asrwt>0</asrwt>
<pdfrwt beam="1">  1       21 0.89038047E-02 0.47368119E+03</pdfrwt>
<pdfrwt beam="2">  1       21 0.13624445E+00 0.47368119E+03</pdfrwt>
<totfact> 0.34376043E+04</totfact>
</mgrwt>
</event>
<event>
 7    0  0.4752811E-002  0.4606208E+03  0.7546771E-02  0.1024601E+00
         21   -1    0    0  502  501  0.00000000000E+00  0.00000000000E+00  0.32243590156E+03  0.32243590156E+03  0.00000000000E+00 0. -1.
         21   -1    0    0  501  502 -0.00000000000E+00 -0.00000000000E+00 -0.16450672129E+03  0.16450672129E+03  0.00000000000E+00 0. -1.
      99926    2    1    2    0    0  0.00000000000E+00  0.00000000000E+00  0.15792918026E+03  0.48694262285E+03  0.46062076806E+03 0.  0.
      99925    2    3    3    0    0  0.27320363010E+02 -0.10001512891E+03  0.38509249249E+02  0.28530419330E+03  0.26299447179E+03 0.  0.
         25    1    3    3    0    0 -0.27320363010E+02  0.10001512891E+03  0.11941993102E+03  0.20163842954E+03  0.12509000000E+03 0.  0.
         25    1    4    4    0    0 -0.18244430051E+02 -0.75491933551E+02  0.16587708495E+02  0.14817068344E+03  0.12509000000E+03 0.  0.
         25    1    4    4    0    0  0.45564793062E+02 -0.24523195357E+02  0.21921540753E+02  0.13713350986E+03  0.12509000000E+03 0.  0.
<mgrwt>
<rscale>  2 0.46062077E+03</rscale>
<asrwt>0</asrwt>
<pdfrwt beam="1">  1       21 0.47417044E-01 0.46062077E+03</pdfrwt>
<pdfrwt beam="2">  1       21 0.24192165E-01 0.46062077E+03</pdfrwt>
<totfact> 0.63325107E+04</totfact>
</mgrwt>
</event>
<event>
 7    0  0.4752811E-002  0.4961390E+03  0.7546771E-02  0.1014792E+00
         21   -1    0    0  502  501  0.00000000000E+00  0.00000000000E+00  0.55418499430E+02  0.55418499430E+02  0.00000000000E+00 0. -1.
         21   -1    0    0  501  502 -0.00000000000E+00 -0.00000000000E+00 -0.11104321912E+04  0.11104321912E+04  0.00000000000E+00 0. -1.
      99926    2    1    2    0    0  0.71054273576E-14  0.71054273576E-14 -0.10550136918E+04  0.11658506906E+04  0.49613903597E+03 0.  0.
      99925    2    3    3    0    0  0.56894900135E+02 -0.62953197456E+02 -0.35588027772E+03  0.45056391355E+03  0.26297705867E+03 0.  0.
         25    1    3    3    0    0 -0.56894900135E+02  0.62953197456E+02 -0.69913341403E+03  0.71528677706E+03  0.12509000000E+03 0.  0.
         25    1    4    4    0    0  0.39510470070E+02  0.74630256817E+01 -0.15832809562E+03  0.20574758312E+03  0.12509000000E+03 0.  0.
         25    1    4    4    0    0  0.17384430065E+02 -0.70416223138E+02 -0.19755218210E+03  0.24481633042E+03  0.12509000000E+03 0.  0.
<mgrwt>
<rscale>  2 0.49613904E+03</rscale>
<asrwt>0</asrwt>
<pdfrwt beam="1">  1       21 0.81497796E-02 0.49613904E+03</pdfrwt>
<pdfrwt beam="2">  1       21 0.16329885E+00 0.49613904E+03</pdfrwt>
<totfact> 0.24433537E+04</totfact>
</mgrwt>
</event>
<event>
 7    0  0.4752811E-002  0.4358792E+03  0.7546771E-02  0.1032019E+00
         21   -1    0    0  502  501  0.00000000000E+00  0.00000000000E+00  0.13526828193E+03  0.13526828193E+03  0.00000000000E+00 0.  1.
         21   -1    0    0  501  502 -0.00000000000E+00 -0.00000000000E+00 -0.35113681146E+03  0.35113681146E+03  0.00000000000E+00 0.  1.
      99926    2    1    2    0    0  0.00000000000E+00  0.00000000000E+00 -0.21586852953E+03  0.48640509340E+03  0.43587921818E+03 0.  0.
      99925    2    3    3    0    0 -0.92809775668E+02 -0.96619562733E+01 -0.12474846144E+03  0.30569155553E+03  0.26301737706E+03 0.  0.
         25    1    4    4    0    0 -0.59798353711E+02  0.28037241103E+02 -0.85717647089E+02  0.16539937460E+03  0.12509000000E+03 0.  0.
         25    1    4    4    0    0 -0.33011421957E+02 -0.37699197376E+02 -0.39030814355E+02  0.14029218094E+03  0.12509000000E+03 0.  0.
         25    1    3    3    0    0  0.92809775668E+02  0.96619562733E+01 -0.91120068087E+02  0.18071353786E+03  0.12509000000E+03 0.  0.
<mgrwt>
<rscale>  2 0.43587922E+03</rscale>
<asrwt>0</asrwt>
<pdfrwt beam="1">  1       21 0.19892395E-01 0.43587922E+03</pdfrwt>
<pdfrwt beam="2">  1       21 0.51637766E-01 0.43587922E+03</pdfrwt>
<totfact> 0.77323433E+04</totfact>
</mgrwt>
</event>
<event>
 7    0  0.4752811E-002  0.4548494E+03  0.7546771E-02  0.1026286E+00
         21   -1    0    0  502  501  0.00000000000E+00  0.00000000000E+00  0.54576657307E+02  0.54576657307E+02  0.00000000000E+00 0. -1.
         21   -1    0    0  501  502 -0.00000000000E+00 -0.00000000000E+00 -0.94769444615E+03  0.94769444615E+03  0.00000000000E+00 0. -1.
      99926    2    1    2    0    0  0.00000000000E+00  0.00000000000E+00 -0.89311778884E+03  0.10022711035E+04  0.45484940373E+03 0.  0.
      99925    2    3    3    0    0  0.98877858055E+02  0.41022753365E+02 -0.64209109643E+03  0.70206849602E+03  0.26298193832E+03 0.  0.
         25    1    4    4    0    0  0.26466320482E+02  0.33691823947E+01 -0.37278040629E+03  0.39411236586E+03  0.12509000000E+03 0.  0.
         25    1    4    4    0    0  0.72411537572E+02  0.37653570970E+02 -0.26931069014E+03  0.30795613016E+03  0.12509000000E+03 0.  0.
         25    1    3    3    0    0 -0.98877858055E+02 -0.41022753365E+02 -0.25102669241E+03  0.30020260743E+03  0.12509000000E+03 0.  0.
<mgrwt>
<rscale>  2 0.45484940E+03</rscale>
<asrwt>0</asrwt>
<pdfrwt beam="1">  1       21 0.80259796E-02 0.45484940E+03</pdfrwt>
<pdfrwt beam="2">  1       21 0.13936682E+00 0.45484940E+03</pdfrwt>
<totfact> 0.39124574E+04</totfact>
</mgrwt>
</event>
<event>
 7    0  0.4752811E-002  0.4558169E+03  0.7546771E-02  0.1026001E+00
         21   -1    0    0  502  501  0.00000000000E+00  0.00000000000E+00  0.20407096045E+03  0.20407096045E+03  0.00000000000E+00 0. -1.
         21   -1    0    0  501  502 -0.00000000000E+00 -0.00000000000E+00 -0.25453042975E+03  0.25453042975E+03  0.00000000000E+00 0. -1.
      99926    2    1    2    0    0  0.00000000000E+00 -0.14210854715E-13 -0.50459469310E+02  0.45860139020E+03  0.45581693370E+03 0.  0.
      99925    2    3    3    0    0 -0.74339654628E+02 -0.82572733459E+02 -0.57876950747E+02  0.29112850376E+03  0.26279540276E+03 0.  0.
         25    1    3    3    0    0  0.74339654628E+02  0.82572733459E+02  0.74174814372E+01  0.16747288644E+03  0.12509000000E+03 0.  0.
         25    1    4    4    0    0  0.11127391073E+01 -0.51690660833E+02 -0.37341284029E+02  0.14041026386E+03  0.12509000000E+03 0.  0.
         25    1    4    4    0    0 -0.75452393735E+02 -0.30882072626E+02 -0.20535666718E+02  0.15071823990E+03  0.12509000000E+03 0.  0.
<mgrwt>
<rscale>  2 0.45581693E+03</rscale>
<asrwt>0</asrwt>
<pdfrwt beam="1">  1       21 0.30010436E-01 0.45581693E+03</pdfrwt>
<pdfrwt beam="2">  1       21 0.37430945E-01 0.45581693E+03</pdfrwt>
<totfact> 0.67839452E+04</totfact>
</mgrwt>
</event>
<event>
 7    0  0.4752811E-002  0.4427300E+03  0.7546771E-02  0.1029912E+00
         21   -1    0    0  502  501  0.00000000000E+00  0.00000000000E+00  0.18231978026E+03  0.18231978026E+03  0.00000000000E+00 0.  1.
         21   -1    0    0  501  502 -0.00000000000E+00 -0.00000000000E+00 -0.26877202615E+03  0.26877202615E+03  0.00000000000E+00 0.  1.
      99926    2    1    2    0    0  0.00000000000E+00  0.00000000000E+00 -0.86452245891E+02  0.45109180642E+03  0.44272997075E+03 0.  0.
      99925    2    3    3    0    0 -0.59708980756E+02 -0.58991240010E+02  0.25270624334E+01  0.27613479973E+03  0.26305686228E+03 0.  0.
         25    1    3    3    0    0  0.59708980756E+02  0.58991240010E+02 -0.88979308324E+02  0.17495700669E+03  0.12509000000E+03 0.  0.
         25    1    4    4    0    0 -0.22182082465E+02 -0.54772010815E+02 -0.29823517406E+02  0.14152373738E+03  0.12509000000E+03 0.  0.
         25    1    4    4    0    0 -0.37526898291E+02 -0.42192291948E+01  0.32350579840E+02  0.13461106235E+03  0.12509000000E+03 0.  0.
<mgrwt>
<rscale>  2 0.44272997E+03</rscale>
<asrwt>0</asrwt>
<pdfrwt beam="1">  1       21 0.26811733E-01 0.44272997E+03</pdfrwt>
<pdfrwt beam="2">  1       21 0.39525298E-01 0.44272997E+03</pdfrwt>
<totfact> 0.76000498E+04</totfact>
</mgrwt>
</event>
<event>
 6    0  0.4752811E-002  0.4525346E+03  0.7546771E-02  0.1026969E+00
         21   -1    0    0  502  501  0.00000000000E+00  0.00000000000E+00  0.34965258892E+03  0.34965258892E+03  0.00000000000E+00 0.  1.
         21   -1    0    0  501  502 -0.00000000000E+00 -0.00000000000E+00 -0.14642217689E+03  0.14642217689E+03  0.00000000000E+00 0.  1.
      99926    2    1    2    0    0  0.00000000000E+00  0.35527136788E-14  0.20323041203E+03  0.49607476581E+03  0.45253460961E+03 0.  0.
         25    1    3    3    0    0  0.31808345708E+02  0.16116389517E+02  0.19837474639E+03  0.23721626625E+03  0.12509000000E+03 0.  0.
         25    1    3    3    0    0 -0.30015646066E+02  0.15566398093E+02 -0.24121728339E+01  0.12960161433E+03  0.12509000000E+03 0.  0.
         25    1    3    3    0    0 -0.17926996418E+01 -0.31682787610E+02  0.72678384666E+01  0.12925688523E+03  0.12509000000E+03 0.  0.
<mgrwt>
<rscale>  2 0.45253461E+03</rscale>
<asrwt>0</asrwt>
<pdfrwt beam="1">  1       21 0.51419498E-01 0.45253461E+03</pdfrwt>
<pdfrwt beam="2">  1       21 0.21532673E-01 0.45253461E+03</pdfrwt>
<totfact> 0.66846007E+04</totfact>
</mgrwt>
</event>
<event>
 7    0  0.4752811E-002  0.4226923E+03  0.7546771E-02  0.1036194E+00
         21   -1    0    0  502  501  0.00000000000E+00  0.00000000000E+00  0.80417906715E+03  0.80417906715E+03  0.00000000000E+00 0.  1.
         21   -1    0    0  501  502 -0.00000000000E+00 -0.00000000000E+00 -0.55543843593E+02  0.55543843593E+02  0.00000000000E+00 0.  1.
      99926    2    1    2    0    0 -0.71054273576E-14  0.35527136788E-14  0.74863522356E+03  0.85972291075E+03  0.42269230571E+03 0.  0.
      99925    2    3    3    0    0 -0.52959965176E+02  0.23875804866E+02  0.37720411130E+03  0.46351161456E+03  0.26303091697E+03 0.  0.
         25    1    4    4    0    0 -0.58169451323E+02  0.54690408229E+01  0.23987574620E+03  0.27676971870E+03  0.12509000000E+03 0.  0.
         25    1    4    4    0    0  0.52094861467E+01  0.18406764043E+02  0.13732836510E+03  0.18674189586E+03  0.12509000000E+03 0.  0.
         25    1    3    3    0    0  0.52959965176E+02 -0.23875804866E+02  0.37143111226E+03  0.39621129619E+03  0.12509000000E+03 0.  0.
<mgrwt>
<rscale>  2 0.42269231E+03</rscale>
<asrwt>0</asrwt>
<pdfrwt beam="1">  1       21 0.11826162E+00 0.42269231E+03</pdfrwt>
<pdfrwt beam="2">  1       21 0.81682128E-02 0.42269231E+03</pdfrwt>
<totfact> 0.58470056E+04</totfact>
</mgrwt>
</event>
<event>
 7    0  0.4752811E-002  0.4530160E+03  0.7546771E-02  0.1026826E+00
         21   -1    0    0  502  501  0.00000000000E+00  0.00000000000E+00  0.43240342452E+03  0.43240342452E+03  0.00000000000E+00 0.  1.
         21   -1    0    0  501  502 -0.00000000000E+00 -0.00000000000E+00 -0.11865278127E+03  0.11865278127E+03  0.00000000000E+00 0.  1.
      99926    2    1    2    0    0  0.00000000000E+00  0.00000000000E+00  0.31375064325E+03  0.55105620579E+03  0.45301597742E+03 0.  0.
      99925    2    3    3    0    0  0.30044572123E+02 -0.88217485855E+02  0.12336317287E+03  0.30492636587E+03  0.26282430454E+03 0.  0.
         25    1    3    3    0    0 -0.30044572123E+02  0.88217485855E+02  0.19038747038E+03  0.24612983993E+03  0.12509000000E+03 0.  0.
         25    1    4    4    0    0  0.37150158274E+02 -0.78409318263E+02  0.80035122532E+02  0.17199210560E+03  0.12509000000E+03 0.  0.
         25    1    4    4    0    0 -0.71055861509E+01 -0.98081675920E+01  0.43328050339E+02  0.13293426027E+03  0.12509000000E+03 0.  0.
<mgrwt>
<rscale>  2 0.45301598E+03</rscale>
<asrwt>0</asrwt>
<pdfrwt beam="1">  1       21 0.63588738E-01 0.45301598E+03</pdfrwt>
<pdfrwt beam="2">  1       21 0.17448939E-01 0.45301598E+03</pdfrwt>
<totfact> 0.62776378E+04</totfact>
</mgrwt>
</event>
<event>
 7    0  0.4752811E-002  0.4549654E+03  0.7546771E-02  0.1026252E+00
         21   -1    0    0  502  501  0.00000000000E+00  0.00000000000E+00  0.19556095303E+02  0.19556095303E+02  0.00000000000E+00 0. -1.
         21   -1    0    0  501  502 -0.00000000000E+00 -0.00000000000E+00 -0.26461514132E+04  0.26461514132E+04  0.00000000000E+00 0. -1.
      99926    2    1    2    0    0  0.17763568394E-14  0.00000000000E+00 -0.26265953179E+04  0.26657075085E+04  0.45496544582E+03 0.  0.
      99925    2    3    3    0    0 -0.86959457738E+01 -0.81400095097E+02 -0.21109740787E+04  0.21288515079E+04  0.26286039424E+03 0.  0.
         25    1    4    4    0    0  0.12811692336E+02 -0.47496044696E+02 -0.13442361206E+04  0.13509397728E+04  0.12509000000E+03 0.  0.
         25    1    4    4    0    0 -0.21507638110E+02 -0.33904050401E+02 -0.76673795809E+03  0.77791173510E+03  0.12509000000E+03 0.  0.
         25    1    3    3    0    0  0.86959457738E+01  0.81400095097E+02 -0.51562123920E+03  0.53685600059E+03  0.12509000000E+03 0.  0.
<mgrwt>
<rscale>  2 0.45496545E+03</rscale>
<asrwt>0</asrwt>
<pdfrwt beam="1">  1       21 0.28758992E-02 0.45496545E+03</pdfrwt>
<pdfrwt beam="2">  1       21 0.38913954E+00 0.45496545E+03</pdfrwt>
<totfact> 0.55822082E+03</totfact>
</mgrwt>
</event>
<event>
 7    0  0.4752811E-002  0.4550319E+03  0.7546771E-02  0.1026232E+00
         21   -1    0    0  502  501  0.00000000000E+00  0.00000000000E+00  0.21648634559E+03  0.21648634559E+03  0.00000000000E+00 0. -1.
         21   -1    0    0  501  502 -0.00000000000E+00 -0.00000000000E+00 -0.23910750029E+03  0.23910750029E+03  0.00000000000E+00 0. -1.
      99926    2    1    2    0    0 -0.14210854715E-13  0.00000000000E+00 -0.22621154697E+02  0.45559384589E+03  0.45503190632E+03 0.  0.
      99925    2    3    3    0    0  0.66270805272E+02  0.39887274816E+02 -0.96992810125E+02  0.29078648696E+03  0.26299498372E+03 0.  0.
         25    1    3    3    0    0 -0.66270805272E+02 -0.39887274816E+02  0.74371655427E+02  0.16480735892E+03  0.12509000000E+03 0.  0.
         25    1    4    4    0    0  0.12443844822E+02  0.67828056919E-01 -0.77227560796E+02  0.14753459974E+03  0.12509000000E+03 0.  0.
         25    1    4    4    0    0  0.53826960450E+02  0.39819446759E+02 -0.19765249328E+02  0.14325188722E+03  0.12509000000E+03 0.  0.
<mgrwt>
<rscale>  2 0.45503191E+03</rscale>
<asrwt>0</asrwt>
<pdfrwt beam="1">  1       21 0.31836227E-01 0.45503191E+03</pdfrwt>
<pdfrwt beam="2">  1       21 0.35162868E-01 0.45503191E+03</pdfrwt>
<totfact> 0.68484901E+04</totfact>
</mgrwt>
</event>
<event>
 7    0  0.4752811E-002  0.4370843E+03  0.7546771E-02  0.1031645E+00
         21   -1    0    0  502  501  0.00000000000E+00  0.00000000000E+00  0.19299110647E+03  0.19299110647E+03  0.00000000000E+00 0.  1.
         21   -1    0    0  501  502 -0.00000000000E+00 -0.00000000000E+00 -0.24747601716E+03  0.24747601716E+03  0.00000000000E+00 0.  1.
      99926    2    1    2    0    0 -0.14210854715E-13  0.00000000000E+00 -0.54484910691E+02  0.44046712363E+03  0.43708429565E+03 0.  0.
      99925    2    3    3    0    0 -0.75690717256E+02  0.22914453982E+02  0.18926099443E+02  0.27526772475E+03  0.26298282485E+03 0.  0.
         25    1    4    4    0    0 -0.66026276239E+02  0.38555890380E+02  0.24836542373E+02  0.14869562123E+03  0.12509000000E+03 0.  0.
         25    1    3    3    0    0  0.75690717256E+02 -0.22914453982E+02 -0.73411010133E+02  0.16519939888E+03  0.12509000000E+03 0.  0.
         25    1    4    4    0    0 -0.96644410170E+01 -0.15641436399E+02 -0.59104429306E+01  0.12657210352E+03  0.12509000000E+03 0.  0.
<mgrwt>
<rscale>  2 0.43708430E+03</rscale>
<asrwt>0</asrwt>
<pdfrwt beam="1">  1       21 0.28381045E-01 0.43708430E+03</pdfrwt>
<pdfrwt beam="2">  1       21 0.36393532E-01 0.43708430E+03</pdfrwt>
<totfact> 0.80533905E+04</totfact>
</mgrwt>
</event>
<event>
 6    0  0.4752811E-002  0.4543849E+03  0.7546771E-02  0.1026422E+00
         21   -1    0    0  502  501  0.00000000000E+00  0.00000000000E+00  0.15829160324E+04  0.15829160324E+04  0.00000000000E+00 0.  1.
         21   -1    0    0  501  502 -0.00000000000E+00 -0.00000000000E+00 -0.32608426414E+02  0.32608426414E+02  0.00000000000E+00 0.  1.
      99926    2    1    2    0    0 -0.14210854715E-13  0.00000000000E+00  0.15503076060E+04  0.16155244588E+04  0.45438486314E+03 0.  0.
         25    1    3    3    0    0  0.47234977619E+02 -0.54836124073E+02  0.39902442476E+03  0.42438914132E+03  0.12509000000E+03 0.  0.
         25    1    3    3    0    0  0.32305545237E+02  0.12191384400E+02  0.31393348760E+03  0.33969695442E+03  0.12509000000E+03 0.  0.
         25    1    3    3    0    0 -0.79540522856E+02  0.42644739673E+02  0.83734969366E+03  0.85143836310E+03  0.12509000000E+03 0.  0.
<mgrwt>
<rscale>  2 0.45438486E+03</rscale>
<asrwt>0</asrwt>
<pdfrwt beam="1">  1       21 0.23278172E+00 0.45438486E+03</pdfrwt>
<pdfrwt beam="2">  1       21 0.47953579E-02 0.45438486E+03</pdfrwt>
<totfact> 0.21182232E+04</totfact>
</mgrwt>
</event>
<event>
 7    0  0.4752811E-002  0.4361495E+03  0.7546771E-02  0.1031935E+00
         21   -1    0    0  502  501  0.00000000000E+00  0.00000000000E+00  0.57773987145E+03  0.57773987145E+03  0.00000000000E+00 0.  1.
         21   -1    0    0  501  502 -0.00000000000E+00 -0.00000000000E+00 -0.82314906941E+02  0.82314906941E+02  0.00000000000E+00 0.  1.
      99926    2    1    2    0    0  0.71054273576E-14  0.35527136788E-14  0.49542496450E+03  0.66005477839E+03  0.43614953286E+03 0.  0.
      99925    2    3    3    0    0  0.56160551610E+02  0.24812912276E+02  0.20784150508E+03  0.34049032103E+03  0.26261355507E+03 0.  0.
         25    1    3    3    0    0 -0.56160551610E+02 -0.24812912276E+02  0.28758345942E+03  0.31956445736E+03  0.12509000000E+03 0.  0.
         25    1    4    4    0    0 -0.96918919202E+01  0.25887979503E+02  0.91973344063E+02  0.15770454771E+03  0.12509000000E+03 0.  0.
         25    1    4    4    0    0  0.65852443530E+02 -0.10750672273E+01  0.11586816102E+03  0.18278577332E+03  0.12509000000E+03 0.  0.
<mgrwt>
<rscale>  2 0.43614953E+03</rscale>
<asrwt>0</asrwt>
<pdfrwt beam="1">  1       21 0.84961744E-01 0.43614953E+03</pdfrwt>
<pdfrwt beam="2">  1       21 0.12105134E-01 0.43614953E+03</pdfrwt>
<totfact> 0.64134913E+04</totfact>
</mgrwt>
</event>
<event>
 7    0  0.4752811E-002  0.4588417E+03  0.7546771E-02  0.1025118E+00
         21   -1    0    0  502  501  0.00000000000E+00  0.00000000000E+00  0.33858886249E+02  0.33858886249E+02  0.00000000000E+00 0.  1.
         21   -1    0    0  501  502 -0.00000000000E+00 -0.00000000000E+00 -0.15545088011E+04  0.15545088011E+04  0.00000000000E+00 0.  1.
      99926    2    1    2    0    0  0.00000000000E+00  0.00000000000E+00 -0.15206499148E+04  0.15883676873E+04  0.45884174469E+03 0.  0.
      99925    2    3    3    0    0  0.22544650673E+02  0.11379576829E+03 -0.10000404912E+04  0.10405178738E+04  0.26294243365E+03 0.  0.
         25    1    4    4    0    0 -0.20297876824E+02  0.34264608729E+02 -0.40194534866E+03  0.42283996810E+03  0.12509000000E+03 0.  0.
         25    1    3    3    0    0 -0.22544650673E+02 -0.11379576829E+03 -0.52060942357E+03  0.54784981352E+03  0.12509000000E+03 0.  0.
         25    1    4    4    0    0  0.42842527498E+02  0.79531159565E+02 -0.59809514257E+03  0.61767790568E+03  0.12509000000E+03 0.  0.
<mgrwt>
<rscale>  2 0.45884174E+03</rscale>
<asrwt>0</asrwt>
<pdfrwt beam="1">  1       21 0.49792478E-02 0.45884174E+03</pdfrwt>
<pdfrwt beam="2">  1       21 0.22860425E+00 0.45884174E+03</pdfrwt>
<totfact> 0.21058655E+04</totfact>
</mgrwt>
</event>
<event>
 7    0  0.4752811E-002  0.4549660E+03  0.7546771E-02  0.1026251E+00
         21   -1    0    0  502  501  0.00000000000E+00  0.00000000000E+00  0.20147036815E+03  0.20147036815E+03  0.00000000000E+00 0. -1.
         21   -1    0    0  501  502 -0.00000000000E+00 -0.00000000000E+00 -0.25685420409E+03  0.25685420409E+03  0.00000000000E+00 0. -1.
      99926    2    1    2    0    0  0.35527136788E-14 -0.14210854715E-13 -0.55383835941E+02  0.45832457224E+03  0.45496598141E+03 0.  0.
      99925    2    3    3    0    0  0.14344290911E+02 -0.84244177537E+02 -0.10960227604E+03  0.29742091325E+03  0.26295189787E+03 0.  0.
         25    1    3    3    0    0 -0.14344290911E+02  0.84244177537E+02  0.54218440098E+02  0.16090365899E+03  0.12509000000E+03 0.  0.
         25    1    4    4    0    0  0.41638105710E+02 -0.47290790104E+02 -0.78572612211E+02  0.16059674394E+03  0.12509000000E+03 0.  0.
         25    1    4    4    0    0 -0.27293814799E+02 -0.36953387433E+02 -0.31029663829E+02  0.13682416931E+03  0.12509000000E+03 0.  0.
<mgrwt>
<rscale>  2 0.45496598E+03</rscale>
<asrwt>0</asrwt>
<pdfrwt beam="1">  1       21 0.29627996E-01 0.45496598E+03</pdfrwt>
<pdfrwt beam="2">  1       21 0.37772677E-01 0.45496598E+03</pdfrwt>
<totfact> 0.68321329E+04</totfact>
</mgrwt>
</event>
<event>
 7    0  0.4752811E-002  0.4565004E+03  0.7546771E-02  0.1025801E+00
         21   -1    0    0  502  501  0.00000000000E+00  0.00000000000E+00  0.26579866712E+03  0.26579866712E+03  0.00000000000E+00 0. -1.
         21   -1    0    0  501  502 -0.00000000000E+00 -0.00000000000E+00 -0.19600611014E+03  0.19600611014E+03  0.00000000000E+00 0. -1.
      99926    2    1    2    0    0  0.14210854715E-13  0.00000000000E+00  0.69792556984E+02  0.46180477726E+03  0.45650043953E+03 0.  0.
      99925    2    3    3    0    0  0.78293775678E+02  0.67205073546E+02 -0.66891259745E+01  0.28251899102E+03  0.26291785535E+03 0.  0.
         25    1    3    3    0    0 -0.78293775678E+02 -0.67205073546E+02  0.76481682958E+02  0.17928578624E+03  0.12509000000E+03 0.  0.
         25    1    4    4    0    0  0.64267927197E+02  0.43297824113E+01  0.87411147957E+01  0.14097173004E+03  0.12509000000E+03 0.  0.
         25    1    4    4    0    0  0.14025848481E+02  0.62875291135E+02 -0.15430240770E+02  0.14154726098E+03  0.12509000000E+03 0.  0.
<mgrwt>
<rscale>  2 0.45650044E+03</rscale>
<asrwt>0</asrwt>
<pdfrwt beam="1">  1       21 0.39088039E-01 0.45650044E+03</pdfrwt>
<pdfrwt beam="2">  1       21 0.28824428E-01 0.45650044E+03</pdfrwt>
<totfact> 0.67241055E+04</totfact>
</mgrwt>
</event>
<event>
 7    0  0.4752811E-002  0.4557511E+03  0.7546771E-02  0.1026021E+00
         21   -1    0    0  502  501  0.00000000000E+00  0.00000000000E+00  0.13800011539E+03  0.13800011539E+03  0.00000000000E+00 0.  1.
         21   -1    0    0  501  502 -0.00000000000E+00 -0.00000000000E+00 -0.37628426323E+03  0.37628426323E+03  0.00000000000E+00 0.  1.
      99926    2    1    2    0    0  0.00000000000E+00  0.71054273576E-14 -0.23828414783E+03  0.51428437862E+03  0.45575112395E+03 0.  0.
      99925    2    3    3    0    0  0.18223547003E+02 -0.59201407979E+02 -0.25762725783E+03  0.37336394584E+03  0.26304358517E+03 0.  0.
         25    1    4    4    0    0 -0.45039931609E+01 -0.68307637865E+02 -0.14279521142E+03  0.20180237821E+03  0.12509000000E+03 0.  0.
         25    1    4    4    0    0  0.22727540164E+02  0.91062298853E+01 -0.11483204641E+03  0.17156156763E+03  0.12509000000E+03 0.  0.
         25    1    3    3    0    0 -0.18223547003E+02  0.59201407979E+02  0.19343109997E+02  0.14092043279E+03  0.12509000000E+03 0.  0.
<mgrwt>
<rscale>  2 0.45575112E+03</rscale>
<asrwt>0</asrwt>
<pdfrwt beam="1">  1       21 0.20294135E-01 0.45575112E+03</pdfrwt>
<pdfrwt beam="2">  1       21 0.55335920E-01 0.45575112E+03</pdfrwt>
<totfact> 0.63896645E+04</totfact>
</mgrwt>
</event>
<event>
 7    0  0.4752811E-002  0.4558276E+03  0.7546771E-02  0.1025998E+00
         21   -1    0    0  502  501  0.00000000000E+00  0.00000000000E+00  0.11627894340E+03  0.11627894340E+03  0.00000000000E+00 0. -1.
         21   -1    0    0  501  502 -0.00000000000E+00 -0.00000000000E+00 -0.44672486880E+03  0.44672486880E+03  0.00000000000E+00 0. -1.
      99926    2    1    2    0    0  0.00000000000E+00  0.00000000000E+00 -0.33044592541E+03  0.56300381220E+03  0.45582758027E+03 0.  0.
      99925    2    3    3    0    0 -0.91734713537E+02 -0.66514656163E+02 -0.21985995704E+03  0.36122120232E+03  0.26325443803E+03 0.  0.
         25    1    3    3    0    0  0.91734713537E+02  0.66514656163E+02 -0.11058596836E+03  0.20178260988E+03  0.12509000000E+03 0.  0.
         25    1    4    4    0    0 -0.58628061692E+02 -0.78042387802E+01 -0.71338850904E+02  0.15567560987E+03  0.12509000000E+03 0.  0.
         25    1    4    4    0    0 -0.33106651845E+02 -0.58710417383E+02 -0.14852110614E+03  0.20554559245E+03  0.12509000000E+03 0.  0.
<mgrwt>
<rscale>  2 0.45582758E+03</rscale>
<asrwt>0</asrwt>
<pdfrwt beam="1">  1       21 0.17099845E-01 0.45582758E+03</pdfrwt>
<pdfrwt beam="2">  1       21 0.65694834E-01 0.45582758E+03</pdfrwt>
<totfact> 0.60617549E+04</totfact>
</mgrwt>
</event>
<event>
 7    0  0.4752811E-002  0.4575070E+03  0.7546771E-02  0.1025507E+00
         21   -1    0    0  502  501  0.00000000000E+00  0.00000000000E+00  0.19107968030E+03  0.19107968030E+03  0.00000000000E+00 0.  1.
         21   -1    0    0  501  502 -0.00000000000E+00 -0.00000000000E+00 -0.27385518882E+03  0.27385518882E+03  0.00000000000E+00 0.  1.
      99926    2    1    2    0    0  0.00000000000E+00  0.00000000000E+00 -0.82775508518E+02  0.46493486911E+03  0.45750699197E+03 0.  0.
      99925    2    3    3    0    0 -0.11011415350E+03  0.29478617805E+02 -0.32069874694E+02  0.28826374779E+03  0.26281817996E+03 0.  0.
         25    1    4    4    0    0 -0.63133905361E+02  0.19739214980E+02  0.23095348355E+02  0.14337513672E+03  0.12509000000E+03 0.  0.
         25    1    4    4    0    0 -0.46980248139E+02  0.97394028251E+01 -0.55165223049E+02  0.14488861107E+03  0.12509000000E+03 0.  0.
         25    1    3    3    0    0  0.11011415350E+03 -0.29478617805E+02 -0.50705633825E+02  0.17667112132E+03  0.12509000000E+03 0.  0.
<mgrwt>
<rscale>  2 0.45750699E+03</rscale>
<asrwt>0</asrwt>
<pdfrwt beam="1">  1       21 0.28099953E-01 0.45750699E+03</pdfrwt>
<pdfrwt beam="2">  1       21 0.40272822E-01 0.45750699E+03</pdfrwt>
<totfact> 0.66480180E+04</totfact>
</mgrwt>
</event>
<event>
 7    0  0.4752811E-002  0.4492436E+03  0.7546771E-02  0.1027948E+00
         21   -1    0    0  502  501  0.00000000000E+00  0.00000000000E+00  0.22210932550E+04  0.22210932550E+04  0.00000000000E+00 0. -1.
         21   -1    0    0  501  502 -0.00000000000E+00 -0.00000000000E+00 -0.22716273295E+02  0.22716273295E+02  0.00000000000E+00 0. -1.
      99926    2    1    2    0    0  0.00000000000E+00  0.35527136788E-14  0.21983769817E+04  0.22438095283E+04  0.44924363722E+03 0.  0.
      99925    2    3    3    0    0  0.79335777190E+02  0.30270667167E+02  0.17206451884E+04  0.17427250512E+04  0.26317344204E+03 0.  0.
         25    1    4    4    0    0  0.38891385289E+02  0.27249529281E+02  0.62137422216E+03  0.63561663663E+03  0.12509000000E+03 0.  0.
         25    1    4    4    0    0  0.40444391901E+02  0.30211378867E+01  0.10992709663E+04  0.11071084145E+04  0.12509000000E+03 0.  0.
         25    1    3    3    0    0 -0.79335777190E+02 -0.30270667167E+02  0.47773179326E+03  0.50108447713E+03  0.12509000000E+03 0.  0.
<mgrwt>
<rscale>  2 0.44924364E+03</rscale>
<asrwt>0</asrwt>
<pdfrwt beam="1">  1       21 0.32663121E+00 0.44924364E+03</pdfrwt>
<pdfrwt beam="2">  1       21 0.33406299E-02 0.44924364E+03</pdfrwt>
<totfact> 0.10587509E+04</totfact>
</mgrwt>
</event>
<event>
 7    0  0.4752811E-002  0.4582156E+03  0.7546771E-02  0.1025300E+00
         21   -1    0    0  502  501  0.00000000000E+00  0.00000000000E+00  0.13584913264E+03  0.13584913264E+03  0.00000000000E+00 0.  1.
         21   -1    0    0  501  502 -0.00000000000E+00 -0.00000000000E+00 -0.38638737576E+03  0.38638737576E+03  0.00000000000E+00 0.  1.
      99926    2    1    2    0    0  0.00000000000E+00  0.00000000000E+00 -0.25053824312E+03  0.52223650840E+03  0.45821562549E+03 0.  0.
      99925    2    3    3    0    0  0.23513216045E+02 -0.27993292560E+02 -0.28304508289E+03  0.38792084107E+03  0.26273858535E+03 0.  0.
         25    1    4    4    0    0 -0.27722465691E+02 -0.79636987938E+01 -0.14544560231E+03  0.19399455388E+03  0.12509000000E+03 0.  0.
         25    1    3    3    0    0 -0.23513216045E+02  0.27993292560E+02  0.32506839778E+02  0.13431566733E+03  0.12509000000E+03 0.  0.
         25    1    4    4    0    0  0.51235681735E+02 -0.20029593766E+02 -0.13759948058E+03  0.19392628720E+03  0.12509000000E+03 0.  0.
<mgrwt>
<rscale>  2 0.45821563E+03</rscale>
<asrwt>0</asrwt>
<pdfrwt beam="1">  1       21 0.19977814E-01 0.45821563E+03</pdfrwt>
<pdfrwt beam="2">  1       21 0.56821672E-01 0.45821563E+03</pdfrwt>
<totfact> 0.62134769E+04</totfact>
</mgrwt>
</event>
<event>
 7    0  0.4752811E-002  0.4536941E+03  0.7546771E-02  0.1026626E+00
         21   -1    0    0  502  501  0.00000000000E+00  0.00000000000E+00  0.14512852264E+04  0.14512852264E+04  0.00000000000E+00 0.  1.
         21   -1    0    0  501  502 -0.00000000000E+00 -0.00000000000E+00 -0.35457932022E+02  0.35457932022E+02  0.00000000000E+00 0.  1.
      99926    2    1    2    0    0  0.00000000000E+00  0.00000000000E+00  0.14158272944E+04  0.14867431584E+04  0.45369405066E+03 0.  0.
      99925    2    3    3    0    0  0.24362206991E+02 -0.85083208582E+02  0.66662310714E+03  0.72202942650E+03  0.26288297064E+03 0.  0.
         25    1    3    3    0    0 -0.24362206991E+02  0.85083208582E+02  0.74920418722E+03  0.76471373190E+03  0.12509000000E+03 0.  0.
         25    1    4    4    0    0  0.24369517542E+02 -0.25302301672E+01  0.30034861988E+03  0.32627760728E+03  0.12509000000E+03 0.  0.
         25    1    4    4    0    0 -0.73105516199E-02 -0.82552978415E+02  0.36627448726E+03  0.39575181922E+03  0.12509000000E+03 0.  0.
<mgrwt>
<rscale>  2 0.45369405E+03</rscale>
<asrwt>0</asrwt>
<pdfrwt beam="1">  1       21 0.21342426E+00 0.45369405E+03</pdfrwt>
<pdfrwt beam="2">  1       21 0.52144027E-02 0.45369405E+03</pdfrwt>
<totfact> 0.24352009E+04</totfact>
</mgrwt>
</event>
<event>
 7    0  0.4752811E-002  0.4523590E+03  0.7546771E-02  0.1027021E+00
         21   -1    0    0  502  501  0.00000000000E+00  0.00000000000E+00  0.12789753303E+03  0.12789753303E+03  0.00000000000E+00 0. -1.
         21   -1    0    0  501  502 -0.00000000000E+00 -0.00000000000E+00 -0.39998557568E+03  0.39998557568E+03  0.00000000000E+00 0. -1.
      99926    2    1    2    0    0  0.00000000000E+00  0.71054273576E-14 -0.27208804265E+03  0.52788310871E+03  0.45235900954E+03 0.  0.
      99925    2    3    3    0    0  0.92174222288E+02 -0.46393525047E+02 -0.21716718295E+03  0.35667488650E+03  0.26345197455E+03 0.  0.
         25    1    4    4    0    0  0.55078222069E+02 -0.19328863803E+01 -0.65008013720E+02  0.15136345842E+03  0.12509000000E+03 0.  0.
         25    1    3    3    0    0 -0.92174222288E+02  0.46393525047E+02 -0.54920859703E+02  0.17120822221E+03  0.12509000000E+03 0.  0.
         25    1    4    4    0    0  0.37096000218E+02 -0.44460638667E+02 -0.15215916923E+03  0.20531142809E+03  0.12509000000E+03 0.  0.
<mgrwt>
<rscale>  2 0.45235901E+03</rscale>
<asrwt>0</asrwt>
<pdfrwt beam="1">  1       21 0.18808461E-01 0.45235901E+03</pdfrwt>
<pdfrwt beam="2">  1       21 0.58821408E-01 0.45235901E+03</pdfrwt>
<totfact> 0.64693714E+04</totfact>
</mgrwt>
</event>
<event>
 7    0  0.4752811E-002  0.4564274E+03  0.7546771E-02  0.1025822E+00
         21   -1    0    0  502  501  0.00000000000E+00  0.00000000000E+00  0.28030825113E+03  0.28030825113E+03  0.00000000000E+00 0. -1.
         21   -1    0    0  501  502 -0.00000000000E+00 -0.00000000000E+00 -0.18580078012E+03  0.18580078012E+03  0.00000000000E+00 0. -1.
      99926    2    1    2    0    0 -0.71054273576E-14  0.00000000000E+00  0.94507471013E+02  0.46610903125E+03  0.45642739503E+03 0.  0.
      99925    2    3    3    0    0 -0.63236849454E+02 -0.46246248864E+02 -0.25925110365E+02  0.27561197242E+03  0.26296812228E+03 0.  0.
         25    1    4    4    0    0 -0.71952126241E+02 -0.34831934262E+02 -0.12112484362E+02  0.14894493107E+03  0.12509000000E+03 0.  0.
         25    1    3    3    0    0  0.63236849454E+02  0.46246248864E+02  0.12043258138E+03  0.19049705882E+03  0.12509000000E+03 0.  0.
         25    1    4    4    0    0  0.87152767872E+01 -0.11414314602E+02 -0.13812626002E+02  0.12666704135E+03  0.12509000000E+03 0.  0.
<mgrwt>
<rscale>  2 0.45642740E+03</rscale>
<asrwt>0</asrwt>
<pdfrwt beam="1">  1       21 0.41221802E-01 0.45642740E+03</pdfrwt>
<pdfrwt beam="2">  1       21 0.27323644E-01 0.45642740E+03</pdfrwt>
<totfact> 0.66964986E+04</totfact>
</mgrwt>
</event>
<event>
 7    0  0.4752811E-002  0.4516772E+03  0.7546771E-02  0.1027223E+00
         21   -1    0    0  502  501  0.00000000000E+00  0.00000000000E+00  0.63460412174E+02  0.63460412174E+02  0.00000000000E+00 0.  1.
         21   -1    0    0  501  502 -0.00000000000E+00 -0.00000000000E+00 -0.80369894907E+03  0.80369894907E+03  0.00000000000E+00 0.  1.
      99926    2    1    2    0    0  0.00000000000E+00 -0.71054273576E-14 -0.74023853689E+03  0.86715936124E+03  0.45167717043E+03 0.  0.
      99925    2    3    3    0    0  0.41283040332E+02  0.44097985043E+02 -0.64274784027E+03  0.69745118309E+03  0.26394022982E+03 0.  0.
         25    1    4    4    0    0  0.35872676511E+02 -0.35237253491E+00 -0.40115712198E+03  0.42173631300E+03  0.12509000000E+03 0.  0.
         25    1    3    3    0    0 -0.41283040332E+02 -0.44097985043E+02 -0.97490696627E+02  0.16970817816E+03  0.12509000000E+03 0.  0.
         25    1    4    4    0    0  0.54103638210E+01  0.44450357578E+02 -0.24159071828E+03  0.27571487008E+03  0.12509000000E+03 0.  0.
<mgrwt>
<rscale>  2 0.45167717E+03</rscale>
<asrwt>0</asrwt>
<pdfrwt beam="1">  1       21 0.93324137E-02 0.45167717E+03</pdfrwt>
<pdfrwt beam="2">  1       21 0.11819102E+00 0.45167717E+03</pdfrwt>
<totfact> 0.45864730E+04</totfact>
</mgrwt>
</event>
<event>
 7    0  0.4752811E-002  0.4512558E+03  0.7546771E-02  0.1027348E+00
         21   -1    0    0  502  501  0.00000000000E+00  0.00000000000E+00  0.24431311915E+03  0.24431311915E+03  0.00000000000E+00 0. -1.
         21   -1    0    0  501  502 -0.00000000000E+00 -0.00000000000E+00 -0.20837172428E+03  0.20837172428E+03  0.00000000000E+00 0. -1.
      99926    2    1    2    0    0 -0.35527136788E-14 -0.14210854715E-13  0.35941394876E+02  0.45268484343E+03  0.45125578512E+03 0.  0.
      99925    2    3    3    0    0  0.29451672767E+02  0.10106174917E+03 -0.80500501529E+01  0.28338146630E+03  0.26298169891E+03 0.  0.
         25    1    4    4    0    0  0.10010908293E+02  0.83191964631E+02 -0.30390341885E+02  0.15359753333E+03  0.12509000000E+03 0.  0.
         25    1    4    4    0    0  0.19440764474E+02  0.17869784534E+02  0.22340291732E+02  0.12978393297E+03  0.12509000000E+03 0.  0.
         25    1    3    3    0    0 -0.29451672767E+02 -0.10106174917E+03  0.43991445029E+02  0.16930337713E+03  0.12509000000E+03 0.  0.
<mgrwt>
<rscale>  2 0.45125579E+03</rscale>
<asrwt>0</asrwt>
<pdfrwt beam="1">  1       21 0.35928400E-01 0.45125579E+03</pdfrwt>
<pdfrwt beam="2">  1       21 0.30642900E-01 0.45125579E+03</pdfrwt>
<totfact> 0.70807543E+04</totfact>
</mgrwt>
</event>
<event>
 7    0  0.4752811E-002  0.4505158E+03  0.7546771E-02  0.1027568E+00
         21   -1    0    0  502  501  0.00000000000E+00  0.00000000000E+00  0.14243640410E+03  0.14243640410E+03  0.00000000000E+00 0.  1.
         21   -1    0    0  501  502 -0.00000000000E+00 -0.00000000000E+00 -0.35623704842E+03  0.35623704842E+03  0.00000000000E+00 0.  1.
      99926    2    1    2    0    0  0.71054273576E-14  0.00000000000E+00 -0.21380064432E+03  0.49867345252E+03  0.45051581186E+03 0.  0.
      99925    2    3    3    0    0 -0.50937709474E+02 -0.72586129725E+02 -0.20512392852E+03  0.34509549196E+03  0.26296706266E+03 0.  0.
         25    1    3    3    0    0  0.50937709474E+02  0.72586129725E+02 -0.86767158063E+01  0.15357796057E+03  0.12509000000E+03 0.  0.
         25    1    4    4    0    0 -0.26344540056E+02 -0.65579901746E+02 -0.72235940136E+02  0.16081137227E+03  0.12509000000E+03 0.  0.
         25    1    4    4    0    0 -0.24593169418E+02 -0.70062279790E+01 -0.13288798838E+03  0.18428411969E+03  0.12509000000E+03 0.  0.
<mgrwt>
<rscale>  2 0.45051581E+03</rscale>
<asrwt>0</asrwt>
<pdfrwt beam="1">  1       21 0.20946530E-01 0.45051581E+03</pdfrwt>
<pdfrwt beam="2">  1       21 0.52387801E-01 0.45051581E+03</pdfrwt>
<totfact> 0.67743354E+04</totfact>
</mgrwt>
</event>
<event>
 7    0  0.4752811E-002  0.4604794E+03  0.7546771E-02  0.1024642E+00
         21   -1    0    0  502  501  0.00000000000E+00  0.00000000000E+00  0.23111931055E+02  0.23111931055E+02  0.00000000000E+00 0.  1.
         21   -1    0    0  501  502 -0.00000000000E+00 -0.00000000000E+00 -0.22936342570E+04  0.22936342570E+04  0.00000000000E+00 0.  1.
      99926    2    1    2    0    0  0.71054273576E-14  0.14210854715E-13 -0.22705223259E+04  0.23167461880E+04  0.46047938852E+03 0.  0.
      99925    2    3    3    0    0 -0.32356235937E+02 -0.86678482197E+02 -0.10510541372E+04  0.10873925950E+04  0.26295963772E+03 0.  0.
         25    1    4    4    0    0  0.15203836974E+02 -0.39016825944E+02 -0.60699887387E+03  0.62116713560E+03  0.12509000000E+03 0.  0.
         25    1    3    3    0    0  0.32356235937E+02  0.86678482197E+02 -0.12194681887E+04  0.12293535930E+04  0.12509000000E+03 0.  0.
         25    1    4    4    0    0 -0.47560072911E+02 -0.47661656252E+02 -0.44405526334E+03  0.46622545942E+03  0.12509000000E+03 0.  0.
<mgrwt>
<rscale>  2 0.46047939E+03</rscale>
<asrwt>0</asrwt>
<pdfrwt beam="1">  1       21 0.33988152E-02 0.46047939E+03</pdfrwt>
<pdfrwt beam="2">  1       21 0.33729898E+00 0.46047939E+03</pdfrwt>
<totfact> 0.88123243E+03</totfact>
</mgrwt>
</event>
<event>
 7    0  0.4752811E-002  0.4442644E+03  0.7546771E-02  0.1029446E+00
         21   -1    0    0  502  501  0.00000000000E+00  0.00000000000E+00  0.59752509915E+03  0.59752509915E+03  0.00000000000E+00 0.  1.
         21   -1    0    0  501  502 -0.00000000000E+00 -0.00000000000E+00 -0.82578486500E+02  0.82578486500E+02  0.00000000000E+00 0.  1.
      99926    2    1    2    0    0 -0.35527136788E-14  0.00000000000E+00  0.51494661265E+03  0.68010358565E+03  0.44426441826E+03 0.  0.
      99925    2    3    3    0    0 -0.19727994372E+02  0.33455952883E+02  0.18176966138E+03  0.32210514500E+03  0.26306466904E+03 0.  0.
         25    1    3    3    0    0  0.19727994372E+02 -0.33455952883E+02  0.33317695127E+03  0.35799844065E+03  0.12509000000E+03 0.  0.
         25    1    4    4    0    0 -0.20764851513E+02  0.53141004320E+02  0.75899359000E+02  0.15704574555E+03  0.12509000000E+03 0.  0.
         25    1    4    4    0    0  0.10368571413E+01 -0.19685051438E+02  0.10587030238E+03  0.16505939945E+03  0.12509000000E+03 0.  0.
<mgrwt>
<rscale>  2 0.44426442E+03</rscale>
<asrwt>0</asrwt>
<pdfrwt beam="1">  1       21 0.87871336E-01 0.44426442E+03</pdfrwt>
<pdfrwt beam="2">  1       21 0.12143895E-01 0.44426442E+03</pdfrwt>
<totfact> 0.58813066E+04</totfact>
</mgrwt>
</event>
<event>
 7    0  0.4752811E-002  0.4801798E+03  0.7546771E-02  0.1019086E+00
         21   -1    0    0  502  501  0.00000000000E+00  0.00000000000E+00  0.40949573302E+03  0.40949573302E+03  0.00000000000E+00 0.  1.
         21   -1    0    0  501  502 -0.00000000000E+00 -0.00000000000E+00 -0.14076620987E+03  0.14076620987E+03  0.00000000000E+00 0.  1.
      99926    2    1    2    0    0  0.00000000000E+00  0.00000000000E+00  0.26872952314E+03  0.55026194289E+03  0.48017980922E+03 0.  0.
      99925    2    3    3    0    0 -0.68803405138E+02  0.11660349512E+03  0.15924044412E+03  0.33586593043E+03  0.26290325321E+03 0.  0.
         25    1    3    3    0    0  0.68803405138E+02 -0.11660349512E+03  0.10948907902E+03  0.21439601246E+03  0.12509000000E+03 0.  0.
         25    1    4    4    0    0 -0.50864529832E+02  0.22718902352E+02  0.58109377709E+02  0.14875334214E+03  0.12509000000E+03 0.  0.
         25    1    4    4    0    0 -0.17938875306E+02  0.93884592766E+02  0.10113106641E+03  0.18711258830E+03  0.12509000000E+03 0.  0.
<mgrwt>
<rscale>  2 0.48017981E+03</rscale>
<asrwt>0</asrwt>
<pdfrwt beam="1">  1       21 0.60219961E-01 0.48017981E+03</pdfrwt>
<pdfrwt beam="2">  1       21 0.20700913E-01 0.48017981E+03</pdfrwt>
<totfact> 0.50911824E+04</totfact>
</mgrwt>
</event>
<event>
 7    0  0.4752811E-002  0.4577261E+03  0.7546771E-02  0.1025443E+00
         21   -1    0    0  502  501  0.00000000000E+00  0.00000000000E+00  0.96558433722E+03  0.96558433722E+03  0.00000000000E+00 0. -1.
         21   -1    0    0  501  502 -0.00000000000E+00 -0.00000000000E+00 -0.54245183093E+02  0.54245183093E+02  0.00000000000E+00 0. -1.
      99926    2    1    2    0    0  0.00000000000E+00  0.00000000000E+00  0.91133915413E+03  0.10198295203E+04  0.45772611533E+03 0.  0.
      99925    2    3    3    0    0  0.85537373709E+02 -0.32842431189E+02  0.72939065336E+03  0.78077297341E+03  0.26305977117E+03 0.  0.
         25    1    4    4    0    0  0.51812671188E+02 -0.42395482860E+02  0.29449775574E+03  0.32689197925E+03  0.12509000000E+03 0.  0.
         25    1    3    3    0    0 -0.85537373709E+02  0.32842431189E+02  0.18194850077E+03  0.23905654691E+03  0.12509000000E+03 0.  0.
         25    1    4    4    0    0  0.33724702521E+02  0.95530516708E+01  0.43489289762E+03  0.45388099416E+03  0.12509000000E+03 0.  0.
<mgrwt>
<rscale>  2 0.45772612E+03</rscale>
<asrwt>0</asrwt>
<pdfrwt beam="1">  1       21 0.14199769E+00 0.45772612E+03</pdfrwt>
<pdfrwt beam="2">  1       21 0.79772334E-02 0.45772612E+03</pdfrwt>
<totfact> 0.37597592E+04</totfact>
</mgrwt>
</event>
<event>
 7    0  0.4752811E-002  0.4567962E+03  0.7546771E-02  0.1025715E+00
         21   -1    0    0  502  501  0.00000000000E+00  0.00000000000E+00  0.58324604109E+02  0.58324604109E+02  0.00000000000E+00 0.  1.
         21   -1    0    0  501  502 -0.00000000000E+00 -0.00000000000E+00 -0.89440265391E+03  0.89440265391E+03  0.00000000000E+00 0.  1.
      99926    2    1    2    0    0  0.14210854715E-13  0.00000000000E+00 -0.83607804980E+03  0.95272725802E+03  0.45679615017E+03 0.  0.
      99925    2    3    3    0    0  0.85396558158E+02  0.69393582261E+02 -0.59414912802E+03  0.65898391307E+03  0.26294214185E+03 0.  0.
         25    1    4    4    0    0  0.32221387455E+02 -0.34908972674E+01 -0.30573255031E+03  0.33191912358E+03  0.12509000000E+03 0.  0.
         25    1    3    3    0    0 -0.85396558158E+02 -0.69393582261E+02 -0.24192892178E+03  0.29374334495E+03  0.12509000000E+03 0.  0.
         25    1    4    4    0    0  0.53175170703E+02  0.72884479528E+02 -0.28841657770E+03  0.32706478950E+03  0.12509000000E+03 0.  0.
<mgrwt>
<rscale>  2 0.45679615E+03</rscale>
<asrwt>0</asrwt>
<pdfrwt beam="1">  1       21 0.85771484E-02 0.45679615E+03</pdfrwt>
<pdfrwt beam="2">  1       21 0.13152979E+00 0.45679615E+03</pdfrwt>
<totfact> 0.40459327E+04</totfact>
</mgrwt>
</event>
<event>
 7    0  0.4752811E-002  0.4023283E+03  0.7546771E-02  0.1042976E+00
         21   -1    0    0  502  501  0.00000000000E+00  0.00000000000E+00  0.86316235921E+02  0.86316235921E+02  0.00000000000E+00 0.  1.
         21   -1    0    0  501  502 -0.00000000000E+00 -0.00000000000E+00 -0.46882266611E+03  0.46882266611E+03  0.00000000000E+00 0.  1.
      99926    2    1    2    0    0  0.17763568394E-14  0.00000000000E+00 -0.38250643019E+03  0.55513890203E+03  0.40232826325E+03 0.  0.
      99925    2    3    3    0    0 -0.79667584727E+01 -0.49717465722E+02 -0.25506766552E+03  0.36960334620E+03  0.26270101615E+03 0.  0.
         25    1    3    3    0    0  0.79667584727E+01  0.49717465722E+02 -0.12743876467E+03  0.18553555584E+03  0.12509000000E+03 0.  0.
         25    1    4    4    0    0 -0.30125382280E+02 -0.55540476994E+02 -0.12713339752E+03  0.18921599326E+03  0.12509000000E+03 0.  0.
         25    1    4    4    0    0  0.22158623807E+02  0.58230112720E+01 -0.12793426800E+03  0.18038735293E+03  0.12509000000E+03 0.  0.
<mgrwt>
<rscale>  2 0.40232826E+03</rscale>
<asrwt>0</asrwt>
<pdfrwt beam="1">  1       21 0.12693564E-01 0.40232826E+03</pdfrwt>
<pdfrwt beam="2">  1       21 0.68944511E-01 0.40232826E+03</pdfrwt>
<totfact> 0.95532860E+04</totfact>
</mgrwt>
</event>
<event>
 7    0  0.4752811E-002  0.4558077E+03  0.7546771E-02  0.1026004E+00
         21   -1    0    0  502  501  0.00000000000E+00  0.00000000000E+00  0.63903771102E+03  0.63903771102E+03  0.00000000000E+00 0.  1.
         21   -1    0    0  501  502 -0.00000000000E+00 -0.00000000000E+00 -0.81278698845E+02  0.81278698845E+02  0.00000000000E+00 0.  1.
      99926    2    1    2    0    0  0.14210854715E-13 -0.35527136788E-14  0.55775901218E+03  0.72031640987E+03  0.45580765094E+03 0.  0.
      99925    2    3    3    0    0 -0.93088369605E+02  0.29261376396E+02  0.44359718162E+03  0.52486282366E+03  0.26302253024E+03 0.  0.
         25    1    4    4    0    0 -0.37357914081E+02  0.26794930151E+02  0.14852077393E+03  0.19954826588E+03  0.12509000000E+03 0.  0.
         25    1    3    3    0    0  0.93088369605E+02 -0.29261376396E+02  0.11416183056E+03  0.19545358620E+03  0.12509000000E+03 0.  0.
         25    1    4    4    0    0 -0.55730455524E+02  0.24664462454E+01  0.29507640769E+03  0.32531455779E+03  0.12509000000E+03 0.  0.
<mgrwt>
<rscale>  2 0.45580765E+03</rscale>
<asrwt>0</asrwt>
<pdfrwt beam="1">  1       21 0.93976132E-01 0.45580765E+03</pdfrwt>
<pdfrwt beam="2">  1       21 0.11952750E-01 0.45580765E+03</pdfrwt>
<totfact> 0.51485942E+04</totfact>
</mgrwt>
</event>
<event>
 7    0  0.4752811E-002  0.4578254E+03  0.7546771E-02  0.1025414E+00
         21   -1    0    0  502  501  0.00000000000E+00  0.00000000000E+00  0.48105554347E+03  0.48105554347E+03  0.00000000000E+00 0.  1.
         21   -1    0    0  501  502 -0.00000000000E+00 -0.00000000000E+00 -0.10892927741E+03  0.10892927741E+03  0.00000000000E+00 0.  1.
      99926    2    1    2    0    0  0.71054273576E-14  0.14210854715E-13  0.37212626606E+03  0.58998482088E+03  0.45782543722E+03 0.  0.
      99925    2    3    3    0    0 -0.34480151780E+02 -0.11015917376E+03  0.23803128123E+03  0.37329864807E+03  0.26338007778E+03 0.  0.
         25    1    4    4    0    0 -0.26314741702E+02 -0.16928051812E+02  0.83887620372E+02  0.15382998902E+03  0.12509000000E+03 0.  0.
         25    1    3    3    0    0  0.34480151780E+02  0.11015917376E+03  0.13409498483E+03  0.21668617281E+03  0.12509000000E+03 0.  0.
         25    1    4    4    0    0 -0.81654100784E+01 -0.93231121949E+02  0.15414366086E+03  0.21946865905E+03  0.12509000000E+03 0.  0.
<mgrwt>
<rscale>  2 0.45782544E+03</rscale>
<asrwt>0</asrwt>
<pdfrwt beam="1">  1       21 0.70743462E-01 0.45782544E+03</pdfrwt>
<pdfrwt beam="2">  1       21 0.16019011E-01 0.45782544E+03</pdfrwt>
<totfact> 0.57993056E+04</totfact>
</mgrwt>
</event>
<event>
 7    0  0.4752811E-002  0.4574351E+03  0.7546771E-02  0.1025528E+00
         21   -1    0    0  502  501  0.00000000000E+00  0.00000000000E+00  0.42452411270E+02  0.42452411270E+02  0.00000000000E+00 0.  1.
         21   -1    0    0  501  502 -0.00000000000E+00 -0.00000000000E+00 -0.12322434700E+04  0.12322434700E+04  0.00000000000E+00 0.  1.
      99926    2    1    2    0    0  0.00000000000E+00  0.00000000000E+00 -0.11897910588E+04  0.12746958813E+04  0.45743505145E+03 0.  0.
      99925    2    3    3    0    0 -0.44948483627E+02  0.93687262620E+02 -0.60646327398E+03  0.66912467826E+03  0.26293052887E+03 0.  0.
         25    1    4    4    0    0 -0.38818230945E+02  0.50881491865E+02 -0.22414873170E+03  0.26454856509E+03  0.12509000000E+03 0.  0.
         25    1    3    3    0    0  0.44948483627E+02 -0.93687262620E+02 -0.58332778479E+03  0.60557120305E+03  0.12509000000E+03 0.  0.
         25    1    4    4    0    0 -0.61302526824E+01  0.42805770755E+02 -0.38231454228E+03  0.40457611317E+03  0.12509000000E+03 0.  0.
<mgrwt>
<rscale>  2 0.45743505E+03</rscale>
<asrwt>0</asrwt>
<pdfrwt beam="1">  1       21 0.62430023E-02 0.45743505E+03</pdfrwt>
<pdfrwt beam="2">  1       21 0.18121226E+00 0.45743505E+03</pdfrwt>
<totfact> 0.29299365E+04</totfact>
</mgrwt>
</event>
<event>
 7    0  0.4752811E-002  0.4586549E+03  0.7546771E-02  0.1025172E+00
         21   -1    0    0  502  501  0.00000000000E+00  0.00000000000E+00  0.13688856509E+03  0.13688856509E+03  0.00000000000E+00 0.  1.
         21   -1    0    0  501  502 -0.00000000000E+00 -0.00000000000E+00 -0.38418892465E+03  0.38418892465E+03  0.00000000000E+00 0.  1.
      99926    2    1    2    0    0 -0.71054273576E-14 -0.14210854715E-13 -0.24730035956E+03  0.52107748975E+03  0.45865486205E+03 0.  0.
      99925    2    3    3    0    0 -0.53824593115E+02 -0.85985865613E+02 -0.89564608857E+02  0.29564738736E+03  0.26285909264E+03 0.  0.
         25    1    4    4    0    0 -0.13636777893E+02 -0.68202448267E+02 -0.15990755018E+02  0.14401648519E+03  0.12509000000E+03 0.  0.
         25    1    4    4    0    0 -0.40187815222E+02 -0.17783417346E+02 -0.73573853839E+02  0.15163090217E+03  0.12509000000E+03 0.  0.
         25    1    3    3    0    0  0.53824593115E+02  0.85985865613E+02 -0.15773575071E+03  0.22543010238E+03  0.12509000000E+03 0.  0.
<mgrwt>
<rscale>  2 0.45865486E+03</rscale>
<asrwt>0</asrwt>
<pdfrwt beam="1">  1       21 0.20130672E-01 0.45865486E+03</pdfrwt>
<pdfrwt beam="2">  1       21 0.56498370E-01 0.45865486E+03</pdfrwt>
<totfact> 0.61996543E+04</totfact>
</mgrwt>
</event>
<event>
 7    0  0.4752811E-002  0.4574373E+03  0.7546771E-02  0.1025527E+00
         21   -1    0    0  502  501  0.00000000000E+00  0.00000000000E+00  0.19095950795E+04  0.19095950795E+04  0.00000000000E+00 0.  1.
         21   -1    0    0  501  502 -0.00000000000E+00 -0.00000000000E+00 -0.27394404601E+02  0.27394404601E+02  0.00000000000E+00 0.  1.
      99926    2    1    2    0    0 -0.14210854715E-13  0.00000000000E+00  0.18822006749E+04  0.19369894841E+04  0.45743729726E+03 0.  0.
      99925    2    3    3    0    0 -0.97413986387E+02 -0.25156648659E+02  0.94162018412E+03  0.98280841667E+03  0.26294765832E+03 0.  0.
         25    1    4    4    0    0 -0.50526663198E+02 -0.86461452803E+01  0.61220855018E+03  0.62695655075E+03  0.12509000000E+03 0.  0.
         25    1    3    3    0    0  0.97413986387E+02  0.25156648659E+02  0.94058049079E+03  0.95418106744E+03  0.12509000000E+03 0.  0.
         25    1    4    4    0    0 -0.46887323188E+02 -0.16510503378E+02  0.32941163394E+03  0.35585186591E+03  0.12509000000E+03 0.  0.
<mgrwt>
<rscale>  2 0.45743730E+03</rscale>
<asrwt>0</asrwt>
<pdfrwt beam="1">  1       21 0.28082272E+00 0.45743730E+03</pdfrwt>
<pdfrwt beam="2">  1       21 0.40285902E-02 0.45743730E+03</pdfrwt>
<totfact> 0.14489982E+04</totfact>
</mgrwt>
</event>
<event>
 7    0  0.4752811E-002  0.4160221E+03  0.7546771E-02  0.1038369E+00
         21   -1    0    0  502  501  0.00000000000E+00  0.00000000000E+00  0.66097181826E+03  0.66097181826E+03  0.00000000000E+00 0.  1.
         21   -1    0    0  501  502 -0.00000000000E+00 -0.00000000000E+00 -0.65462099507E+02  0.65462099507E+02  0.00000000000E+00 0.  1.
      99926    2    1    2    0    0 -0.71054273576E-14  0.71054273576E-14  0.59550971876E+03  0.72643391777E+03  0.41602212892E+03 0.  0.
      99925    2    3    3    0    0 -0.34281378775E+02  0.41899812468E+02  0.46914465339E+03  0.54056717771E+03  0.26303110196E+03 0.  0.
         25    1    3    3    0    0  0.34281378775E+02 -0.41899812468E+02  0.12636506536E+03  0.18586674006E+03  0.12509000000E+03 0.  0.
         25    1    4    4    0    0  0.14098375592E+02  0.30219068970E+02  0.27917116431E+03  0.30772715740E+03  0.12509000000E+03 0.  0.
         25    1    4    4    0    0 -0.48379754367E+02  0.11680743498E+02  0.18997348909E+03  0.23284002031E+03  0.12509000000E+03 0.  0.
<mgrwt>
<rscale>  2 0.41602213E+03</rscale>
<asrwt>0</asrwt>
<pdfrwt beam="1">  1       21 0.97201734E-01 0.41602213E+03</pdfrwt>
<pdfrwt beam="2">  1       21 0.96267798E-02 0.41602213E+03</pdfrwt>
<totfact> 0.70832701E+04</totfact>
</mgrwt>
</event>
<event>
 7    0  0.4752811E-002  0.4501701E+03  0.7546771E-02  0.1027671E+00
         21   -1    0    0  502  501  0.00000000000E+00  0.00000000000E+00  0.87053250305E+02  0.87053250305E+02  0.00000000000E+00 0. -1.
         21   -1    0    0  501  502 -0.00000000000E+00 -0.00000000000E+00 -0.58198040727E+03  0.58198040727E+03  0.00000000000E+00 0. -1.
      99926    2    1    2    0    0 -0.71054273576E-14  0.00000000000E+00 -0.49492715697E+03  0.66903365758E+03  0.45017012814E+03 0.  0.
      99925    2    3    3    0    0  0.52682555790E+02 -0.97358198201E+01 -0.17265845583E+03  0.31921247225E+03  0.26308824032E+03 0.  0.
         25    1    3    3    0    0 -0.52682555790E+02  0.97358198201E+01 -0.32226870114E+03  0.34982118533E+03  0.12509000000E+03 0.  0.
         25    1    4    4    0    0  0.59666133643E+02 -0.21963797385E+02 -0.11168927786E+03  0.17934452539E+03  0.12509000000E+03 0.  0.
         25    1    4    4    0    0 -0.69835778530E+01  0.12227977565E+02 -0.60969177970E+02  0.13986794685E+03  0.12509000000E+03 0.  0.
<mgrwt>
<rscale>  2 0.45017013E+03</rscale>
<asrwt>0</asrwt>
<pdfrwt beam="1">  1       21 0.12801948E-01 0.45017013E+03</pdfrwt>
<pdfrwt beam="2">  1       21 0.85585356E-01 0.45017013E+03</pdfrwt>
<totfact> 0.56745968E+04</totfact>
</mgrwt>
</event>
<event>
 7    0  0.4752811E-002  0.4577053E+03  0.7546771E-02  0.1025449E+00
         21   -1    0    0  502  501  0.00000000000E+00  0.00000000000E+00  0.45439384710E+02  0.45439384710E+02  0.00000000000E+00 0.  1.
         21   -1    0    0  501  502 -0.00000000000E+00 -0.00000000000E+00 -0.11526024257E+04  0.11526024257E+04  0.00000000000E+00 0.  1.
      99926    2    1    2    0    0  0.00000000000E+00 -0.71054273576E-14 -0.11071630410E+04  0.11980418104E+04  0.45770534206E+03 0.  0.
      99925    2    3    3    0    0  0.15011337608E+02  0.37474233542E+02 -0.41094833798E+03  0.48952781674E+03  0.26292449189E+03 0.  0.
         25    1    4    4    0    0  0.15656512820E+02  0.55629371332E+02 -0.24268468792E+03  0.27907547223E+03  0.12509000000E+03 0.  0.
         25    1    3    3    0    0 -0.15011337608E+02 -0.37474233542E+02 -0.69621470299E+03  0.70851399364E+03  0.12509000000E+03 0.  0.
         25    1    4    4    0    0 -0.64517521207E+00 -0.18155137790E+02 -0.16826365006E+03  0.21045234451E+03  0.12509000000E+03 0.  0.
<mgrwt>
<rscale>  2 0.45770534E+03</rscale>
<asrwt>0</asrwt>
<pdfrwt beam="1">  1       21 0.66822624E-02 0.45770534E+03</pdfrwt>
<pdfrwt beam="2">  1       21 0.16950036E+00 0.45770534E+03</pdfrwt>
<totfact> 0.31547936E+04</totfact>
</mgrwt>
</event>
<event>
 7    0  0.4752811E-002  0.4589436E+03  0.7546771E-02  0.1025088E+00
         21   -1    0    0  502  501  0.00000000000E+00  0.00000000000E+00  0.15501457029E+04  0.15501457029E+04  0.00000000000E+00 0.  1.
         21   -1    0    0  501  502 -0.00000000000E+00 -0.00000000000E+00 -0.33969258604E+02  0.33969258604E+02  0.00000000000E+00 0.  1.
      99926    2    1    2    0    0  0.00000000000E+00 -0.14210854715E-13  0.15161764443E+04  0.15841149615E+04  0.45894357062E+03 0.  0.
      99925    2    3    3    0    0 -0.65798032778E+02 -0.82812323524E+02  0.78598899587E+03  0.83577781824E+03  0.26373964016E+03 0.  0.
         25    1    4    4    0    0 -0.44828463838E+02 -0.79958973805E+02  0.37997293625E+03  0.41040220400E+03  0.12509000000E+03 0.  0.
         25    1    4    4    0    0 -0.20969568940E+02 -0.28533497186E+01  0.40601605962E+03  0.42537561425E+03  0.12509000000E+03 0.  0.
         25    1    3    3    0    0  0.65798032778E+02  0.82812323524E+02  0.73018744841E+03  0.74833714324E+03  0.12509000000E+03 0.  0.
<mgrwt>
<rscale>  2 0.45894357E+03</rscale>
<asrwt>0</asrwt>
<pdfrwt beam="1">  1       21 0.22796256E+00 0.45894357E+03</pdfrwt>
<pdfrwt beam="2">  1       21 0.49954803E-02 0.45894357E+03</pdfrwt>
<totfact> 0.21136044E+04</totfact>
</mgrwt>
</event>
<event>
 7    0  0.4752811E-002  0.4508888E+03  0.7546771E-02  0.1027457E+00
         21   -1    0    0  502  501  0.00000000000E+00  0.00000000000E+00  0.53319611513E+03  0.53319611513E+03  0.00000000000E+00 0.  1.
         21   -1    0    0  501  502 -0.00000000000E+00 -0.00000000000E+00 -0.95321734049E+02  0.95321734049E+02  0.00000000000E+00 0.  1.
      99926    2    1    2    0    0  0.00000000000E+00 -0.35527136788E-14  0.43787438108E+03  0.62851784918E+03  0.45088880351E+03 0.  0.
      99925    2    3    3    0    0  0.24737876552E+02 -0.31481549240E+02  0.13481397962E+03  0.29822076243E+03  0.26297863709E+03 0.  0.
         25    1    3    3    0    0 -0.24737876552E+02  0.31481549240E+02  0.30306040146E+03  0.33029708675E+03  0.12509000000E+03 0.  0.
         25    1    4    4    0    0  0.25176371589E+02  0.30240008883E+01  0.29251699220E+02  0.13094336285E+03  0.12509000000E+03 0.  0.
         25    1    4    4    0    0 -0.43849503672E+00 -0.34505550128E+02  0.10556228040E+03  0.16727739958E+03  0.12509000000E+03 0.  0.
<mgrwt>
<rscale>  2 0.45088880E+03</rscale>
<asrwt>0</asrwt>
<pdfrwt beam="1">  1       21 0.78411192E-01 0.45088880E+03</pdfrwt>
<pdfrwt beam="2">  1       21 0.14017902E-01 0.45088880E+03</pdfrwt>
<totfact> 0.58842973E+04</totfact>
</mgrwt>
</event>
<event>
 7    0  0.4752811E-002  0.4552759E+03  0.7546771E-02  0.1026160E+00
         21   -1    0    0  502  501  0.00000000000E+00  0.00000000000E+00  0.27226932218E+03  0.27226932218E+03  0.00000000000E+00 0. -1.
         21   -1    0    0  501  502 -0.00000000000E+00 -0.00000000000E+00 -0.19032274326E+03  0.19032274326E+03  0.00000000000E+00 0. -1.
      99926    2    1    2    0    0  0.00000000000E+00  0.35527136788E-14  0.81946578922E+02  0.46259206544E+03  0.45527593524E+03 0.  0.
      99925    2    3    3    0    0  0.58533868564E+02  0.26421867748E+02  0.14622115747E+03  0.30798592581E+03  0.26334459315E+03 0.  0.
         25    1    4    4    0    0  0.23951428706E+02  0.38601677000E+02  0.11009486801E+03  0.17271985545E+03  0.12509000000E+03 0.  0.
         25    1    3    3    0    0 -0.58533868564E+02 -0.26421867748E+02 -0.64274578544E+02  0.15460613963E+03  0.12509000000E+03 0.  0.
         25    1    4    4    0    0  0.34582439858E+02 -0.12179809252E+02  0.36126289455E+02  0.13526607036E+03  0.12509000000E+03 0.  0.
<mgrwt>
<rscale>  2 0.45527594E+03</rscale>
<asrwt>0</asrwt>
<pdfrwt beam="1">  1       21 0.40039607E-01 0.45527594E+03</pdfrwt>
<pdfrwt beam="2">  1       21 0.27988638E-01 0.45527594E+03</pdfrwt>
<totfact> 0.67840311E+04</totfact>
</mgrwt>
</event>
<event>
 7    0  0.4752811E-002  0.4488817E+03  0.7546771E-02  0.1028056E+00
         21   -1    0    0  502  501  0.00000000000E+00  0.00000000000E+00  0.29859675450E+03  0.29859675450E+03  0.00000000000E+00 0.  1.
         21   -1    0    0  501  502 -0.00000000000E+00 -0.00000000000E+00 -0.16870142545E+03  0.16870142545E+03  0.00000000000E+00 0.  1.
      99926    2    1    2    0    0  0.00000000000E+00  0.00000000000E+00  0.12989532906E+03  0.46729817995E+03  0.44888171323E+03 0.  0.
      99925    2    3    3    0    0  0.12997364893E+02  0.81767174802E+02  0.15334534395E+03  0.31546862529E+03  0.26296550470E+03 0.  0.
         25    1    3    3    0    0 -0.12997364893E+02 -0.81767174802E+02 -0.23450014890E+02  0.15182955466E+03  0.12509000000E+03 0.  0.
         25    1    4    4    0    0  0.28626029826E+02  0.32582515848E+02  0.11355266577E+03  0.17442128863E+03  0.12509000000E+03 0.  0.
         25    1    4    4    0    0 -0.15628664932E+02  0.49184658954E+02  0.39792678176E+02  0.14104733667E+03  0.12509000000E+03 0.  0.
<mgrwt>
<rscale>  2 0.44888171E+03</rscale>
<asrwt>0</asrwt>
<pdfrwt beam="1">  1       21 0.43911288E-01 0.44888171E+03</pdfrwt>
<pdfrwt beam="2">  1       21 0.24809033E-01 0.44888171E+03</pdfrwt>
<totfact> 0.71022557E+04</totfact>
</mgrwt>
</event>
<event>
 7    0  0.4752811E-002  0.4544323E+03  0.7546771E-02  0.1026408E+00
         21   -1    0    0  502  501  0.00000000000E+00  0.00000000000E+00  0.23325228978E+04  0.23325228978E+04  0.00000000000E+00 0. -1.
         21   -1    0    0  501  502 -0.00000000000E+00 -0.00000000000E+00 -0.22133623183E+02  0.22133623183E+02  0.00000000000E+00 0. -1.
      99926    2    1    2    0    0  0.00000000000E+00  0.00000000000E+00  0.23103892746E+04  0.23546565210E+04  0.45443231789E+03 0.  0.
      99925    2    3    3    0    0 -0.52873444749E+02  0.97065444777E+02  0.15692463516E+04  0.15949476016E+04  0.26288103422E+03 0.  0.
         25    1    3    3    0    0  0.52873444749E+02 -0.97065444777E+02  0.74114292299E+03  0.75970891934E+03  0.12509000000E+03 0.  0.
         25    1    4    4    0    0 -0.65837444327E+02  0.63777258649E+02  0.84988206978E+03  0.86391501228E+03  0.12509000000E+03 0.  0.
         25    1    4    4    0    0  0.12963999578E+02  0.33288186128E+02  0.71936428184E+03  0.73103258937E+03  0.12509000000E+03 0.  0.
<mgrwt>
<rscale>  2 0.45443232E+03</rscale>
<asrwt>0</asrwt>
<pdfrwt beam="1">  1       21 0.34301790E+00 0.45443232E+03</pdfrwt>
<pdfrwt beam="2">  1       21 0.32549462E-02 0.45443232E+03</pdfrwt>
<totfact> 0.87742501E+03</totfact>
</mgrwt>
</event>
<event>
 7    0  0.4752811E-002  0.4619956E+03  0.7546771E-02  0.1024204E+00
         21   -1    0    0  502  501  0.00000000000E+00  0.00000000000E+00  0.44741298055E+03  0.44741298055E+03  0.00000000000E+00 0. -1.
         21   -1    0    0  501  502 -0.00000000000E+00 -0.00000000000E+00 -0.11926337299E+03  0.11926337299E+03  0.00000000000E+00 0. -1.
      99926    2    1    2    0    0  0.00000000000E+00 -0.71054273576E-14  0.32814960756E+03  0.56667635354E+03  0.46199558950E+03 0.  0.
      99925    2    3    3    0    0  0.10985173128E+03 -0.43969274223E+02  0.22700084655E+03  0.36697838185E+03  0.26295065787E+03 0.  0.
         25    1    3    3    0    0 -0.10985173128E+03  0.43969274223E+02  0.10114876102E+03  0.19969797169E+03  0.12509000000E+03 0.  0.
         25    1    4    4    0    0  0.21869145982E+02  0.45072499865E+01  0.11436816531E+03  0.17095660322E+03  0.12509000000E+03 0.  0.
         25    1    4    4    0    0  0.87982585298E+02 -0.48476524210E+02  0.11263268124E+03  0.19602177863E+03  0.12509000000E+03 0.  0.
<mgrwt>
<rscale>  2 0.46199559E+03</rscale>
<asrwt>0</asrwt>
<pdfrwt beam="1">  1       21 0.65796026E-01 0.46199559E+03</pdfrwt>
<pdfrwt beam="2">  1       21 0.17538731E-01 0.46199559E+03</pdfrwt>
<totfact> 0.57528310E+04</totfact>
</mgrwt>
</event>
<event>
 7    0  0.4752811E-002  0.4509169E+03  0.7546771E-02  0.1027449E+00
         21   -1    0    0  502  501  0.00000000000E+00  0.00000000000E+00  0.65029617938E+03  0.65029617938E+03  0.00000000000E+00 0. -1.
         21   -1    0    0  501  502 -0.00000000000E+00 -0.00000000000E+00 -0.78166692489E+02  0.78166692489E+02  0.00000000000E+00 0. -1.
      99926    2    1    2    0    0  0.00000000000E+00  0.14210854715E-13  0.57212948689E+03  0.72846287187E+03  0.45091685034E+03 0.  0.
      99925    2    3    3    0    0 -0.15696089408E+02 -0.10727100906E+03  0.33842592881E+03  0.44207450310E+03  0.26295307641E+03 0.  0.
         25    1    4    4    0    0 -0.28479798970E+02 -0.16663579493E+02  0.15888095751E+03  0.20488884935E+03  0.12509000000E+03 0.  0.
         25    1    3    3    0    0  0.15696089408E+02  0.10727100906E+03  0.23370355809E+03  0.28638836877E+03  0.12509000000E+03 0.  0.
         25    1    4    4    0    0  0.12783709562E+02 -0.90607429566E+02  0.17954497130E+03  0.23718565375E+03  0.12509000000E+03 0.  0.
<mgrwt>
<rscale>  2 0.45091685E+03</rscale>
<asrwt>0</asrwt>
<pdfrwt beam="1">  1       21 0.95631788E-01 0.45091685E+03</pdfrwt>
<pdfrwt beam="2">  1       21 0.11495102E-01 0.45091685E+03</pdfrwt>
<totfact> 0.53068296E+04</totfact>
</mgrwt>
</event>
<event>
 7    0  0.4752811E-002  0.4551142E+03  0.7546771E-02  0.1026208E+00
         21   -1    0    0  502  501  0.00000000000E+00  0.00000000000E+00  0.89653946470E+03  0.89653946470E+03  0.00000000000E+00 0. -1.
         21   -1    0    0  501  502 -0.00000000000E+00 -0.00000000000E+00 -0.57757903507E+02  0.57757903507E+02  0.00000000000E+00 0. -1.
      99926    2    1    2    0    0  0.00000000000E+00 -0.14210854715E-13  0.83878156120E+03  0.95429736821E+03  0.45511422695E+03 0.  0.
      99925    2    3    3    0    0  0.69266091588E+02 -0.85506119576E+02  0.58437519905E+03  0.65019344990E+03  0.26296018920E+03 0.  0.
         25    1    4    4    0    0  0.76360037441E+02 -0.46958636801E+02  0.30811367560E+03  0.34440893438E+03  0.12509000000E+03 0.  0.
         25    1    4    4    0    0 -0.70939458521E+01 -0.38547482775E+02  0.27626152345E+03  0.30578451552E+03  0.12509000000E+03 0.  0.
         25    1    3    3    0    0 -0.69266091588E+02  0.85506119576E+02  0.25440636215E+03  0.30410391831E+03  0.12509000000E+03 0.  0.
<mgrwt>
<rscale>  2 0.45511423E+03</rscale>
<asrwt>0</asrwt>
<pdfrwt beam="1">  1       21 0.13184403E+00 0.45511423E+03</pdfrwt>
<pdfrwt beam="2">  1       21 0.84938099E-02 0.45511423E+03</pdfrwt>
<totfact> 0.40930725E+04</totfact>
</mgrwt>
</event>
<event>
 7    0  0.4752811E-002  0.4349834E+03  0.7546771E-02  0.1032297E+00
         21   -1    0    0  502  501  0.00000000000E+00  0.00000000000E+00  0.21741283050E+03  0.21741283050E+03  0.00000000000E+00 0.  1.
         21   -1    0    0  501  502 -0.00000000000E+00 -0.00000000000E+00 -0.21757059351E+03  0.21757059351E+03  0.00000000000E+00 0.  1.
      99926    2    1    2    0    0  0.00000000000E+00  0.00000000000E+00 -0.15776301155E+00  0.43498342401E+03  0.43498339540E+03 0.  0.
      99925    2    3    3    0    0 -0.88784165736E+02 -0.14059667344E+02  0.24477893596E+02  0.27898750737E+03  0.26297254545E+03 0.  0.
         25    1    3    3    0    0  0.88784165736E+02  0.14059667344E+02 -0.24635656607E+02  0.15599591664E+03  0.12509000000E+03 0.  0.
         25    1    4    4    0    0 -0.72788853727E+02 -0.36448597828E+02  0.41448659686E+01  0.14930306602E+03  0.12509000000E+03 0.  0.
         25    1    4    4    0    0 -0.15995312009E+02  0.22388930484E+02  0.20333027627E+02  0.12968444134E+03  0.12509000000E+03 0.  0.
<mgrwt>
<rscale>  2 0.43498340E+03</rscale>
<asrwt>0</asrwt>
<pdfrwt beam="1">  1       21 0.31972475E-01 0.43498340E+03</pdfrwt>
<pdfrwt beam="2">  1       21 0.31995676E-01 0.43498340E+03</pdfrwt>
<totfact> 0.82438153E+04</totfact>
</mgrwt>
</event>
<event>
 7    0  0.4752811E-002  0.4250240E+03  0.7546771E-02  0.1035443E+00
         21   -1    0    0  502  501  0.00000000000E+00  0.00000000000E+00  0.52451486357E+03  0.52451486357E+03  0.00000000000E+00 0. -1.
         21   -1    0    0  501  502 -0.00000000000E+00 -0.00000000000E+00 -0.86101188474E+02  0.86101188474E+02  0.00000000000E+00 0. -1.
      99926    2    1    2    0    0 -0.14210854715E-13  0.00000000000E+00  0.43841367510E+03  0.61061605204E+03  0.42502401403E+03 0.  0.
      99925    2    3    3    0    0 -0.67374725772E+02 -0.26247980750E+02  0.33956343081E+03  0.43555266621E+03  0.26301043958E+03 0.  0.
         25    1    4    4    0    0 -0.54053796141E+02  0.21779048603E+02  0.17822946133E+03  0.22540938051E+03  0.12509000000E+03 0.  0.
         25    1    3    3    0    0  0.67374725772E+02  0.26247980750E+02  0.98850244284E+02  0.17506338584E+03  0.12509000000E+03 0.  0.
         25    1    4    4    0    0 -0.13320929631E+02 -0.48027029354E+02  0.16133396948E+03  0.21014328570E+03  0.12509000000E+03 0.  0.
<mgrwt>
<rscale>  2 0.42502401E+03</rscale>
<asrwt>0</asrwt>
<pdfrwt beam="1">  1       21 0.77134537E-01 0.42502401E+03</pdfrwt>
<pdfrwt beam="2">  1       21 0.12661940E-01 0.42502401E+03</pdfrwt>
<totfact> 0.74065361E+04</totfact>
</mgrwt>
</event>
<event>
 7    0  0.4752811E-002  0.4541535E+03  0.7546771E-02  0.1026491E+00
         21   -1    0    0  502  501  0.00000000000E+00  0.00000000000E+00  0.30400102398E+03  0.30400102398E+03  0.00000000000E+00 0. -1.
         21   -1    0    0  501  502 -0.00000000000E+00 -0.00000000000E+00 -0.16961733930E+03  0.16961733930E+03  0.00000000000E+00 0. -1.
      99926    2    1    2    0    0  0.00000000000E+00  0.00000000000E+00  0.13438368468E+03  0.47361836328E+03  0.45415347552E+03 0.  0.
      99925    2    3    3    0    0 -0.36226462749E+02 -0.10215930910E+03  0.54416238137E+02  0.28979458450E+03  0.26319364200E+03 0.  0.
         25    1    4    4    0    0 -0.27334813583E+02 -0.91526787698E+02  0.44439320604E+02  0.16354420264E+03  0.12509000000E+03 0.  0.
         25    1    4    4    0    0 -0.88916491654E+01 -0.10632521402E+02  0.99769175327E+01  0.12625038186E+03  0.12509000000E+03 0.  0.
         25    1    3    3    0    0  0.36226462749E+02  0.10215930910E+03  0.79967446543E+02  0.18382377878E+03  0.12509000000E+03 0.  0.
<mgrwt>
<rscale>  2 0.45415348E+03</rscale>
<asrwt>0</asrwt>
<pdfrwt beam="1">  1       21 0.44706033E-01 0.45415348E+03</pdfrwt>
<pdfrwt beam="2">  1       21 0.24943726E-01 0.45415348E+03</pdfrwt>
<totfact> 0.67620775E+04</totfact>
</mgrwt>
</event>
<event>
 7    0  0.4752811E-002  0.4578686E+03  0.7546771E-02  0.1025401E+00
         21   -1    0    0  502  501  0.00000000000E+00  0.00000000000E+00  0.32722991244E+02  0.32722991244E+02  0.00000000000E+00 0.  1.
         21   -1    0    0  501  502 -0.00000000000E+00 -0.00000000000E+00 -0.16016538247E+04  0.16016538247E+04  0.00000000000E+00 0.  1.
      99926    2    1    2    0    0  0.00000000000E+00  0.14210854715E-13 -0.15689308334E+04  0.16343768159E+04  0.45786855790E+03 0.  0.
      99925    2    3    3    0    0  0.74026417491E+02  0.87367722131E+02 -0.92249067219E+03  0.96606145659E+03  0.26300697379E+03 0.  0.
         25    1    3    3    0    0 -0.74026417491E+02 -0.87367722131E+02 -0.64644016122E+03  0.66831535931E+03  0.12509000000E+03 0.  0.
         25    1    4    4    0    0  0.20676955358E+02  0.67085497901E+01 -0.35809921789E+03  0.37994091525E+03  0.12509000000E+03 0.  0.
         25    1    4    4    0    0  0.53349462133E+02  0.80659172341E+02 -0.56439145430E+03  0.58612054134E+03  0.12509000000E+03 0.  0.
<mgrwt>
<rscale>  2 0.45786856E+03</rscale>
<asrwt>0</asrwt>
<pdfrwt beam="1">  1       21 0.48122036E-02 0.45786856E+03</pdfrwt>
<pdfrwt beam="2">  1       21 0.23553738E+00 0.45786856E+03</pdfrwt>
<totfact> 0.20210065E+04</totfact>
</mgrwt>
</event>
<event>
 7    0  0.4752811E-002  0.4606966E+03  0.7546771E-02  0.1024579E+00
         21   -1    0    0  502  501  0.00000000000E+00  0.00000000000E+00  0.15355330231E+03  0.15355330231E+03  0.00000000000E+00 0.  1.
         21   -1    0    0  501  502 -0.00000000000E+00 -0.00000000000E+00 -0.34554993629E+03  0.34554993629E+03  0.00000000000E+00 0.  1.
      99926    2    1    2    0    0  0.00000000000E+00  0.00000000000E+00 -0.19199663398E+03  0.49910323859E+03  0.46069657619E+03 0.  0.
      99925    2    3    3    0    0  0.31526819208E+01 -0.30292425280E+02 -0.24420166176E+03  0.36017720267E+03  0.26299352707E+03 0.  0.
         25    1    4    4    0    0 -0.64797591741E+01 -0.70810973830E+01 -0.17411313620E+03  0.21460433713E+03  0.12509000000E+03 0.  0.
         25    1    3    3    0    0 -0.31526819208E+01  0.30292425280E+02  0.52205027779E+02  0.13892603593E+03  0.12509000000E+03 0.  0.
         25    1    4    4    0    0  0.96324410949E+01 -0.23211327897E+02 -0.70088525559E+02  0.14557286553E+03  0.12509000000E+03 0.  0.
<mgrwt>
<rscale>  2 0.46069658E+03</rscale>
<asrwt>0</asrwt>
<pdfrwt beam="1">  1       21 0.22581368E-01 0.46069658E+03</pdfrwt>
<pdfrwt beam="2">  1       21 0.50816166E-01 0.46069658E+03</pdfrwt>
<totfact> 0.62460946E+04</totfact>
</mgrwt>
</event>
<event>
 7    0  0.4752811E-002  0.4566745E+03  0.7546771E-02  0.1025750E+00
         21   -1    0    0  502  501  0.00000000000E+00  0.00000000000E+00  0.91967353562E+03  0.91967353562E+03  0.00000000000E+00 0.  1.
         21   -1    0    0  501  502 -0.00000000000E+00 -0.00000000000E+00 -0.56691753344E+02  0.56691753344E+02  0.00000000000E+00 0.  1.
      99926    2    1    2    0    0  0.00000000000E+00  0.00000000000E+00  0.86298178228E+03  0.97636528897E+03  0.45667452409E+03 0.  0.
      99925    2    3    3    0    0  0.10862997127E+03  0.30132424709E+02  0.58302543508E+03  0.64966741919E+03  0.26351596523E+03 0.  0.
         25    1    4    4    0    0  0.77369867475E+02  0.22528173954E+02  0.23183712803E+03  0.27548062917E+03  0.12509000000E+03 0.  0.
         25    1    4    4    0    0  0.31260103799E+02  0.76042507541E+01  0.35118830705E+03  0.37418679002E+03  0.12509000000E+03 0.  0.
         25    1    3    3    0    0 -0.10862997127E+03 -0.30132424709E+02  0.27995634720E+03  0.32669786978E+03  0.12509000000E+03 0.  0.
<mgrwt>
<rscale>  2 0.45667452E+03</rscale>
<asrwt>0</asrwt>
<pdfrwt beam="1">  1       21 0.13524610E+00 0.45667452E+03</pdfrwt>
<pdfrwt beam="2">  1       21 0.83370231E-02 0.45667452E+03</pdfrwt>
<totfact> 0.39570646E+04</totfact>
</mgrwt>
</event>
<event>
 7    0  0.4752811E-002  0.4567150E+03  0.7546771E-02  0.1025738E+00
         21   -1    0    0  502  501  0.00000000000E+00  0.00000000000E+00  0.34042045378E+03  0.34042045378E+03  0.00000000000E+00 0.  1.
         21   -1    0    0  501  502 -0.00000000000E+00 -0.00000000000E+00 -0.15318456035E+03  0.15318456035E+03  0.00000000000E+00 0.  1.
      99926    2    1    2    0    0  0.00000000000E+00  0.14210854715E-13  0.18723589342E+03  0.49360501413E+03  0.45671504266E+03 0.  0.
      99925    2    3    3    0    0  0.83610167831E+02  0.77518602205E+02  0.10296712992E+03  0.30453220684E+03  0.26294075627E+03 0.  0.
         25    1    4    4    0    0  0.24689125570E+02  0.74899425385E+02  0.44919311141E+02  0.15454685198E+03  0.12509000000E+03 0.  0.
         25    1    4    4    0    0  0.58921042261E+02  0.26191768203E+01  0.58047818777E+02  0.14998535486E+03  0.12509000000E+03 0.  0.
         25    1    3    3    0    0 -0.83610167831E+02 -0.77518602205E+02  0.84268763506E+02  0.18907280729E+03  0.12509000000E+03 0.  0.
<mgrwt>
<rscale>  2 0.45671504E+03</rscale>
<asrwt>0</asrwt>
<pdfrwt beam="1">  1       21 0.50061831E-01 0.45671504E+03</pdfrwt>
<pdfrwt beam="2">  1       21 0.22527141E-01 0.45671504E+03</pdfrwt>
<totfact> 0.64835055E+04</totfact>
</mgrwt>
</event>
<event>
 7    0  0.4752811E-002  0.4575965E+03  0.7546771E-02  0.1025481E+00
         21   -1    0    0  502  501  0.00000000000E+00  0.00000000000E+00  0.13062890663E+03  0.13062890663E+03  0.00000000000E+00 0.  1.
         21   -1    0    0  501  502 -0.00000000000E+00 -0.00000000000E+00 -0.40074309322E+03  0.40074309322E+03  0.00000000000E+00 0.  1.
      99926    2    1    2    0    0  0.00000000000E+00  0.14210854715E-13 -0.27011418659E+03  0.53137199985E+03  0.45759646898E+03 0.  0.
      99925    2    3    3    0    0  0.83201706855E+02 -0.78866427608E+02 -0.15224510690E+03  0.32477319667E+03  0.26297646144E+03 0.  0.
         25    1    4    4    0    0  0.39018757655E+02  0.10362010458E+01 -0.83129959296E+02  0.15518258728E+03  0.12509000000E+03 0.  0.
         25    1    3    3    0    0 -0.83201706855E+02  0.78866427608E+02 -0.11786907969E+03  0.20659880318E+03  0.12509000000E+03 0.  0.
         25    1    4    4    0    0  0.44182949200E+02 -0.79902628654E+02 -0.69115147606E+02  0.16959060939E+03  0.12509000000E+03 0.  0.
<mgrwt>
<rscale>  2 0.45759647E+03</rscale>
<asrwt>0</asrwt>
<pdfrwt beam="1">  1       21 0.19210133E-01 0.45759647E+03</pdfrwt>
<pdfrwt beam="2">  1       21 0.58932809E-01 0.45759647E+03</pdfrwt>
<totfact> 0.61831443E+04</totfact>
</mgrwt>
</event>
<event>
 7    0  0.4752811E-002  0.4528153E+03  0.7546771E-02  0.1026886E+00
         21   -1    0    0  502  501  0.00000000000E+00  0.00000000000E+00  0.45976878831E+03  0.45976878831E+03  0.00000000000E+00 0.  1.
         21   -1    0    0  501  502 -0.00000000000E+00 -0.00000000000E+00 -0.11149175810E+03  0.11149175810E+03  0.00000000000E+00 0.  1.
      99926    2    1    2    0    0  0.00000000000E+00 -0.71054273576E-14  0.34827703021E+03  0.57126054641E+03  0.45281532893E+03 0.  0.
      99925    2    3    3    0    0 -0.62311825865E+02  0.49100507831E+02  0.31737703067E+03  0.41994649689E+03  0.26331209076E+03 0.  0.
         25    1    4    4    0    0 -0.55722289381E+02 -0.18791468898E+01  0.18961043264E+03  0.23389768916E+03  0.12509000000E+03 0.  0.
         25    1    4    4    0    0 -0.65895364841E+01  0.50979654721E+02  0.12776659802E+03  0.18604880773E+03  0.12509000000E+03 0.  0.
         25    1    3    3    0    0  0.62311825865E+02 -0.49100507831E+02  0.30899999540E+02  0.15131404952E+03  0.12509000000E+03 0.  0.
<mgrwt>
<rscale>  2 0.45281533E+03</rscale>
<asrwt>0</asrwt>
<pdfrwt beam="1">  1       21 0.67613057E-01 0.45281533E+03</pdfrwt>
<pdfrwt beam="2">  1       21 0.16395847E-01 0.45281533E+03</pdfrwt>
<totfact> 0.61539314E+04</totfact>
</mgrwt>
</event>
<event>
 7    0  0.4752811E-002  0.4541739E+03  0.7546771E-02  0.1026485E+00
         21   -1    0    0  502  501  0.00000000000E+00  0.00000000000E+00  0.94304680425E+02  0.94304680425E+02  0.00000000000E+00 0.  1.
         21   -1    0    0  501  502 -0.00000000000E+00 -0.00000000000E+00 -0.54682853132E+03  0.54682853132E+03  0.00000000000E+00 0.  1.
      99926    2    1    2    0    0  0.17763568394E-14  0.00000000000E+00 -0.45252385089E+03  0.64113321174E+03  0.45417393097E+03 0.  0.
      99925    2    3    3    0    0 -0.12998305803E+02  0.11123257324E+03 -0.27215875648E+03  0.39471747222E+03  0.26303964119E+03 0.  0.
         25    1    4    4    0    0  0.28801178975E+01  0.24255248399E+02 -0.86551202443E+02  0.15406242533E+03  0.12509000000E+03 0.  0.
         25    1    3    3    0    0  0.12998305803E+02 -0.11123257324E+03 -0.18036509441E+03  0.24641573952E+03  0.12509000000E+03 0.  0.
         25    1    4    4    0    0 -0.15878423701E+02  0.86977324845E+02 -0.18560755404E+03  0.24065504689E+03  0.12509000000E+03 0.  0.
<mgrwt>
<rscale>  2 0.45417393E+03</rscale>
<asrwt>0</asrwt>
<pdfrwt beam="1">  1       21 0.13868335E-01 0.45417393E+03</pdfrwt>
<pdfrwt beam="2">  1       21 0.80415961E-01 0.45417393E+03</pdfrwt>
<totfact> 0.56583161E+04</totfact>
</mgrwt>
</event>
<event>
 7    0  0.4752811E-002  0.4283746E+03  0.7546771E-02  0.1034375E+00
         21   -1    0    0  502  501  0.00000000000E+00  0.00000000000E+00  0.13325713181E+04  0.13325713181E+04  0.00000000000E+00 0. -1.
         21   -1    0    0  501  502 -0.00000000000E+00 -0.00000000000E+00 -0.34426822696E+02  0.34426822696E+02  0.00000000000E+00 0. -1.
      99926    2    1    2    0    0  0.88817841970E-15  0.00000000000E+00  0.12981444954E+04  0.13669981408E+04  0.42837458607E+03 0.  0.
      99925    2    3    3    0    0  0.52240640063E+01  0.24122774021E+02  0.57626403825E+03  0.63394418535E+03  0.26305092528E+03 0.  0.
         25    1    3    3    0    0 -0.52240640063E+01 -0.24122774021E+02  0.72188045711E+03  0.73305395540E+03  0.12509000000E+03 0.  0.
         25    1    4    4    0    0 -0.17414783200E+02  0.17398256093E+02  0.20445773406E+03  0.24094905501E+03  0.12509000000E+03 0.  0.
         25    1    4    4    0    0  0.22638847206E+02  0.67245179283E+01  0.37180630419E+03  0.39299513035E+03  0.12509000000E+03 0.  0.
<mgrwt>
<rscale>  2 0.42837459E+03</rscale>
<asrwt>0</asrwt>
<pdfrwt beam="1">  1       21 0.19596634E+00 0.42837459E+03</pdfrwt>
<pdfrwt beam="2">  1       21 0.50627689E-02 0.42837459E+03</pdfrwt>
<totfact> 0.33672982E+04</totfact>
</mgrwt>
</event>
<event>
 7    0  0.4752811E-002  0.4539914E+03  0.7546771E-02  0.1026538E+00
         21   -1    0    0  502  501  0.00000000000E+00  0.00000000000E+00  0.10576833444E+03  0.10576833444E+03  0.00000000000E+00 0.  1.
         21   -1    0    0  501  502 -0.00000000000E+00 -0.00000000000E+00 -0.48716905099E+03  0.48716905099E+03  0.00000000000E+00 0.  1.
      99926    2    1    2    0    0 -0.14210854715E-13  0.71054273576E-14 -0.38140071655E+03  0.59293738544E+03  0.45399144977E+03 0.  0.
      99925    2    3    3    0    0  0.81942460460E+02 -0.32230458922E+02 -0.33163906460E+03  0.43207378044E+03  0.26258315495E+03 0.  0.
         25    1    3    3    0    0 -0.81942460460E+02  0.32230458922E+02 -0.49761651949E+02  0.16086360500E+03  0.12509000000E+03 0.  0.
         25    1    4    4    0    0  0.61541096900E+02 -0.11757276328E+02 -0.22606787060E+03  0.26585659738E+03  0.12509000000E+03 0.  0.
         25    1    4    4    0    0  0.20401363560E+02 -0.20473182594E+02 -0.10557119400E+03  0.16621718306E+03  0.12509000000E+03 0.  0.
<mgrwt>
<rscale>  2 0.45399145E+03</rscale>
<asrwt>0</asrwt>
<pdfrwt beam="1">  1       21 0.15554167E-01 0.45399145E+03</pdfrwt>
<pdfrwt beam="2">  1       21 0.71642507E-01 0.45399145E+03</pdfrwt>
<totfact> 0.59588634E+04</totfact>
</mgrwt>
</event>
<event>
 7    0  0.4752811E-002  0.4519977E+03  0.7546771E-02  0.1027128E+00
         21   -1    0    0  502  501  0.00000000000E+00  0.00000000000E+00  0.22990217870E+03  0.22990217870E+03  0.00000000000E+00 0.  1.
         21   -1    0    0  501  502 -0.00000000000E+00 -0.00000000000E+00 -0.22216181198E+03  0.22216181198E+03  0.00000000000E+00 0.  1.
      99926    2    1    2    0    0  0.00000000000E+00  0.00000000000E+00  0.77403667256E+01  0.45206399068E+03  0.45199771945E+03 0.  0.
      99925    2    3    3    0    0  0.79099722338E+02  0.18255197617E+02  0.79729830901E+02  0.28647410763E+03  0.26290787378E+03 0.  0.
         25    1    4    4    0    0  0.59776504925E+02  0.45048815061E+02  0.41596427632E+02  0.15159286649E+03  0.12509000000E+03 0.  0.
         25    1    4    4    0    0  0.19323217413E+02 -0.26793617443E+02  0.38133403270E+02  0.13488124114E+03  0.12509000000E+03 0.  0.
         25    1    3    3    0    0 -0.79099722338E+02 -0.18255197617E+02 -0.71989464176E+02  0.16558988304E+03  0.12509000000E+03 0.  0.
<mgrwt>
<rscale>  2 0.45199772E+03</rscale>
<asrwt>0</asrwt>
<pdfrwt beam="1">  1       21 0.33809144E-01 0.45199772E+03</pdfrwt>
<pdfrwt beam="2">  1       21 0.32670854E-01 0.45199772E+03</pdfrwt>
<totfact> 0.70433599E+04</totfact>
</mgrwt>
</event>
<event>
 7    0  0.4752811E-002  0.4811743E+03  0.7546771E-02  0.1018813E+00
         21   -1    0    0  502  501  0.00000000000E+00  0.00000000000E+00  0.51179713860E+03  0.51179713860E+03  0.00000000000E+00 0.  1.
         21   -1    0    0  501  502 -0.00000000000E+00 -0.00000000000E+00 -0.11309595567E+03  0.11309595567E+03  0.00000000000E+00 0.  1.
      99926    2    1    2    0    0 -0.71054273576E-14  0.00000000000E+00  0.39870118293E+03  0.62489309426E+03  0.48117434053E+03 0.  0.
      99925    2    3    3    0    0  0.61916891552E+02  0.83488958369E+02  0.35992096780E+03  0.45769404877E+03  0.26293845589E+03 0.  0.
         25    1    4    4    0    0  0.69876576286E+01  0.26571809851E+02  0.21684852517E+03  0.25184455405E+03  0.12509000000E+03 0.  0.
         25    1    4    4    0    0  0.54929233923E+02  0.56917148518E+02  0.14307244262E+03  0.20584949471E+03  0.12509000000E+03 0.  0.
         25    1    3    3    0    0 -0.61916891552E+02 -0.83488958369E+02  0.38780215132E+02  0.16719904550E+03  0.12509000000E+03 0.  0.
<mgrwt>
<rscale>  2 0.48117434E+03</rscale>
<asrwt>0</asrwt>
<pdfrwt beam="1">  1       21 0.75264284E-01 0.48117434E+03</pdfrwt>
<pdfrwt beam="2">  1       21 0.16631758E-01 0.48117434E+03</pdfrwt>
<totfact> 0.46736196E+04</totfact>
</mgrwt>
</event>
<event>
 7    0  0.4752811E-002  0.4509487E+03  0.7546771E-02  0.1027439E+00
         21   -1    0    0  502  501  0.00000000000E+00  0.00000000000E+00  0.42196917335E+03  0.42196917335E+03  0.00000000000E+00 0. -1.
         21   -1    0    0  501  502 -0.00000000000E+00 -0.00000000000E+00 -0.12047963086E+03  0.12047963086E+03  0.00000000000E+00 0. -1.
      99926    2    1    2    0    0 -0.35527136788E-14  0.00000000000E+00  0.30148954249E+03  0.54244880421E+03  0.45094873428E+03 0.  0.
      99925    2    3    3    0    0  0.20191800561E+02 -0.36280992172E+02  0.31242990084E+03  0.41019443285E+03  0.26253192301E+03 0.  0.
         25    1    4    4    0    0  0.45327933415E+02 -0.34058049515E+02  0.14557561230E+03  0.20013580210E+03  0.12509000000E+03 0.  0.
         25    1    3    3    0    0 -0.20191800561E+02  0.36280992172E+02 -0.10940358343E+02  0.13225437136E+03  0.12509000000E+03 0.  0.
         25    1    4    4    0    0 -0.25136132853E+02 -0.22229426567E+01  0.16685428854E+03  0.21005863075E+03  0.12509000000E+03 0.  0.
<mgrwt>
<rscale>  2 0.45094873E+03</rscale>
<asrwt>0</asrwt>
<pdfrwt beam="1">  1       21 0.62054290E-01 0.45094873E+03</pdfrwt>
<pdfrwt beam="2">  1       21 0.17717593E-01 0.45094873E+03</pdfrwt>
<totfact> 0.64408453E+04</totfact>
</mgrwt>
</event>
<event>
 7    0  0.4752811E-002  0.4480537E+03  0.7546771E-02  0.1028304E+00
         21   -1    0    0  502  501  0.00000000000E+00  0.00000000000E+00  0.15560165940E+03  0.15560165940E+03  0.00000000000E+00 0.  1.
         21   -1    0    0  501  502 -0.00000000000E+00 -0.00000000000E+00 -0.32254170717E+03  0.32254170717E+03  0.00000000000E+00 0.  1.
      99926    2    1    2    0    0  0.00000000000E+00  0.00000000000E+00 -0.16694004777E+03  0.47814336657E+03  0.44805367921E+03 0.  0.
      99925    2    3    3    0    0  0.92855580743E+02 -0.35279883952E+02 -0.64626805977E+02  0.28845325973E+03  0.26298636830E+03 0.  0.
         25    1    3    3    0    0 -0.92855580743E+02  0.35279883952E+02 -0.10231324179E+03  0.18969010684E+03  0.12509000000E+03 0.  0.
         25    1    4    4    0    0  0.25236320890E+02  0.11638092030E+02 -0.51640643028E+02  0.13815419353E+03  0.12509000000E+03 0.  0.
         25    1    4    4    0    0  0.67619259854E+02 -0.46917975982E+02 -0.12986162949E+02  0.15029906620E+03  0.12509000000E+03 0.  0.
<mgrwt>
<rscale>  2 0.44805368E+03</rscale>
<asrwt>0</asrwt>
<pdfrwt beam="1">  1       21 0.22882597E-01 0.44805368E+03</pdfrwt>
<pdfrwt beam="2">  1       21 0.47432603E-01 0.44805368E+03</pdfrwt>
<totfact> 0.70651528E+04</totfact>
</mgrwt>
</event>
<event>
 7    0  0.4752811E-002  0.4491070E+03  0.7546771E-02  0.1027989E+00
         21   -1    0    0  502  501  0.00000000000E+00  0.00000000000E+00  0.29003585757E+03  0.29003585757E+03  0.00000000000E+00 0.  1.
         21   -1    0    0  501  502 -0.00000000000E+00 -0.00000000000E+00 -0.17385533789E+03  0.17385533789E+03  0.00000000000E+00 0.  1.
      99926    2    1    2    0    0  0.00000000000E+00  0.00000000000E+00  0.11618051968E+03  0.46389119546E+03  0.44910703409E+03 0.  0.
      99925    2    3    3    0    0 -0.88917564515E+02  0.53409006214E+02  0.44339435332E+02  0.28621873072E+03  0.26305193606E+03 0.  0.
         25    1    3    3    0    0  0.88917564515E+02 -0.53409006214E+02  0.71841084353E+02  0.17767246474E+03  0.12509000000E+03 0.  0.
         25    1    4    4    0    0 -0.25745402365E+02  0.51844785721E+02 -0.42215563189E+01  0.13789864824E+03  0.12509000000E+03 0.  0.
         25    1    4    4    0    0 -0.63172162150E+02  0.15642204930E+01  0.48560991651E+02  0.14832008248E+03  0.12509000000E+03 0.  0.
<mgrwt>
<rscale>  2 0.44910703E+03</rscale>
<asrwt>0</asrwt>
<pdfrwt beam="1">  1       21 0.42652332E-01 0.44910703E+03</pdfrwt>
<pdfrwt beam="2">  1       21 0.25566961E-01 0.44910703E+03</pdfrwt>
<totfact> 0.71161629E+04</totfact>
</mgrwt>
</event>
<event>
 7    0  0.4752811E-002  0.4300046E+03  0.7546771E-02  0.1033859E+00
         21   -1    0    0  502  501  0.00000000000E+00  0.00000000000E+00  0.13700262088E+03  0.13700262088E+03  0.00000000000E+00 0. -1.
         21   -1    0    0  501  502 -0.00000000000E+00 -0.00000000000E+00 -0.33740953857E+03  0.33740953857E+03  0.00000000000E+00 0. -1.
      99926    2    1    2    0    0  0.11102230246E-14  0.00000000000E+00 -0.20040691770E+03  0.47441215945E+03  0.43000460971E+03 0.  0.
      99925    2    3    3    0    0 -0.18335172598E+01  0.17869773718E+02 -0.34480581175E+02  0.26584143320E+03  0.26298301566E+03 0.  0.
         25    1    3    3    0    0  0.18335172598E+01 -0.17869773718E+02 -0.16592633652E+03  0.20857072625E+03  0.12509000000E+03 0.  0.
         25    1    4    4    0    0  0.11742238316E+02  0.30498637379E+02  0.14776104547E+02  0.13013027476E+03  0.12509000000E+03 0.  0.
         25    1    4    4    0    0 -0.13575755576E+02 -0.12628863661E+02 -0.49256685722E+02  0.13571115844E+03  0.12509000000E+03 0.  0.
<mgrwt>
<rscale>  2 0.43000461E+03</rscale>
<asrwt>0</asrwt>
<pdfrwt beam="1">  1       21 0.20147445E-01 0.43000461E+03</pdfrwt>
<pdfrwt beam="2">  1       21 0.49619048E-01 0.43000461E+03</pdfrwt>
<totfact> 0.82258807E+04</totfact>
</mgrwt>
</event>
<event>
 7    0  0.4752811E-002  0.4229216E+03  0.7546771E-02  0.1036120E+00
         21   -1    0    0  502  501  0.00000000000E+00  0.00000000000E+00  0.76814043154E+03  0.76814043154E+03  0.00000000000E+00 0. -1.
         21   -1    0    0  501  502 -0.00000000000E+00 -0.00000000000E+00 -0.58212885640E+02  0.58212885640E+02  0.00000000000E+00 0. -1.
      99926    2    1    2    0    0  0.00000000000E+00  0.00000000000E+00  0.70992754590E+03  0.82635331718E+03  0.42292160549E+03 0.  0.
      99925    2    3    3    0    0 -0.56706547508E+02 -0.52331319454E+02  0.42486070115E+03  0.50562786823E+03  0.26305650767E+03 0.  0.
         25    1    3    3    0    0  0.56706547508E+02  0.52331319454E+02  0.28506684475E+03  0.32072544895E+03  0.12509000000E+03 0.  0.
         25    1    4    4    0    0 -0.28659771909E+02 -0.31359300194E+02  0.28844362319E+03  0.31725702529E+03  0.12509000000E+03 0.  0.
         25    1    4    4    0    0 -0.28046775598E+02 -0.20972019260E+02  0.13641707796E+03  0.18837084294E+03  0.12509000000E+03 0.  0.
<mgrwt>
<rscale>  2 0.42292161E+03</rscale>
<asrwt>0</asrwt>
<pdfrwt beam="1">  1       21 0.11296182E+00 0.42292161E+03</pdfrwt>
<pdfrwt beam="2">  1       21 0.85607189E-02 0.42292161E+03</pdfrwt>
<totfact> 0.60324016E+04</totfact>
</mgrwt>
</event>
<event>
 7    0  0.4752811E-002  0.4546058E+03  0.7546771E-02  0.1026357E+00
         21   -1    0    0  502  501  0.00000000000E+00  0.00000000000E+00  0.10886856569E+03  0.10886856569E+03  0.00000000000E+00 0. -1.
         21   -1    0    0  501  502 -0.00000000000E+00 -0.00000000000E+00 -0.47457793392E+03  0.47457793392E+03  0.00000000000E+00 0. -1.
      99926    2    1    2    0    0  0.00000000000E+00 -0.17763568394E-14 -0.36570936823E+03  0.58344649961E+03  0.45460584674E+03 0.  0.
      99925    2    3    3    0    0 -0.51420313706E+01 -0.12578441482E+02 -0.86415318830E+02  0.27711770271E+03  0.26294858081E+03 0.  0.
         25    1    4    4    0    0 -0.19713419575E+02  0.30335232640E+02 -0.40444606418E+02  0.13635292274E+03  0.12509000000E+03 0.  0.
         25    1    4    4    0    0  0.14571388204E+02 -0.42913674122E+02 -0.45970712412E+02  0.14076477997E+03  0.12509000000E+03 0.  0.
         25    1    3    3    0    0  0.51420313706E+01  0.12578441482E+02 -0.27929404940E+03  0.30632879690E+03  0.12509000000E+03 0.  0.
<mgrwt>
<rscale>  2 0.45460585E+03</rscale>
<asrwt>0</asrwt>
<pdfrwt beam="1">  1       21 0.16010083E-01 0.45460585E+03</pdfrwt>
<pdfrwt beam="2">  1       21 0.69790872E-01 0.45460585E+03</pdfrwt>
<totfact> 0.59895325E+04</totfact>
</mgrwt>
</event>
<event>
 6    0  0.4752811E-002  0.4496692E+03  0.7546771E-02  0.1027821E+00
         21   -1    0    0  502  501  0.00000000000E+00  0.00000000000E+00  0.66009605269E+02  0.66009605269E+02  0.00000000000E+00 0.  1.
         21   -1    0    0  501  502 -0.00000000000E+00 -0.00000000000E+00 -0.76580678138E+03  0.76580678138E+03  0.00000000000E+00 0.  1.
      99926    2    1    2    0    0  0.00000000000E+00  0.00000000000E+00 -0.69979717611E+03  0.83181638665E+03  0.44966922666E+03 0.  0.
         25    1    3    3    0    0 -0.55032955530E+02 -0.39101133792E+02 -0.15905225793E+03  0.21331351038E+03  0.12509000000E+03 0.  0.
         25    1    3    3    0    0 -0.19067024170E+02  0.13425535119E+02 -0.12947434957E+03  0.18153487736E+03  0.12509000000E+03 0.  0.
         25    1    3    3    0    0  0.74099979700E+02  0.25675598674E+02 -0.41127056861E+03  0.43696799890E+03  0.12509000000E+03 0.  0.
<mgrwt>
<rscale>  2 0.44966923E+03</rscale>
<asrwt>0</asrwt>
<pdfrwt beam="1">  1       21 0.97072943E-02 0.44966923E+03</pdfrwt>
<pdfrwt beam="2">  1       21 0.11261865E+00 0.44966923E+03</pdfrwt>
<totfact> 0.48250708E+04</totfact>
</mgrwt>
</event>
<event>
 7    0  0.4752811E-002  0.4518988E+03  0.7546771E-02  0.1027157E+00
         21   -1    0    0  502  501  0.00000000000E+00  0.00000000000E+00  0.33032865749E+03  0.33032865749E+03  0.00000000000E+00 0.  1.
         21   -1    0    0  501  502 -0.00000000000E+00 -0.00000000000E+00 -0.15455251955E+03  0.15455251955E+03  0.00000000000E+00 0.  1.
      99926    2    1    2    0    0 -0.14210854715E-13  0.00000000000E+00  0.17577613794E+03  0.48488117703E+03  0.45189877758E+03 0.  0.
      99925    2    3    3    0    0 -0.73710516669E+02  0.79392187912E+02  0.13309424587E+03  0.31398468269E+03  0.26293714631E+03 0.  0.
         25    1    4    4    0    0 -0.10206146599E+00  0.39113412961E+02  0.83513230989E+02  0.15540861411E+03  0.12509000000E+03 0.  0.
         25    1    3    3    0    0  0.73710516669E+02 -0.79392187912E+02  0.42681892070E+02  0.17089649435E+03  0.12509000000E+03 0.  0.
         25    1    4    4    0    0 -0.73608455203E+02  0.40278774951E+02  0.49581014877E+02  0.15857606858E+03  0.12509000000E+03 0.  0.
<mgrwt>
<rscale>  2 0.45189878E+03</rscale>
<asrwt>0</asrwt>
<pdfrwt beam="1">  1       21 0.48577744E-01 0.45189878E+03</pdfrwt>
<pdfrwt beam="2">  1       21 0.22728312E-01 0.45189878E+03</pdfrwt>
<totfact> 0.68005344E+04</totfact>
</mgrwt>
</event>
<event>
 7    0  0.4752811E-002  0.4569771E+03  0.7546771E-02  0.1025662E+00
         21   -1    0    0  502  501  0.00000000000E+00  0.00000000000E+00  0.29343994228E+02  0.29343994228E+02  0.00000000000E+00 0. -1.
         21   -1    0    0  501  502 -0.00000000000E+00 -0.00000000000E+00 -0.17791381710E+04  0.17791381710E+04  0.00000000000E+00 0. -1.
      99926    2    1    2    0    0  0.00000000000E+00 -0.88817841970E-15 -0.17497941767E+04  0.18084821652E+04  0.45697711199E+03 0.  0.
      99925    2    3    3    0    0 -0.90452045902E+02 -0.70424175266E+01 -0.13790420248E+04  0.14068158428E+04  0.26295007364E+03 0.  0.
         25    1    4    4    0    0 -0.53475233507E+02 -0.35157540731E+02 -0.82874002599E+03  0.84056718473E+03  0.12509000000E+03 0.  0.
         25    1    4    4    0    0 -0.36976812394E+02  0.28115123205E+02 -0.55030199881E+03  0.56624865810E+03  0.12509000000E+03 0.  0.
         25    1    3    3    0    0  0.90452045902E+02  0.70424175266E+01 -0.37075215193E+03  0.40166632236E+03  0.12509000000E+03 0.  0.
<mgrwt>
<rscale>  2 0.45697711E+03</rscale>
<asrwt>0</asrwt>
<pdfrwt beam="1">  1       21 0.43152930E-02 0.45697711E+03</pdfrwt>
<pdfrwt beam="2">  1       21 0.26163798E+00 0.45697711E+03</pdfrwt>
<totfact> 0.16837119E+04</totfact>
</mgrwt>
</event>
<event>
 6    0  0.4752811E-002  0.4578222E+03  0.7546771E-02  0.1025415E+00
         21   -1    0    0  502  501  0.00000000000E+00  0.00000000000E+00  0.20109658754E+03  0.20109658754E+03  0.00000000000E+00 0.  1.
         21   -1    0    0  501  502 -0.00000000000E+00 -0.00000000000E+00 -0.26057277614E+03  0.26057277614E+03  0.00000000000E+00 0.  1.
      99926    2    1    2    0    0  0.00000000000E+00  0.22204460493E-14 -0.59476188594E+02  0.46166936368E+03  0.45782221916E+03 0.  0.
         25    1    3    3    0    0 -0.32861041613E+01 -0.59507441380E+02  0.23528772311E+02  0.14054552745E+03  0.12509000000E+03 0.  0.
         25    1    3    3    0    0  0.47388667421E+02  0.36361635895E+01 -0.11177050452E+03  0.17435326572E+03  0.12509000000E+03 0.  0.
         25    1    3    3    0    0 -0.44102563260E+02  0.55871277791E+02  0.28765543619E+02  0.14677057051E+03  0.12509000000E+03 0.  0.
<mgrwt>
<rscale>  2 0.45782222E+03</rscale>
<asrwt>0</asrwt>
<pdfrwt beam="1">  1       21 0.29573028E-01 0.45782222E+03</pdfrwt>
<pdfrwt beam="2">  1       21 0.38319525E-01 0.45782222E+03</pdfrwt>
<totfact> 0.66548611E+04</totfact>
</mgrwt>
</event>
<event>
 7    0  0.4752811E-002  0.4544523E+03  0.7546771E-02  0.1026403E+00
         21   -1    0    0  502  501  0.00000000000E+00  0.00000000000E+00  0.35366122451E+03  0.35366122451E+03  0.00000000000E+00 0. -1.
         21   -1    0    0  501  502 -0.00000000000E+00 -0.00000000000E+00 -0.14599206659E+03  0.14599206659E+03  0.00000000000E+00 0. -1.
      99926    2    1    2    0    0  0.00000000000E+00  0.31086244690E-14  0.20766915792E+03  0.49965329110E+03  0.45445234311E+03 0.  0.
      99925    2    3    3    0    0 -0.10281668638E+03  0.29320026121E+01  0.18472097903E+03  0.33608680721E+03  0.26125205119E+03 0.  0.
         25    1    4    4    0    0 -0.16803884827E+02  0.20795873736E+02  0.84398394492E+02  0.15324958728E+03  0.12509000000E+03 0.  0.
         25    1    4    4    0    0 -0.86012801553E+02 -0.17863871123E+02  0.10032258454E+03  0.18283721993E+03  0.12509000000E+03 0.  0.
         25    1    3    3    0    0  0.10281668638E+03 -0.29320026121E+01  0.22948178892E+02  0.16356648389E+03  0.12509000000E+03 0.  0.
<mgrwt>
<rscale>  2 0.45445234E+03</rscale>
<asrwt>0</asrwt>
<pdfrwt beam="1">  1       21 0.52009003E-01 0.45445234E+03</pdfrwt>
<pdfrwt beam="2">  1       21 0.21469422E-01 0.45445234E+03</pdfrwt>
<totfact> 0.65579658E+04</totfact>
</mgrwt>
</event>
<event>
 7    0  0.4752811E-002  0.4590684E+03  0.7546771E-02  0.1025052E+00
         21   -1    0    0  502  501  0.00000000000E+00  0.00000000000E+00  0.24058952768E+03  0.24058952768E+03  0.00000000000E+00 0. -1.
         21   -1    0    0  501  502 -0.00000000000E+00 -0.00000000000E+00 -0.21898687539E+03  0.21898687539E+03  0.00000000000E+00 0. -1.
      99926    2    1    2    0    0  0.00000000000E+00  0.00000000000E+00  0.21602652286E+02  0.45957640307E+03  0.45906839977E+03 0.  0.
      99925    2    3    3    0    0 -0.61909988349E+02  0.70861348745E+02  0.82979275139E+02  0.29144319595E+03  0.26305778635E+03 0.  0.
         25    1    4    4    0    0 -0.94368619033E+01  0.40162117920E+02  0.76258884495E+02  0.15220044561E+03  0.12509000000E+03 0.  0.
         25    1    4    4    0    0 -0.52473126445E+02  0.30699230825E+02  0.67203906442E+01  0.13924275034E+03  0.12509000000E+03 0.  0.
         25    1    3    3    0    0  0.61909988349E+02 -0.70861348745E+02 -0.61376622854E+02  0.16813320712E+03  0.12509000000E+03 0.  0.
<mgrwt>
<rscale>  2 0.45906840E+03</rscale>
<asrwt>0</asrwt>
<pdfrwt beam="1">  1       21 0.35380813E-01 0.45906840E+03</pdfrwt>
<pdfrwt beam="2">  1       21 0.32203952E-01 0.45906840E+03</pdfrwt>
<totfact> 0.66041868E+04</totfact>
</mgrwt>
</event>
<event>
 7    0  0.4752811E-002  0.4551150E+03  0.7546771E-02  0.1026208E+00
         21   -1    0    0  502  501  0.00000000000E+00  0.00000000000E+00  0.23105900508E+04  0.23105900508E+04  0.00000000000E+00 0.  1.
         21   -1    0    0  501  502 -0.00000000000E+00 -0.00000000000E+00 -0.22410905948E+02  0.22410905948E+02  0.00000000000E+00 0.  1.
      99926    2    1    2    0    0  0.00000000000E+00  0.17763568394E-14  0.22881791449E+04  0.23330009568E+04  0.45511500223E+03 0.  0.
      99925    2    3    3    0    0  0.54091073416E+02 -0.45941067820E+01  0.19495258661E+04  0.19679249355E+04  0.26292679363E+03 0.  0.
         25    1    3    3    0    0 -0.54091073416E+02  0.45941067820E+01  0.33865327873E+03  0.36507602131E+03  0.12509000000E+03 0.  0.
         25    1    4    4    0    0  0.42667932815E+02  0.33006824638E+02  0.10833542559E+04  0.10918855044E+04  0.12509000000E+03 0.  0.
         25    1    4    4    0    0  0.11423140602E+02 -0.37600931420E+02  0.86617161029E+03  0.87603943105E+03  0.12509000000E+03 0.  0.
<mgrwt>
<rscale>  2 0.45511500E+03</rscale>
<asrwt>0</asrwt>
<pdfrwt beam="1">  1       21 0.33979249E+00 0.45511500E+03</pdfrwt>
<pdfrwt beam="2">  1       21 0.32957231E-02 0.45511500E+03</pdfrwt>
<totfact> 0.89871527E+03</totfact>
</mgrwt>
</event>
<event>
 7    0  0.4752811E-002  0.4505245E+03  0.7546771E-02  0.1027566E+00
         21   -1    0    0  502  501  0.00000000000E+00  0.00000000000E+00  0.32775153579E+03  0.32775153579E+03  0.00000000000E+00 0.  1.
         21   -1    0    0  501  502 -0.00000000000E+00 -0.00000000000E+00 -0.15482179611E+03  0.15482179611E+03  0.00000000000E+00 0.  1.
      99926    2    1    2    0    0  0.00000000000E+00  0.00000000000E+00  0.17292973968E+03  0.48257333189E+03  0.45052450077E+03 0.  0.
      99925    2    3    3    0    0 -0.96032025352E+02 -0.17829069348E+02  0.57972760244E+02  0.28660741438E+03  0.26314053933E+03 0.  0.
         25    1    4    4    0    0 -0.69173422493E+01  0.43265037270E+01  0.21241948737E+02  0.12714282026E+03  0.12509000000E+03 0.  0.
         25    1    3    3    0    0  0.96032025352E+02  0.17829069348E+02  0.11495697943E+03  0.19596591751E+03  0.12509000000E+03 0.  0.
         25    1    4    4    0    0 -0.89114683103E+02 -0.22155573075E+02  0.36730811507E+02  0.15946459412E+03  0.12509000000E+03 0.  0.
<mgrwt>
<rscale>  2 0.45052450E+03</rscale>
<asrwt>0</asrwt>
<pdfrwt beam="1">  1       21 0.48198755E-01 0.45052450E+03</pdfrwt>
<pdfrwt beam="2">  1       21 0.22767911E-01 0.45052450E+03</pdfrwt>
<totfact> 0.68929846E+04</totfact>
</mgrwt>
</event>
<event>
 7    0  0.4752811E-002  0.4800554E+03  0.7546771E-02  0.1019120E+00
         21   -1    0    0  502  501  0.00000000000E+00  0.00000000000E+00  0.91106635220E+02  0.91106635220E+02  0.00000000000E+00 0. -1.
         21   -1    0    0  501  502 -0.00000000000E+00 -0.00000000000E+00 -0.63237219742E+03  0.63237219742E+03  0.00000000000E+00 0. -1.
      99926    2    1    2    0    0  0.00000000000E+00  0.00000000000E+00 -0.54126556220E+03  0.72347883264E+03  0.48005542644E+03 0.  0.
      99925    2    3    3    0    0  0.11962897266E+02  0.13199240485E+03 -0.37436123802E+03  0.47635605470E+03  0.26306586336E+03 0.  0.
         25    1    4    4    0    0  0.58290445346E+01  0.31224336216E+02 -0.20976551679E+03  0.24628848342E+03  0.12509000000E+03 0.  0.
         25    1    4    4    0    0  0.61338527311E+01  0.10076806863E+03 -0.16459572123E+03  0.23006757128E+03  0.12509000000E+03 0.  0.
         25    1    3    3    0    0 -0.11962897266E+02 -0.13199240485E+03 -0.16690432417E+03  0.24712277794E+03  0.12509000000E+03 0.  0.
<mgrwt>
<rscale>  2 0.48005543E+03</rscale>
<asrwt>0</asrwt>
<pdfrwt beam="1">  1       21 0.13398035E-01 0.48005543E+03</pdfrwt>
<pdfrwt beam="2">  1       21 0.92995909E-01 0.48005543E+03</pdfrwt>
<totfact> 0.42605960E+04</totfact>
</mgrwt>
</event>
<event>
 7    0  0.4752811E-002  0.4535182E+03  0.7546771E-02  0.1026678E+00
         21   -1    0    0  502  501  0.00000000000E+00  0.00000000000E+00  0.65128000534E+03  0.65128000534E+03  0.00000000000E+00 0. -1.
         21   -1    0    0  501  502 -0.00000000000E+00 -0.00000000000E+00 -0.78951753775E+02  0.78951753775E+02  0.00000000000E+00 0. -1.
      99926    2    1    2    0    0  0.00000000000E+00 -0.71054273576E-14  0.57232825156E+03  0.73023175911E+03  0.45351824051E+03 0.  0.
      99925    2    3    3    0    0  0.73729104058E+02  0.58091716615E+02  0.45820408342E+03  0.53662787956E+03  0.26307388835E+03 0.  0.
         25    1    4    4    0    0  0.20700673746E+02  0.63809202909E+02  0.26068666061E+03  0.29682515963E+03  0.12509000000E+03 0.  0.
         25    1    4    4    0    0  0.53028430312E+02 -0.57174862941E+01  0.19751742281E+03  0.23980271993E+03  0.12509000000E+03 0.  0.
         25    1    3    3    0    0 -0.73729104058E+02 -0.58091716615E+02  0.11412416814E+03  0.19360387955E+03  0.12509000000E+03 0.  0.
<mgrwt>
<rscale>  2 0.45351824E+03</rscale>
<asrwt>0</asrwt>
<pdfrwt beam="1">  1       21 0.95776468E-01 0.45351824E+03</pdfrwt>
<pdfrwt beam="2">  1       21 0.11610552E-01 0.45351824E+03</pdfrwt>
<totfact> 0.51894171E+04</totfact>
</mgrwt>
</event>
<event>
 7    0  0.4752811E-002  0.4349555E+03  0.7546771E-02  0.1032306E+00
         21   -1    0    0  502  501  0.00000000000E+00  0.00000000000E+00  0.13144938646E+03  0.13144938646E+03  0.00000000000E+00 0. -1.
         21   -1    0    0  501  502 -0.00000000000E+00 -0.00000000000E+00 -0.35980819568E+03  0.35980819568E+03  0.00000000000E+00 0. -1.
      99926    2    1    2    0    0 -0.35527136788E-14  0.71054273576E-14 -0.22835880923E+03  0.49125758214E+03  0.43495547618E+03 0.  0.
      99925    2    3    3    0    0  0.20727347022E+02  0.62627187659E+02 -0.22075401428E+03  0.34963438999E+03  0.26298304945E+03 0.  0.
         25    1    3    3    0    0 -0.20727347022E+02 -0.62627187659E+02 -0.76047949479E+01  0.14162319215E+03  0.12509000000E+03 0.  0.
         25    1    4    4    0    0  0.30360870118E+02 -0.38521391030E+01 -0.95937504608E+02  0.16058684348E+03  0.12509000000E+03 0.  0.
         25    1    4    4    0    0 -0.96335230955E+01  0.66479326762E+02 -0.12481650967E+03  0.18904754651E+03  0.12509000000E+03 0.  0.
<mgrwt>
<rscale>  2 0.43495548E+03</rscale>
<asrwt>0</asrwt>
<pdfrwt beam="1">  1       21 0.19330793E-01 0.43495548E+03</pdfrwt>
<pdfrwt beam="2">  1       21 0.52912969E-01 0.43495548E+03</pdfrwt>
<totfact> 0.77505988E+04</totfact>
</mgrwt>
</event>
<event>
 7    0  0.4752811E-002  0.4597799E+03  0.7546771E-02  0.1024845E+00
         21   -1    0    0  502  501  0.00000000000E+00  0.00000000000E+00  0.15980054624E+03  0.15980054624E+03  0.00000000000E+00 0.  1.
         21   -1    0    0  501  502 -0.00000000000E+00 -0.00000000000E+00 -0.33072088899E+03  0.33072088899E+03  0.00000000000E+00 0.  1.
      99926    2    1    2    0    0  0.00000000000E+00  0.00000000000E+00 -0.17092034275E+03  0.49052143523E+03  0.45977985477E+03 0.  0.
      99925    2    3    3    0    0  0.64702328165E+02 -0.53592451127E+02 -0.19339147403E+02  0.27678582993E+03  0.26301682634E+03 0.  0.
         25    1    4    4    0    0  0.22212338366E+02 -0.39645030518E+02  0.27549117931E+02  0.13591018512E+03  0.12509000000E+03 0.  0.
         25    1    4    4    0    0  0.42489989799E+02 -0.13947420608E+02 -0.46888265334E+02  0.14087564481E+03  0.12509000000E+03 0.  0.
         25    1    3    3    0    0 -0.64702328165E+02  0.53592451127E+02 -0.15158119535E+03  0.21373560530E+03  0.12509000000E+03 0.  0.
<mgrwt>
<rscale>  2 0.45977985E+03</rscale>
<asrwt>0</asrwt>
<pdfrwt beam="1">  1       21 0.23500080E-01 0.45977985E+03</pdfrwt>
<pdfrwt beam="2">  1       21 0.48635425E-01 0.45977985E+03</pdfrwt>
<totfact> 0.63497958E+04</totfact>
</mgrwt>
</event>
<event>
 7    0  0.4752811E-002  0.4511866E+03  0.7546771E-02  0.1027369E+00
         21   -1    0    0  502  501  0.00000000000E+00  0.00000000000E+00  0.31895869661E+03  0.31895869661E+03  0.00000000000E+00 0. -1.
         21   -1    0    0  501  502 -0.00000000000E+00 -0.00000000000E+00 -0.15955779737E+03  0.15955779737E+03  0.00000000000E+00 0. -1.
      99926    2    1    2    0    0  0.00000000000E+00 -0.71054273576E-14  0.15940089923E+03  0.47851649398E+03  0.45118664468E+03 0.  0.
      99925    2    3    3    0    0 -0.31737434516E+01  0.39478366621E+02 -0.77457217112E+01  0.26602151740E+03  0.26294265047E+03 0.  0.
         25    1    4    4    0    0  0.92626671570E+01 -0.14383317218E+02 -0.23278139707E+02  0.12838246261E+03  0.12509000000E+03 0.  0.
         25    1    4    4    0    0 -0.12436410609E+02  0.53861683839E+02  0.15532417996E+02  0.13763905479E+03  0.12509000000E+03 0.  0.
         25    1    3    3    0    0  0.31737434516E+01 -0.39478366621E+02  0.16714662095E+03  0.21249497658E+03  0.12509000000E+03 0.  0.
<mgrwt>
<rscale>  2 0.45118664E+03</rscale>
<asrwt>0</asrwt>
<pdfrwt beam="1">  1       21 0.46905691E-01 0.45118664E+03</pdfrwt>
<pdfrwt beam="2">  1       21 0.23464382E-01 0.45118664E+03</pdfrwt>
<totfact> 0.68869357E+04</totfact>
</mgrwt>
</event>
<event>
 7    0  0.4752811E-002  0.4518889E+03  0.7546771E-02  0.1027160E+00
         21   -1    0    0  502  501  0.00000000000E+00  0.00000000000E+00  0.19965433901E+03  0.19965433901E+03  0.00000000000E+00 0.  1.
         21   -1    0    0  501  502 -0.00000000000E+00 -0.00000000000E+00 -0.25569640791E+03  0.25569640791E+03  0.00000000000E+00 0.  1.
      99926    2    1    2    0    0  0.17763568394E-14  0.00000000000E+00 -0.56042068902E+02  0.45535074692E+03  0.45188891249E+03 0.  0.
      99925    2    3    3    0    0 -0.14639269065E+02  0.72056922295E+02 -0.11812414809E+03  0.29752742511E+03  0.26298811015E+03 0.  0.
         25    1    4    4    0    0 -0.91974785180E+01  0.64323119667E+02 -0.29715658177E+02  0.14405757799E+03  0.12509000000E+03 0.  0.
         25    1    4    4    0    0 -0.54417905467E+01  0.77338026281E+01 -0.88408489912E+02  0.15346984712E+03  0.12509000000E+03 0.  0.
         25    1    3    3    0    0  0.14639269065E+02 -0.72056922295E+02  0.62082079187E+02  0.15782332180E+03  0.12509000000E+03 0.  0.
<mgrwt>
<rscale>  2 0.45188891E+03</rscale>
<asrwt>0</asrwt>
<pdfrwt beam="1">  1       21 0.29360932E-01 0.45188891E+03</pdfrwt>
<pdfrwt beam="2">  1       21 0.37602413E-01 0.45188891E+03</pdfrwt>
<totfact> 0.70247463E+04</totfact>
</mgrwt>
</event>
<event>
 7    0  0.4752811E-002  0.4521771E+03  0.7546771E-02  0.1027075E+00
         21   -1    0    0  502  501  0.00000000000E+00  0.00000000000E+00  0.69497320429E+03  0.69497320429E+03  0.00000000000E+00 0.  1.
         21   -1    0    0  501  502 -0.00000000000E+00 -0.00000000000E+00 -0.73551077294E+02  0.73551077294E+02  0.00000000000E+00 0.  1.
      99926    2    1    2    0    0  0.13322676296E-14  0.71054273576E-14  0.62142212700E+03  0.76852428159E+03  0.45217707977E+03 0.  0.
      99925    2    3    3    0    0  0.23660143298E+01  0.30620277722E+02  0.57235727133E+03  0.63069080382E+03  0.26312514997E+03 0.  0.
         25    1    3    3    0    0 -0.23660143298E+01 -0.30620277722E+02  0.49064855668E+02  0.13783347777E+03  0.12509000000E+03 0.  0.
         25    1    4    4    0    0  0.21973820637E+02 -0.18170763693E+02  0.25197094221E+03  0.28275411450E+03  0.12509000000E+03 0.  0.
         25    1    4    4    0    0 -0.19607806307E+02  0.48791041415E+02  0.32038632912E+03  0.34793668932E+03  0.12509000000E+03 0.  0.
<mgrwt>
<rscale>  2 0.45217708E+03</rscale>
<asrwt>0</asrwt>
<pdfrwt beam="1">  1       21 0.10220194E+00 0.45217708E+03</pdfrwt>
<pdfrwt beam="2">  1       21 0.10816335E-01 0.45217708E+03</pdfrwt>
<totfact> 0.50433236E+04</totfact>
</mgrwt>
</event>
<event>
 7    0  0.4752811E-002  0.4543610E+03  0.7546771E-02  0.1026429E+00
         21   -1    0    0  502  501  0.00000000000E+00  0.00000000000E+00  0.53360222601E+03  0.53360222601E+03  0.00000000000E+00 0. -1.
         21   -1    0    0  501  502 -0.00000000000E+00 -0.00000000000E+00 -0.96721819994E+02  0.96721819994E+02  0.00000000000E+00 0. -1.
      99926    2    1    2    0    0  0.00000000000E+00  0.71054273576E-14  0.43688040602E+03  0.63032404601E+03  0.45436099504E+03 0.  0.
      99925    2    3    3    0    0 -0.40318828947E+01 -0.50996790836E+02  0.13670390588E+03  0.30112749667E+03  0.26338732433E+03 0.  0.
         25    1    4    4    0    0  0.10302268973E+02 -0.43267578592E+02  0.30482774714E+02  0.13621647388E+03  0.12509000000E+03 0.  0.
         25    1    4    4    0    0 -0.14334151868E+02 -0.77292122440E+01  0.10622113116E+03  0.16491102279E+03  0.12509000000E+03 0.  0.
         25    1    3    3    0    0  0.40318828947E+01  0.50996790836E+02  0.30017650014E+03  0.32919654933E+03  0.12509000000E+03 0.  0.
<mgrwt>
<rscale>  2 0.45436100E+03</rscale>
<asrwt>0</asrwt>
<pdfrwt beam="1">  1       21 0.78470914E-01 0.45436100E+03</pdfrwt>
<pdfrwt beam="2">  1       21 0.14223797E-01 0.45436100E+03</pdfrwt>
<totfact> 0.57137179E+04</totfact>
</mgrwt>
</event>
<event>
 7    0  0.4752811E-002  0.4582683E+03  0.7546771E-02  0.1025285E+00
         21   -1    0    0  502  501  0.00000000000E+00  0.00000000000E+00  0.31273529917E+03  0.31273529917E+03  0.00000000000E+00 0. -1.
         21   -1    0    0  501  502 -0.00000000000E+00 -0.00000000000E+00 -0.16788144240E+03  0.16788144240E+03  0.00000000000E+00 0. -1.
      99926    2    1    2    0    0  0.00000000000E+00  0.14210854715E-13  0.14485385678E+03  0.48061674157E+03  0.45826827563E+03 0.  0.
      99925    2    3    3    0    0 -0.43708030588E+02  0.88319520242E+02  0.15574441342E+03  0.32100207458E+03  0.26282176466E+03 0.  0.
         25    1    3    3    0    0  0.43708030588E+02 -0.88319520242E+02 -0.10890556642E+02  0.15961466699E+03  0.12509000000E+03 0.  0.
         25    1    4    4    0    0 -0.61755347837E+02  0.52918915469E+02  0.89411010020E+02  0.17394243707E+03  0.12509000000E+03 0.  0.
         25    1    4    4    0    0  0.18047317249E+02  0.35400604772E+02  0.66333403400E+02  0.14705963751E+03  0.12509000000E+03 0.  0.
<mgrwt>
<rscale>  2 0.45826828E+03</rscale>
<asrwt>0</asrwt>
<pdfrwt beam="1">  1       21 0.45990485E-01 0.45826828E+03</pdfrwt>
<pdfrwt beam="2">  1       21 0.24688447E-01 0.45826828E+03</pdfrwt>
<totfact> 0.64953863E+04</totfact>
</mgrwt>
</event>
<event>
 7    0  0.4752811E-002  0.4518644E+03  0.7546771E-02  0.1027168E+00
         21   -1    0    0  502  501  0.00000000000E+00  0.00000000000E+00  0.93396120009E+02  0.93396120009E+02  0.00000000000E+00 0.  1.
         21   -1    0    0  501  502 -0.00000000000E+00 -0.00000000000E+00 -0.54654692260E+03  0.54654692260E+03  0.00000000000E+00 0.  1.
      99926    2    1    2    0    0 -0.71054273576E-14  0.00000000000E+00 -0.45315080259E+03  0.63994304261E+03  0.45186441318E+03 0.  0.
      99925    2    3    3    0    0  0.33660305893E+02 -0.93302353369E+02 -0.21817893720E+03  0.35586975811E+03  0.26306442322E+03 0.  0.
         25    1    3    3    0    0 -0.33660305893E+02  0.93302353369E+02 -0.23497186540E+03  0.28407328450E+03  0.12509000000E+03 0.  0.
         25    1    4    4    0    0 -0.18459075131E+02 -0.29768415596E+02 -0.12021370601E+03  0.17699078856E+03  0.12509000000E+03 0.  0.
         25    1    4    4    0    0  0.52119381024E+02 -0.63533937774E+02 -0.97965231182E+02  0.17887896955E+03  0.12509000000E+03 0.  0.
<mgrwt>
<rscale>  2 0.45186441E+03</rscale>
<asrwt>0</asrwt>
<pdfrwt beam="1">  1       21 0.13734724E-01 0.45186441E+03</pdfrwt>
<pdfrwt beam="2">  1       21 0.80374546E-01 0.45186441E+03</pdfrwt>
<totfact> 0.57699129E+04</totfact>
</mgrwt>
</event>
<event>
 7    0  0.4752811E-002  0.4537716E+03  0.7546771E-02  0.1026603E+00
         21   -1    0    0  502  501  0.00000000000E+00  0.00000000000E+00  0.30827034601E+03  0.30827034601E+03  0.00000000000E+00 0.  1.
         21   -1    0    0  501  502 -0.00000000000E+00 -0.00000000000E+00 -0.16698706139E+03  0.16698706139E+03  0.00000000000E+00 0.  1.
      99926    2    1    2    0    0  0.00000000000E+00  0.00000000000E+00  0.14128328462E+03  0.47525740741E+03  0.45377156894E+03 0.  0.
      99925    2    3    3    0    0 -0.87032507469E+02  0.55799198566E+02  0.43972349339E+02  0.28603496122E+03  0.26304794927E+03 0.  0.
         25    1    4    4    0    0 -0.75230574363E+02  0.34196422826E+01  0.14267352037E+02  0.14670514206E+03  0.12509000000E+03 0.  0.
         25    1    4    4    0    0 -0.11801933106E+02  0.52379556284E+02  0.29704997302E+02  0.13932981916E+03  0.12509000000E+03 0.  0.
         25    1    3    3    0    0  0.87032507469E+02 -0.55799198566E+02  0.97310935282E+02  0.18922244619E+03  0.12509000000E+03 0.  0.
<mgrwt>
<rscale>  2 0.45377157E+03</rscale>
<asrwt>0</asrwt>
<pdfrwt beam="1">  1       21 0.45333874E-01 0.45377157E+03</pdfrwt>
<pdfrwt beam="2">  1       21 0.24556921E-01 0.45377157E+03</pdfrwt>
<totfact> 0.67704632E+04</totfact>
</mgrwt>
</event>
<event>
 7    0  0.4752811E-002  0.4547175E+03  0.7546771E-02  0.1026325E+00
         21   -1    0    0  502  501  0.00000000000E+00  0.00000000000E+00  0.88012348182E+02  0.88012348182E+02  0.00000000000E+00 0.  1.
         21   -1    0    0  501  502 -0.00000000000E+00 -0.00000000000E+00 -0.58732662226E+03  0.58732662226E+03  0.00000000000E+00 0.  1.
      99926    2    1    2    0    0 -0.66613381478E-15  0.35527136788E-14 -0.49931427408E+03  0.67533897044E+03  0.45471747349E+03 0.  0.
      99925    2    3    3    0    0  0.94783249710E+00 -0.19316071499E+02 -0.47948023062E+03  0.54721829926E+03  0.26300678029E+03 0.  0.
         25    1    4    4    0    0  0.54625803718E+01 -0.36083086781E+02 -0.30644476199E+03  0.33299809187E+03  0.12509000000E+03 0.  0.
         25    1    4    4    0    0 -0.45147478747E+01  0.16767015282E+02 -0.17303546863E+03  0.21422020739E+03  0.12509000000E+03 0.  0.
         25    1    3    3    0    0 -0.94783249710E+00  0.19316071499E+02 -0.19834043456E+02  0.12812067118E+03  0.12509000000E+03 0.  0.
<mgrwt>
<rscale>  2 0.45471747E+03</rscale>
<asrwt>0</asrwt>
<pdfrwt beam="1">  1       21 0.12942992E-01 0.45471747E+03</pdfrwt>
<pdfrwt beam="2">  1       21 0.86371564E-01 0.45471747E+03</pdfrwt>
<totfact> 0.54383881E+04</totfact>
</mgrwt>
</event>
<event>
 7    0  0.4752811E-002  0.4517822E+03  0.7546771E-02  0.1027192E+00
         21   -1    0    0  502  501  0.00000000000E+00  0.00000000000E+00  0.13452499350E+03  0.13452499350E+03  0.00000000000E+00 0. -1.
         21   -1    0    0  501  502 -0.00000000000E+00 -0.00000000000E+00 -0.37931085102E+03  0.37931085102E+03  0.00000000000E+00 0. -1.
      99926    2    1    2    0    0  0.00000000000E+00 -0.14210854715E-13 -0.24478585752E+03  0.51383584452E+03  0.45178220313E+03 0.  0.
      99925    2    3    3    0    0 -0.63915614737E+02 -0.83049742069E+02 -0.11574387285E+03  0.30579304274E+03  0.26292636882E+03 0.  0.
         25    1    4    4    0    0 -0.57548299840E+02 -0.29752276468E+02 -0.27379934801E+02  0.14350670263E+03  0.12509000000E+03 0.  0.
         25    1    3    3    0    0  0.63915614737E+02  0.83049742069E+02 -0.12904198467E+03  0.20804280178E+03  0.12509000000E+03 0.  0.
         25    1    4    4    0    0 -0.63673148968E+01 -0.53297465601E+02 -0.88363938051E+02  0.16228634011E+03  0.12509000000E+03 0.  0.
<mgrwt>
<rscale>  2 0.45178220E+03</rscale>
<asrwt>0</asrwt>
<pdfrwt beam="1">  1       21 0.19783087E-01 0.45178220E+03</pdfrwt>
<pdfrwt beam="2">  1       21 0.55781008E-01 0.45178220E+03</pdfrwt>
<totfact> 0.65977758E+04</totfact>
</mgrwt>
</event>
<event>
 7    0  0.4752811E-002  0.4550540E+03  0.7546771E-02  0.1026226E+00
         21   -1    0    0  502  501  0.00000000000E+00  0.00000000000E+00  0.24139467739E+02  0.24139467739E+02  0.00000000000E+00 0. -1.
         21   -1    0    0  501  502 -0.00000000000E+00 -0.00000000000E+00 -0.21445603711E+04  0.21445603711E+04  0.00000000000E+00 0. -1.
      99926    2    1    2    0    0  0.00000000000E+00  0.17763568394E-14 -0.21204209034E+04  0.21686998388E+04  0.45505404467E+03 0.  0.
      99925    2    3    3    0    0  0.84312328986E+02 -0.14696424488E+02 -0.97990789931E+03  0.10181599768E+04  0.26287961778E+03 0.  0.
         25    1    4    4    0    0  0.52701756797E+02 -0.25587498464E+02 -0.63250321230E+03  0.64741023850E+03  0.12509000000E+03 0.  0.
         25    1    4    4    0    0  0.31610572189E+02  0.10891073976E+02 -0.34740468702E+03  0.37074973827E+03  0.12509000000E+03 0.  0.
         25    1    3    3    0    0 -0.84312328986E+02  0.14696424488E+02 -0.11405130040E+04  0.11505398621E+04  0.12509000000E+03 0.  0.
<mgrwt>
<rscale>  2 0.45505404E+03</rscale>
<asrwt>0</asrwt>
<pdfrwt beam="1">  1       21 0.35499214E-02 0.45505404E+03</pdfrwt>
<pdfrwt beam="2">  1       21 0.31537655E+00 0.45505404E+03</pdfrwt>
<totfact> 0.11141221E+04</totfact>
</mgrwt>
</event>
<event>
 7    0  0.4752811E-002  0.4498187E+03  0.7546771E-02  0.1027776E+00
         21   -1    0    0  502  501  0.00000000000E+00  0.00000000000E+00  0.58709006450E+02  0.58709006450E+02  0.00000000000E+00 0. -1.
         21   -1    0    0  501  502 -0.00000000000E+00 -0.00000000000E+00 -0.86160902661E+03  0.86160902661E+03  0.00000000000E+00 0. -1.
      99926    2    1    2    0    0  0.00000000000E+00  0.00000000000E+00 -0.80290002016E+03  0.92031803306E+03  0.44981867414E+03 0.  0.
      99925    2    3    3    0    0 -0.76081364557E+02  0.67375114445E+02 -0.58382505696E+03  0.64834537326E+03  0.26300617067E+03 0.  0.
         25    1    4    4    0    0 -0.50387518499E+02  0.59903938656E+02 -0.24287975251E+03  0.28419265678E+03  0.12509000000E+03 0.  0.
         25    1    4    4    0    0 -0.25693846058E+02  0.74711757883E+01 -0.34094530445E+03  0.36415271648E+03  0.12509000000E+03 0.  0.
         25    1    3    3    0    0  0.76081364557E+02 -0.67375114445E+02 -0.21907496319E+03  0.27197265980E+03  0.12509000000E+03 0.  0.
<mgrwt>
<rscale>  2 0.44981867E+03</rscale>
<asrwt>0</asrwt>
<pdfrwt beam="1">  1       21 0.86336781E-02 0.44981867E+03</pdfrwt>
<pdfrwt beam="2">  1       21 0.12670720E+00 0.44981867E+03</pdfrwt>
<totfact> 0.44128302E+04</totfact>
</mgrwt>
</event>
<event>
 7    0  0.4752811E-002  0.3985695E+03  0.7546771E-02  0.1044276E+00
         21   -1    0    0  502  501  0.00000000000E+00  0.00000000000E+00  0.17695183277E+03  0.17695183277E+03  0.00000000000E+00 0. -1.
         21   -1    0    0  501  502 -0.00000000000E+00 -0.00000000000E+00 -0.22443623087E+03  0.22443623087E+03  0.00000000000E+00 0. -1.
      99926    2    1    2    0    0  0.00000000000E+00  0.00000000000E+00 -0.47484398097E+02  0.40138806364E+03  0.39856945389E+03 0.  0.
      99925    2    3    3    0    0  0.38319375221E+02 -0.16600867047E+02 -0.23831663834E+02  0.26740700811E+03  0.26304865801E+03 0.  0.
         25    1    4    4    0    0  0.20154918810E+02 -0.29347422904E+02  0.22867780295E+02  0.13205277528E+03  0.12509000000E+03 0.  0.
         25    1    3    3    0    0 -0.38319375221E+02  0.16600867047E+02 -0.23652734264E+02  0.13398105553E+03  0.12509000000E+03 0.  0.
         25    1    4    4    0    0  0.18164456411E+02  0.12746555856E+02 -0.46699444129E+02  0.13535423283E+03  0.12509000000E+03 0.  0.
<mgrwt>
<rscale>  2 0.39856945E+03</rscale>
<asrwt>0</asrwt>
<pdfrwt beam="1">  1       21 0.26022328E-01 0.39856945E+03</pdfrwt>
<pdfrwt beam="2">  1       21 0.33005328E-01 0.39856945E+03</pdfrwt>
<totfact> 0.11718005E+05</totfact>
</mgrwt>
</event>
<event>
 7    0  0.4752811E-002  0.4558052E+03  0.7546771E-02  0.1026005E+00
         21   -1    0    0  502  501  0.00000000000E+00  0.00000000000E+00  0.62162149254E+03  0.62162149254E+03  0.00000000000E+00 0. -1.
         21   -1    0    0  501  502 -0.00000000000E+00 -0.00000000000E+00 -0.83555010490E+02  0.83555010490E+02  0.00000000000E+00 0. -1.
      99926    2    1    2    0    0 -0.14210854715E-13  0.71054273576E-14  0.53806648205E+03  0.70517650303E+03  0.45580517913E+03 0.  0.
      99925    2    3    3    0    0  0.75298418677E+02 -0.49625405213E+02  0.44612163958E+03  0.52563849910E+03  0.26294254456E+03 0.  0.
         25    1    4    4    0    0  0.45128799526E+00 -0.69488615658E+01  0.22163569798E+03  0.25459454247E+03  0.12509000000E+03 0.  0.
         25    1    3    3    0    0 -0.75298418677E+02  0.49625405213E+02  0.91944842471E+02  0.17953800393E+03  0.12509000000E+03 0.  0.
         25    1    4    4    0    0  0.74847130682E+02 -0.42676543647E+02  0.22448594160E+03  0.27104395663E+03  0.12509000000E+03 0.  0.
<mgrwt>
<rscale>  2 0.45580518E+03</rscale>
<asrwt>0</asrwt>
<pdfrwt beam="1">  1       21 0.91414924E-01 0.45580518E+03</pdfrwt>
<pdfrwt beam="2">  1       21 0.12287502E-01 0.45580518E+03</pdfrwt>
<totfact> 0.52290718E+04</totfact>
</mgrwt>
</event>
<event>
 7    0  0.4752811E-002  0.4576871E+03  0.7546771E-02  0.1025454E+00
         21   -1    0    0  502  501  0.00000000000E+00  0.00000000000E+00  0.94970487548E+02  0.94970487548E+02  0.00000000000E+00 0.  1.
         21   -1    0    0  501  502 -0.00000000000E+00 -0.00000000000E+00 -0.55142787091E+03  0.55142787091E+03  0.00000000000E+00 0.  1.
      99926    2    1    2    0    0  0.00000000000E+00  0.71054273576E-14 -0.45645738337E+03  0.64639835846E+03  0.45768711473E+03 0.  0.
      99925    2    3    3    0    0  0.80078116419E+01 -0.21749422297E+02 -0.12639076364E+03  0.29266308460E+03  0.26294465869E+03 0.  0.
         25    1    4    4    0    0 -0.98592325638E+01  0.14780902891E+02 -0.93213433813E+02  0.15700933698E+03  0.12509000000E+03 0.  0.
         25    1    3    3    0    0 -0.80078116419E+01  0.21749422297E+02 -0.33006661973E+03  0.35373527387E+03  0.12509000000E+03 0.  0.
         25    1    4    4    0    0  0.17867044206E+02 -0.36530325188E+02 -0.33177329825E+02  0.13565374761E+03  0.12509000000E+03 0.  0.
<mgrwt>
<rscale>  2 0.45768711E+03</rscale>
<asrwt>0</asrwt>
<pdfrwt beam="1">  1       21 0.13966248E-01 0.45768711E+03</pdfrwt>
<pdfrwt beam="2">  1       21 0.81092334E-01 0.45768711E+03</pdfrwt>
<totfact> 0.54739629E+04</totfact>
</mgrwt>
</event>
<event>
 7    0  0.4752811E-002  0.4734995E+03  0.7546771E-02  0.1020937E+00
         21   -1    0    0  502  501  0.00000000000E+00  0.00000000000E+00  0.95578330909E+03  0.95578330909E+03  0.00000000000E+00 0.  1.
         21   -1    0    0  501  502 -0.00000000000E+00 -0.00000000000E+00 -0.58643453856E+02  0.58643453856E+02  0.00000000000E+00 0.  1.
      99926    2    1    2    0    0 -0.14210854715E-13  0.00000000000E+00  0.89713985523E+03  0.10144267629E+04  0.47349945885E+03 0.  0.
      99925    2    3    3    0    0  0.10327005195E+03 -0.21484755290E+02  0.71768978001E+03  0.77157673528E+03  0.26291774331E+03 0.  0.
         25    1    4    4    0    0  0.33374608436E+02  0.26066757699E+02  0.35098518854E+03  0.37500860126E+03  0.12509000000E+03 0.  0.
         25    1    4    4    0    0  0.69895443517E+02 -0.47551512989E+02  0.36670459148E+03  0.39656813402E+03  0.12509000000E+03 0.  0.
         25    1    3    3    0    0 -0.10327005195E+03  0.21484755290E+02  0.17945007522E+03  0.24285002766E+03  0.12509000000E+03 0.  0.
<mgrwt>
<rscale>  2 0.47349946E+03</rscale>
<asrwt>0</asrwt>
<pdfrwt beam="1">  1       21 0.14055636E+00 0.47349946E+03</pdfrwt>
<pdfrwt beam="2">  1       21 0.86240379E-02 0.47349946E+03</pdfrwt>
<totfact> 0.33502594E+04</totfact>
</mgrwt>
</event>
<event>
 7    0  0.4752811E-002  0.4644531E+03  0.7546771E-02  0.1023498E+00
         21   -1    0    0  502  501  0.00000000000E+00  0.00000000000E+00  0.38045544191E+02  0.38045544191E+02  0.00000000000E+00 0.  1.
         21   -1    0    0  501  502 -0.00000000000E+00 -0.00000000000E+00 -0.14174897790E+04  0.14174897790E+04  0.00000000000E+00 0.  1.
      99926    2    1    2    0    0 -0.14210854715E-13 -0.14210854715E-13 -0.13794442348E+04  0.14555353232E+04  0.46445309785E+03 0.  0.
      99925    2    3    3    0    0 -0.85140061522E+02 -0.84036179509E+02 -0.93329828346E+03  0.97699104358E+03  0.26297319974E+03 0.  0.
         25    1    4    4    0    0 -0.24383284311E+02 -0.54263342943E+02 -0.57620425330E+03  0.59261952766E+03  0.12509000000E+03 0.  0.
         25    1    3    3    0    0  0.85140061522E+02  0.84036179509E+02 -0.44614595131E+03  0.47854427957E+03  0.12509000000E+03 0.  0.
         25    1    4    4    0    0 -0.60756777211E+02 -0.29772836566E+02 -0.35709403016E+03  0.38437151592E+03  0.12509000000E+03 0.  0.
<mgrwt>
<rscale>  2 0.46445310E+03</rscale>
<asrwt>0</asrwt>
<pdfrwt beam="1">  1       21 0.55949326E-02 0.46445310E+03</pdfrwt>
<pdfrwt beam="2">  1       21 0.20845439E+00 0.46445310E+03</pdfrwt>
<totfact> 0.23141991E+04</totfact>
</mgrwt>
</event>
<event>
 7    0  0.4752811E-002  0.4529189E+03  0.7546771E-02  0.1026855E+00
         21   -1    0    0  502  501  0.00000000000E+00  0.00000000000E+00  0.24470694870E+03  0.24470694870E+03  0.00000000000E+00 0.  1.
         21   -1    0    0  501  502 -0.00000000000E+00 -0.00000000000E+00 -0.20957262301E+03  0.20957262301E+03  0.00000000000E+00 0.  1.
      99926    2    1    2    0    0  0.00000000000E+00 -0.71054273576E-14  0.35134325697E+02  0.45427957171E+03  0.45291887621E+03 0.  0.
      99925    2    3    3    0    0  0.90753076836E+02  0.49639828170E+02 -0.18773645178E+02  0.28324211698E+03  0.26300839071E+03 0.  0.
         25    1    4    4    0    0  0.15017179473E+02  0.71745644336E+01 -0.32625256133E+02  0.13034149566E+03  0.12509000000E+03 0.  0.
         25    1    4    4    0    0  0.75735897363E+02  0.42465263736E+02  0.13851610955E+02  0.15290062132E+03  0.12509000000E+03 0.  0.
         25    1    3    3    0    0 -0.90753076836E+02 -0.49639828170E+02  0.53907970875E+02  0.17103745473E+03  0.12509000000E+03 0.  0.
<mgrwt>
<rscale>  2 0.45291888E+03</rscale>
<asrwt>0</asrwt>
<pdfrwt beam="1">  1       21 0.35986316E-01 0.45291888E+03</pdfrwt>
<pdfrwt beam="2">  1       21 0.30819503E-01 0.45291888E+03</pdfrwt>
<totfact> 0.69749633E+04</totfact>
</mgrwt>
</event>
<event>
 7    0  0.4752811E-002  0.4544138E+03  0.7546771E-02  0.1026414E+00
         21   -1    0    0  502  501  0.00000000000E+00  0.00000000000E+00  0.76920079625E+02  0.76920079625E+02  0.00000000000E+00 0.  1.
         21   -1    0    0  501  502 -0.00000000000E+00 -0.00000000000E+00 -0.67112478409E+03  0.67112478409E+03  0.00000000000E+00 0.  1.
      99926    2    1    2    0    0  0.00000000000E+00  0.00000000000E+00 -0.59420470447E+03  0.74804486372E+03  0.45441378426E+03 0.  0.
      99925    2    3    3    0    0  0.88581462351E+02  0.61673467622E+02 -0.42671069332E+03  0.51277471272E+03  0.26306956899E+03 0.  0.
         25    1    4    4    0    0  0.49971341205E+02  0.13853960074E+02 -0.27641833032E+03  0.30780459482E+03  0.12509000000E+03 0.  0.
         25    1    3    3    0    0 -0.88581462351E+02 -0.61673467622E+02 -0.16749401115E+03  0.23527015100E+03  0.12509000000E+03 0.  0.
         25    1    4    4    0    0  0.38610121146E+02  0.47819507548E+02 -0.15029236300E+03  0.20497011790E+03  0.12509000000E+03 0.  0.
<mgrwt>
<rscale>  2 0.45441378E+03</rscale>
<asrwt>0</asrwt>
<pdfrwt beam="1">  1       21 0.11311777E-01 0.45441378E+03</pdfrwt>
<pdfrwt beam="2">  1       21 0.98694812E-01 0.45441378E+03</pdfrwt>
<totfact> 0.50603596E+04</totfact>
</mgrwt>
</event>
<event>
 7    0  0.4752811E-002  0.4579381E+03  0.7546771E-02  0.1025381E+00
         21   -1    0    0  502  501  0.00000000000E+00  0.00000000000E+00  0.74627116401E+03  0.74627116401E+03  0.00000000000E+00 0.  1.
         21   -1    0    0  501  502 -0.00000000000E+00 -0.00000000000E+00 -0.70251721107E+02  0.70251721107E+02  0.00000000000E+00 0.  1.
      99926    2    1    2    0    0  0.00000000000E+00  0.00000000000E+00  0.67601944290E+03  0.81652288512E+03  0.45793813418E+03 0.  0.
      99925    2    3    3    0    0  0.19819058149E+02 -0.42102611431E+02  0.23480477519E+03  0.35556375888E+03  0.26291991028E+03 0.  0.
         25    1    4    4    0    0  0.34290049465E+01 -0.30401663332E+02  0.16995039868E+03  0.21322913807E+03  0.12509000000E+03 0.  0.
         25    1    4    4    0    0  0.16390053202E+02 -0.11700948099E+02  0.64854376510E+02  0.14233462082E+03  0.12509000000E+03 0.  0.
         25    1    3    3    0    0 -0.19819058149E+02  0.42102611431E+02  0.44121466771E+03  0.46095912623E+03  0.12509000000E+03 0.  0.
<mgrwt>
<rscale>  2 0.45793813E+03</rscale>
<asrwt>0</asrwt>
<pdfrwt beam="1">  1       21 0.10974575E+00 0.45793813E+03</pdfrwt>
<pdfrwt beam="2">  1       21 0.10331136E-01 0.45793813E+03</pdfrwt>
<totfact> 0.45908374E+04</totfact>
</mgrwt>
</event>
<event>
 7    0  0.4752811E-002  0.4566285E+03  0.7546771E-02  0.1025764E+00
         21   -1    0    0  502  501  0.00000000000E+00  0.00000000000E+00  0.32594078264E+03  0.32594078264E+03  0.00000000000E+00 0. -1.
         21   -1    0    0  501  502 -0.00000000000E+00 -0.00000000000E+00 -0.15992904177E+03  0.15992904177E+03  0.00000000000E+00 0. -1.
      99926    2    1    2    0    0 -0.71054273576E-14  0.14210854715E-13  0.16601174087E+03  0.48586982441E+03  0.45662850126E+03 0.  0.
      99925    2    3    3    0    0  0.51219449492E+02 -0.97387110985E+02  0.13978840838E+03  0.31721973500E+03  0.26264020972E+03 0.  0.
         25    1    4    4    0    0  0.29553846958E+02 -0.74388035049E+02  0.39119822885E+02  0.15357369004E+03  0.12509000000E+03 0.  0.
         25    1    3    3    0    0 -0.51219449492E+02  0.97387110985E+02  0.26223332493E+02  0.16865008941E+03  0.12509000000E+03 0.  0.
         25    1    4    4    0    0  0.21665602534E+02 -0.22999075935E+02  0.10066858549E+03  0.16364604496E+03  0.12509000000E+03 0.  0.
<mgrwt>
<rscale>  2 0.45662850E+03</rscale>
<asrwt>0</asrwt>
<pdfrwt beam="1">  1       21 0.47932468E-01 0.45662850E+03</pdfrwt>
<pdfrwt beam="2">  1       21 0.23518977E-01 0.45662850E+03</pdfrwt>
<totfact> 0.65425350E+04</totfact>
</mgrwt>
</event>
<event>
 7    0  0.4752811E-002  0.4525496E+03  0.7546771E-02  0.1026964E+00
         21   -1    0    0  502  501  0.00000000000E+00  0.00000000000E+00  0.11259698195E+04  0.11259698195E+04  0.00000000000E+00 0. -1.
         21   -1    0    0  501  502 -0.00000000000E+00 -0.00000000000E+00 -0.45472167628E+02  0.45472167628E+02  0.00000000000E+00 0. -1.
      99926    2    1    2    0    0 -0.14210854715E-13  0.00000000000E+00  0.10804976518E+04  0.11714419871E+04  0.45254961441E+03 0.  0.
      99925    2    3    3    0    0 -0.90416069988E+02 -0.62144177820E+02  0.63924207165E+03  0.69985852715E+03  0.26293453045E+03 0.  0.
         25    1    4    4    0    0 -0.24720409139E+02 -0.37546435954E+02  0.39330888147E+03  0.41516288108E+03  0.12509000000E+03 0.  0.
         25    1    4    4    0    0 -0.65695660849E+02 -0.24597741866E+02  0.24593319018E+03  0.28469564607E+03  0.12509000000E+03 0.  0.
         25    1    3    3    0    0  0.90416069988E+02  0.62144177820E+02  0.44125558018E+03  0.47158345994E+03  0.12509000000E+03 0.  0.
<mgrwt>
<rscale>  2 0.45254961E+03</rscale>
<asrwt>0</asrwt>
<pdfrwt beam="1">  1       21 0.16558378E+00 0.45254961E+03</pdfrwt>
<pdfrwt beam="2">  1       21 0.66870842E-02 0.45254961E+03</pdfrwt>
<totfact> 0.33713605E+04</totfact>
</mgrwt>
</event>
<event>
 7    0  0.4752811E-002  0.4578837E+03  0.7546771E-02  0.1025397E+00
         21   -1    0    0  502  501  0.00000000000E+00  0.00000000000E+00  0.13699165315E+04  0.13699165315E+04  0.00000000000E+00 0. -1.
         21   -1    0    0  501  502 -0.00000000000E+00 -0.00000000000E+00 -0.38261003266E+02  0.38261003266E+02  0.00000000000E+00 0. -1.
      99926    2    1    2    0    0  0.14210854715E-13  0.00000000000E+00  0.13316555282E+04  0.14081775348E+04  0.45788374457E+03 0.  0.
      99925    2    3    3    0    0 -0.90706056336E+02  0.35324073859E+02  0.64256959586E+03  0.70109740554E+03  0.26299526171E+03 0.  0.
         25    1    4    4    0    0 -0.43084649033E+02 -0.46130646242E+01  0.39815168854E+03  0.41958293880E+03  0.12509000000E+03 0.  0.
         25    1    3    3    0    0  0.90706056336E+02 -0.35324073859E+02  0.68908593239E+03  0.70708012924E+03  0.12509000000E+03 0.  0.
         25    1    4    4    0    0 -0.47621407303E+02  0.39937138483E+02  0.24441790732E+03  0.28151446674E+03  0.12509000000E+03 0.  0.
<mgrwt>
<rscale>  2 0.45788374E+03</rscale>
<asrwt>0</asrwt>
<pdfrwt beam="1">  1       21 0.20145828E+00 0.45788374E+03</pdfrwt>
<pdfrwt beam="2">  1       21 0.56266191E-02 0.45788374E+03</pdfrwt>
<totfact> 0.25537811E+04</totfact>
</mgrwt>
</event>
<event>
 7    0  0.4752811E-002  0.4567481E+03  0.7546771E-02  0.1025729E+00
         21   -1    0    0  502  501  0.00000000000E+00  0.00000000000E+00  0.10307467542E+03  0.10307467542E+03  0.00000000000E+00 0.  1.
         21   -1    0    0  501  502 -0.00000000000E+00 -0.00000000000E+00 -0.50598943667E+03  0.50598943667E+03  0.00000000000E+00 0.  1.
      99926    2    1    2    0    0  0.00000000000E+00  0.00000000000E+00 -0.40291476124E+03  0.60906411209E+03  0.45674805726E+03 0.  0.
      99925    2    3    3    0    0  0.62925657478E+02  0.44324921429E+02 -0.13949577445E+03  0.30746602235E+03  0.26296757744E+03 0.  0.
         25    1    4    4    0    0  0.62192775595E+02  0.14996444700E+02 -0.10200342599E+03  0.17362327523E+03  0.12509000000E+03 0.  0.
         25    1    4    4    0    0  0.73288188241E+00  0.29328476729E+02 -0.37492348460E+02  0.13384274712E+03  0.12509000000E+03 0.  0.
         25    1    3    3    0    0 -0.62925657478E+02 -0.44324921429E+02 -0.26341898680E+03  0.30159808974E+03  0.12509000000E+03 0.  0.
<mgrwt>
<rscale>  2 0.45674806E+03</rscale>
<asrwt>0</asrwt>
<pdfrwt beam="1">  1       21 0.15158041E-01 0.45674806E+03</pdfrwt>
<pdfrwt beam="2">  1       21 0.74410210E-01 0.45674806E+03</pdfrwt>
<totfact> 0.57328077E+04</totfact>
</mgrwt>
</event>
<event>
 7    0  0.4752811E-002  0.4502388E+03  0.7546771E-02  0.1027651E+00
         21   -1    0    0  502  501  0.00000000000E+00  0.00000000000E+00  0.30749527111E+02  0.30749527111E+02  0.00000000000E+00 0.  1.
         21   -1    0    0  501  502 -0.00000000000E+00 -0.00000000000E+00 -0.16481142730E+04  0.16481142730E+04  0.00000000000E+00 0.  1.
      99926    2    1    2    0    0  0.00000000000E+00 -0.35527136788E-14 -0.16173647459E+04  0.16788638001E+04  0.45023875675E+03 0.  0.
      99925    2    3    3    0    0 -0.50285038024E+02 -0.19756399436E+02 -0.67226767298E+03  0.72399475899E+03  0.26325973210E+03 0.  0.
         25    1    3    3    0    0  0.50285038024E+02  0.19756399436E+02 -0.94509707287E+03  0.95486904108E+03  0.12509000000E+03 0.  0.
         25    1    4    4    0    0 -0.51869819901E+02 -0.35349988370E+02 -0.40465457769E+03  0.42817395442E+03  0.12509000000E+03 0.  0.
         25    1    4    4    0    0  0.15847818769E+01  0.15593588933E+02 -0.26761309529E+03  0.29582080457E+03  0.12509000000E+03 0.  0.
<mgrwt>
<rscale>  2 0.45023876E+03</rscale>
<asrwt>0</asrwt>
<pdfrwt beam="1">  1       21 0.45219879E-02 0.45023876E+03</pdfrwt>
<pdfrwt beam="2">  1       21 0.24236982E+00 0.45023876E+03</pdfrwt>
<totfact> 0.20450608E+04</totfact>
</mgrwt>
</event>
<event>
 7    0  0.4752811E-002  0.4542539E+03  0.7546771E-02  0.1026461E+00
         21   -1    0    0  502  501  0.00000000000E+00  0.00000000000E+00  0.35832980974E+03  0.35832980974E+03  0.00000000000E+00 0. -1.
         21   -1    0    0  501  502 -0.00000000000E+00 -0.00000000000E+00 -0.14396417745E+03  0.14396417745E+03  0.00000000000E+00 0. -1.
      99926    2    1    2    0    0  0.00000000000E+00  0.00000000000E+00  0.21436563229E+03  0.50229398720E+03  0.45425392157E+03 0.  0.
      99925    2    3    3    0    0  0.42612734581E+02 -0.75895888931E+02  0.56233881870E+02  0.28268253555E+03  0.26300405953E+03 0.  0.
         25    1    3    3    0    0 -0.42612734581E+02  0.75895888931E+02  0.15813175042E+03  0.21961145165E+03  0.12509000000E+03 0.  0.
         25    1    4    4    0    0 -0.19157631557E+02 -0.42378177726E+02  0.23362181080E+02  0.13548514457E+03  0.12509000000E+03 0.  0.
         25    1    4    4    0    0  0.61770366137E+02 -0.33517711205E+02  0.32871700790E+02  0.14719739098E+03  0.12509000000E+03 0.  0.
<mgrwt>
<rscale>  2 0.45425392E+03</rscale>
<asrwt>0</asrwt>
<pdfrwt beam="1">  1       21 0.52695560E-01 0.45425392E+03</pdfrwt>
<pdfrwt beam="2">  1       21 0.21171202E-01 0.45425392E+03</pdfrwt>
<totfact> 0.65496823E+04</totfact>
</mgrwt>
</event>
<event>
 7    0  0.4752811E-002  0.4579674E+03  0.7546771E-02  0.1025372E+00
         21   -1    0    0  502  501  0.00000000000E+00  0.00000000000E+00  0.75273047832E+02  0.75273047832E+02  0.00000000000E+00 0. -1.
         21   -1    0    0  501  502 -0.00000000000E+00 -0.00000000000E+00 -0.69657767232E+03  0.69657767232E+03  0.00000000000E+00 0. -1.
      99926    2    1    2    0    0  0.00000000000E+00  0.71054273576E-14 -0.62130462448E+03  0.77185072015E+03  0.45796735450E+03 0.  0.
      99925    2    3    3    0    0  0.10423142973E+03  0.48982726154E+02 -0.41217536615E+03  0.50232140227E+03  0.26301095094E+03 0.  0.
         25    1    4    4    0    0  0.57928252639E+02  0.42359759797E+02 -0.14993647031E+03  0.20803481664E+03  0.12509000000E+03 0.  0.
         25    1    3    3    0    0 -0.10423142973E+03 -0.48982726154E+02 -0.20912925833E+03  0.26952931788E+03  0.12509000000E+03 0.  0.
         25    1    4    4    0    0  0.46303177090E+02  0.66229663570E+01 -0.26223889584E+03  0.29428658564E+03  0.12509000000E+03 0.  0.
<mgrwt>
<rscale>  2 0.45796735E+03</rscale>
<asrwt>0</asrwt>
<pdfrwt beam="1">  1       21 0.11069567E-01 0.45796735E+03</pdfrwt>
<pdfrwt beam="2">  1       21 0.10243789E+00 0.45796735E+03</pdfrwt>
<totfact> 0.48027928E+04</totfact>
</mgrwt>
</event>
<event>
 7    0  0.4752811E-002  0.4628515E+03  0.7546771E-02  0.1023957E+00
         21   -1    0    0  502  501  0.00000000000E+00  0.00000000000E+00  0.94635205827E+02  0.94635205827E+02  0.00000000000E+00 0.  1.
         21   -1    0    0  501  502 -0.00000000000E+00 -0.00000000000E+00 -0.56594031653E+03  0.56594031653E+03  0.00000000000E+00 0.  1.
      99926    2    1    2    0    0 -0.35527136788E-14  0.00000000000E+00 -0.47130511070E+03  0.66057552236E+03  0.46285150250E+03 0.  0.
      99925    2    3    3    0    0  0.19159387523E+02 -0.69929291432E+02 -0.43170676378E+03  0.51066646623E+03  0.26296829068E+03 0.  0.
         25    1    4    4    0    0  0.42451997401E+02 -0.57481188042E+02 -0.24900393129E+03  0.28767468599E+03  0.12509000000E+03 0.  0.
         25    1    3    3    0    0 -0.19159387523E+02  0.69929291432E+02 -0.39598346921E+02  0.14990905613E+03  0.12509000000E+03 0.  0.
         25    1    4    4    0    0 -0.23292609878E+02 -0.12448103390E+02 -0.18270283249E+03  0.22299178023E+03  0.12509000000E+03 0.  0.
<mgrwt>
<rscale>  2 0.46285150E+03</rscale>
<asrwt>0</asrwt>
<pdfrwt beam="1">  1       21 0.13916942E-01 0.46285150E+03</pdfrwt>
<pdfrwt beam="2">  1       21 0.83226517E-01 0.46285150E+03</pdfrwt>
<totfact> 0.51812491E+04</totfact>
</mgrwt>
</event>
<event>
 7    0  0.4752811E-002  0.4517669E+03  0.7546771E-02  0.1027196E+00
         21   -1    0    0  502  501  0.00000000000E+00  0.00000000000E+00  0.36265173459E+02  0.36265173459E+02  0.00000000000E+00 0. -1.
         21   -1    0    0  501  502 -0.00000000000E+00 -0.00000000000E+00 -0.14069515107E+04  0.14069515107E+04  0.00000000000E+00 0. -1.
      99926    2    1    2    0    0  0.00000000000E+00  0.00000000000E+00 -0.13706863372E+04  0.14432166841E+04  0.45176693364E+03 0.  0.
      99925    2    3    3    0    0 -0.73738616783E+02  0.70481852479E+02 -0.72767684345E+03  0.78025832021E+03  0.26245834454E+03 0.  0.
         25    1    4    4    0    0 -0.31486843742E+02  0.42818393325E+02 -0.25822884633E+03  0.29181240774E+03  0.12509000000E+03 0.  0.
         25    1    3    3    0    0  0.73738616783E+02 -0.70481852479E+02 -0.64300949377E+03  0.66295836393E+03  0.12509000000E+03 0.  0.
         25    1    4    4    0    0 -0.42251773041E+02  0.27663459153E+02 -0.46944799712E+03  0.48844591246E+03  0.12509000000E+03 0.  0.
<mgrwt>
<rscale>  2 0.45176693E+03</rscale>
<asrwt>0</asrwt>
<pdfrwt beam="1">  1       21 0.53331154E-02 0.45176693E+03</pdfrwt>
<pdfrwt beam="2">  1       21 0.20690457E+00 0.45176693E+03</pdfrwt>
<totfact> 0.25845972E+04</totfact>
</mgrwt>
</event>
<event>
 7    0  0.4752811E-002  0.4222633E+03  0.7546771E-02  0.1036332E+00
         21   -1    0    0  502  501  0.00000000000E+00  0.00000000000E+00  0.15443761233E+03  0.15443761233E+03  0.00000000000E+00 0. -1.
         21   -1    0    0  501  502 -0.00000000000E+00 -0.00000000000E+00 -0.28863803192E+03  0.28863803192E+03  0.00000000000E+00 0. -1.
      99926    2    1    2    0    0  0.00000000000E+00  0.14210854715E-13 -0.13420041959E+03  0.44307564425E+03  0.42226327558E+03 0.  0.
      99925    2    3    3    0    0  0.11088166803E+02  0.65714575927E+02 -0.13109755609E+03  0.30130650517E+03  0.26297849325E+03 0.  0.
         25    1    4    4    0    0 -0.18014575079E+01 -0.40390364677E+01 -0.41468625627E+02  0.13185868980E+03  0.12509000000E+03 0.  0.
         25    1    3    3    0    0 -0.11088166803E+02 -0.65714575927E+02 -0.31028634997E+01  0.14176913908E+03  0.12509000000E+03 0.  0.
         25    1    4    4    0    0  0.12889624311E+02  0.69753612395E+02 -0.89628930464E+02  0.16944781537E+03  0.12509000000E+03 0.  0.
<mgrwt>
<rscale>  2 0.42226328E+03</rscale>
<asrwt>0</asrwt>
<pdfrwt beam="1">  1       21 0.22711414E-01 0.42226328E+03</pdfrwt>
<pdfrwt beam="2">  1       21 0.42446769E-01 0.42226328E+03</pdfrwt>
<totfact> 0.90903457E+04</totfact>
</mgrwt>
</event>
<event>
 7    0  0.4752811E-002  0.4547305E+03  0.7546771E-02  0.1026321E+00
         21   -1    0    0  502  501  0.00000000000E+00  0.00000000000E+00  0.79883526159E+03  0.79883526159E+03  0.00000000000E+00 0.  1.
         21   -1    0    0  501  502 -0.00000000000E+00 -0.00000000000E+00 -0.64712918566E+02  0.64712918566E+02  0.00000000000E+00 0.  1.
      99926    2    1    2    0    0  0.00000000000E+00  0.00000000000E+00  0.73412234302E+03  0.86354818015E+03  0.45473051901E+03 0.  0.
      99925    2    3    3    0    0 -0.34569649116E+02 -0.10314373642E+03  0.40335133111E+03  0.49356080006E+03  0.26282365961E+03 0.  0.
         25    1    4    4    0    0 -0.12992602743E+02 -0.63537079146E+02  0.27371810820E+03  0.30785528907E+03  0.12509000000E+03 0.  0.
         25    1    3    3    0    0  0.34569649116E+02  0.10314373642E+03  0.33077101191E+03  0.36998738009E+03  0.12509000000E+03 0.  0.
         25    1    4    4    0    0 -0.21577046373E+02 -0.39606657278E+02  0.12963322290E+03  0.18570551099E+03  0.12509000000E+03 0.  0.
<mgrwt>
<rscale>  2 0.45473052E+03</rscale>
<asrwt>0</asrwt>
<pdfrwt beam="1">  1       21 0.11747577E+00 0.45473052E+03</pdfrwt>
<pdfrwt beam="2">  1       21 0.95166061E-02 0.45473052E+03</pdfrwt>
<totfact> 0.44934104E+04</totfact>
</mgrwt>
</event>
<event>
 7    0  0.4752811E-002  0.4296160E+03  0.7546771E-02  0.1033981E+00
         21   -1    0    0  502  501  0.00000000000E+00  0.00000000000E+00  0.15222166967E+02  0.15222166967E+02  0.00000000000E+00 0.  1.
         21   -1    0    0  501  502 -0.00000000000E+00 -0.00000000000E+00 -0.30312692388E+04  0.30312692388E+04  0.00000000000E+00 0.  1.
      99926    2    1    2    0    0  0.00000000000E+00  0.00000000000E+00 -0.30160470719E+04  0.30464914058E+04  0.42961604475E+03 0.  0.
      99925    2    3    3    0    0 -0.85572746864E+02  0.87818309275E+01 -0.20479225371E+04  0.20665360811E+04  0.26303011391E+03 0.  0.
         25    1    3    3    0    0  0.85572746864E+02 -0.87818309275E+01 -0.96812453476E+03  0.97995532473E+03  0.12509000000E+03 0.  0.
         25    1    4    4    0    0 -0.82473093546E+02  0.18439987327E+01 -0.12238750168E+04  0.12330136967E+04  0.12509000000E+03 0.  0.
         25    1    4    4    0    0 -0.30996533178E+01  0.69378321948E+01 -0.82404752034E+03  0.83352238437E+03  0.12509000000E+03 0.  0.
<mgrwt>
<rscale>  2 0.42961604E+03</rscale>
<asrwt>0</asrwt>
<pdfrwt beam="1">  1       21 0.22385537E-02 0.42961604E+03</pdfrwt>
<pdfrwt beam="2">  1       21 0.44577495E+00 0.42961604E+03</pdfrwt>
<totfact> 0.36695713E+03</totfact>
</mgrwt>
</event>
<event>
 7    0  0.4752811E-002  0.4533776E+03  0.7546771E-02  0.1026720E+00
         21   -1    0    0  502  501  0.00000000000E+00  0.00000000000E+00  0.30467781439E+03  0.30467781439E+03  0.00000000000E+00 0.  1.
         21   -1    0    0  501  502 -0.00000000000E+00 -0.00000000000E+00 -0.16866282458E+03  0.16866282458E+03  0.00000000000E+00 0.  1.
      99926    2    1    2    0    0  0.00000000000E+00  0.00000000000E+00  0.13601498981E+03  0.47334063897E+03  0.45337763845E+03 0.  0.
      99925    2    3    3    0    0 -0.56674870777E+02 -0.81004661356E+02  0.31528621057E+02  0.28271350162E+03  0.26298112844E+03 0.  0.
         25    1    4    4    0    0  0.35395668186E+01 -0.64948026319E+02  0.10423391933E+02  0.14137513875E+03  0.12509000000E+03 0.  0.
         25    1    4    4    0    0 -0.60214437595E+02 -0.16056635037E+02  0.21105229124E+02  0.14133836287E+03  0.12509000000E+03 0.  0.
         25    1    3    3    0    0  0.56674870777E+02  0.81004661356E+02  0.10448636876E+03  0.19062713735E+03  0.12509000000E+03 0.  0.
<mgrwt>
<rscale>  2 0.45337764E+03</rscale>
<asrwt>0</asrwt>
<pdfrwt beam="1">  1       21 0.44805561E-01 0.45337764E+03</pdfrwt>
<pdfrwt beam="2">  1       21 0.24803357E-01 0.45337764E+03</pdfrwt>
<totfact> 0.68060171E+04</totfact>
</mgrwt>
</event>
<event>
 7    0  0.4752811E-002  0.4617742E+03  0.7546771E-02  0.1024268E+00
         21   -1    0    0  502  501  0.00000000000E+00  0.00000000000E+00  0.15002435057E+04  0.15002435057E+04  0.00000000000E+00 0. -1.
         21   -1    0    0  501  502 -0.00000000000E+00 -0.00000000000E+00 -0.35533460014E+02  0.35533460014E+02  0.00000000000E+00 0. -1.
      99926    2    1    2    0    0 -0.71054273576E-14  0.00000000000E+00  0.14647100457E+04  0.15357769657E+04  0.46177415528E+03 0.  0.
      99925    2    3    3    0    0 -0.34262228487E+02  0.84936302856E+02  0.66141359651E+03  0.71765669998E+03  0.26301163004E+03 0.  0.
         25    1    3    3    0    0  0.34262228487E+02 -0.84936302856E+02  0.80329644920E+03  0.81812026576E+03  0.12509000000E+03 0.  0.
         25    1    4    4    0    0 -0.44535734698E+02  0.14474577991E+02  0.28813362234E+03  0.31758689755E+03  0.12509000000E+03 0.  0.
         25    1    4    4    0    0  0.10273506211E+02  0.70461724865E+02  0.37327997417E+03  0.40006980244E+03  0.12509000000E+03 0.  0.
<mgrwt>
<rscale>  2 0.46177416E+03</rscale>
<asrwt>0</asrwt>
<pdfrwt beam="1">  1       21 0.22062400E+00 0.46177416E+03</pdfrwt>
<pdfrwt beam="2">  1       21 0.52255098E-02 0.46177416E+03</pdfrwt>
<totfact> 0.21748828E+04</totfact>
</mgrwt>
</event>
<event>
 6    0  0.4752811E-002  0.4566689E+03  0.7546771E-02  0.1025752E+00
         21   -1    0    0  502  501  0.00000000000E+00  0.00000000000E+00  0.11592532458E+04  0.11592532458E+04  0.00000000000E+00 0. -1.
         21   -1    0    0  501  502 -0.00000000000E+00 -0.00000000000E+00 -0.44974312838E+02  0.44974312838E+02  0.00000000000E+00 0. -1.
      99926    2    1    2    0    0  0.00000000000E+00 -0.35527136788E-14  0.11142789329E+04  0.12042275586E+04  0.45666888720E+03 0.  0.
         25    1    3    3    0    0 -0.77332689758E+02 -0.80847482952E+02  0.44362892491E+03  0.47431085958E+03  0.12509000000E+03 0.  0.
         25    1    3    3    0    0  0.17439282758E+02  0.52664506388E+02  0.42416406699E+03  0.44569085994E+03  0.12509000000E+03 0.  0.
         25    1    3    3    0    0  0.59893407000E+02  0.28182976563E+02  0.24648594103E+03  0.28422583907E+03  0.12509000000E+03 0.  0.
<mgrwt>
<rscale>  2 0.45666889E+03</rscale>
<asrwt>0</asrwt>
<pdfrwt beam="1">  1       21 0.17047840E+00 0.45666889E+03</pdfrwt>
<pdfrwt beam="2">  1       21 0.66138703E-02 0.45666889E+03</pdfrwt>
<totfact> 0.31609324E+04</totfact>
</mgrwt>
</event>
<event>
 7    0  0.4752811E-002  0.4584345E+03  0.7546771E-02  0.1025236E+00
         21   -1    0    0  502  501  0.00000000000E+00  0.00000000000E+00  0.10124853555E+03  0.10124853555E+03  0.00000000000E+00 0. -1.
         21   -1    0    0  501  502 -0.00000000000E+00 -0.00000000000E+00 -0.51892641547E+03  0.51892641547E+03  0.00000000000E+00 0. -1.
      99926    2    1    2    0    0  0.00000000000E+00  0.71054273576E-14 -0.41767787993E+03  0.62017495102E+03  0.45843446477E+03 0.  0.
      99925    2    3    3    0    0 -0.70456969682E+02  0.42783389438E+02 -0.15075095498E+03  0.31408330731E+03  0.26292179543E+03 0.  0.
         25    1    4    4    0    0 -0.18948636826E+02 -0.10832971022E+02 -0.47138753206E+02  0.13544731172E+03  0.12509000000E+03 0.  0.
         25    1    4    4    0    0 -0.51508332856E+02  0.53616360460E+02 -0.10361220178E+03  0.17863599559E+03  0.12509000000E+03 0.  0.
         25    1    3    3    0    0  0.70456969682E+02 -0.42783389438E+02 -0.26692692495E+03  0.30609164371E+03  0.12509000000E+03 0.  0.
<mgrwt>
<rscale>  2 0.45843446E+03</rscale>
<asrwt>0</asrwt>
<pdfrwt beam="1">  1       21 0.14889491E-01 0.45843446E+03</pdfrwt>
<pdfrwt beam="2">  1       21 0.76312708E-01 0.45843446E+03</pdfrwt>
<totfact> 0.55921191E+04</totfact>
</mgrwt>
</event>
<event>
 7    0  0.4752811E-002  0.4457445E+03  0.7546771E-02  0.1028999E+00
         21   -1    0    0  502  501  0.00000000000E+00  0.00000000000E+00  0.14231518494E+03  0.14231518494E+03  0.00000000000E+00 0.  1.
         21   -1    0    0  501  502 -0.00000000000E+00 -0.00000000000E+00 -0.34902845739E+03  0.34902845739E+03  0.00000000000E+00 0.  1.
      99926    2    1    2    0    0  0.00000000000E+00  0.00000000000E+00 -0.20671327245E+03  0.49134364232E+03  0.44574454326E+03 0.  0.
      99925    2    3    3    0    0  0.78285851588E+02 -0.18180848426E+02 -0.20444628831E+03  0.34264305347E+03  0.26295771424E+03 0.  0.
         25    1    4    4    0    0  0.21563866388E+02  0.13272986831E+02 -0.13420171270E+03  0.18519929888E+03  0.12509000000E+03 0.  0.
         25    1    4    4    0    0  0.56721985200E+02 -0.31453835256E+02 -0.70244575614E+02  0.15744375459E+03  0.12509000000E+03 0.  0.
         25    1    3    3    0    0 -0.78285851588E+02  0.18180848426E+02 -0.22669841396E+01  0.14870058885E+03  0.12509000000E+03 0.  0.
<mgrwt>
<rscale>  2 0.44574454E+03</rscale>
<asrwt>0</asrwt>
<pdfrwt beam="1">  1       21 0.20928704E-01 0.44574454E+03</pdfrwt>
<pdfrwt beam="2">  1       21 0.51327714E-01 0.44574454E+03</pdfrwt>
<totfact> 0.70954911E+04</totfact>
</mgrwt>
</event>
<event>
 6    0  0.4752811E-002  0.4561649E+03  0.7546771E-02  0.1025899E+00
         21   -1    0    0  502  501  0.00000000000E+00  0.00000000000E+00  0.75073984772E+02  0.75073984772E+02  0.00000000000E+00 0. -1.
         21   -1    0    0  501  502 -0.00000000000E+00 -0.00000000000E+00 -0.69293768404E+03  0.69293768404E+03  0.00000000000E+00 0. -1.
      99926    2    1    2    0    0  0.00000000000E+00  0.00000000000E+00 -0.61786369927E+03  0.76801166882E+03  0.45616485239E+03 0.  0.
         25    1    3    3    0    0 -0.38853284969E+02 -0.72807918344E+02 -0.22308180144E+03  0.26874443057E+03  0.12509000000E+03 0.  0.
         25    1    3    3    0    0 -0.13227668398E+02 -0.89366146261E+01 -0.87052857446E+02  0.15323362027E+03  0.12509000000E+03 0.  0.
         25    1    3    3    0    0  0.52080953367E+02  0.81744532970E+02 -0.30772904038E+03  0.34603361797E+03  0.12509000000E+03 0.  0.
<mgrwt>
<rscale>  2 0.45616485E+03</rscale>
<asrwt>0</asrwt>
<pdfrwt beam="1">  1       21 0.11040292E-01 0.45616485E+03</pdfrwt>
<pdfrwt beam="2">  1       21 0.10190260E+00 0.45616485E+03</pdfrwt>
<totfact> 0.48902143E+04</totfact>
</mgrwt>
</event>
<event>
 7    0  0.4752811E-002  0.4577728E+03  0.7546771E-02  0.1025429E+00
         21   -1    0    0  502  501  0.00000000000E+00  0.00000000000E+00  0.18776621457E+03  0.18776621457E+03  0.00000000000E+00 0. -1.
         21   -1    0    0  501  502 -0.00000000000E+00 -0.00000000000E+00 -0.27901180407E+03  0.27901180407E+03  0.00000000000E+00 0. -1.
      99926    2    1    2    0    0  0.17763568394E-14 -0.88817841970E-15 -0.91245589493E+02  0.46677801864E+03  0.45777282694E+03 0.  0.
      99925    2    3    3    0    0  0.13381532053E+02  0.66948073951E+01 -0.17428941263E+03  0.31588842156E+03  0.26303005470E+03 0.  0.
         25    1    3    3    0    0 -0.13381532053E+02 -0.66948073951E+01  0.83043823138E+02  0.15088959708E+03  0.12509000000E+03 0.  0.
         25    1    4    4    0    0 -0.21116104146E+02  0.65221900272E+01 -0.50955319102E+02  0.13686629045E+03  0.12509000000E+03 0.  0.
         25    1    4    4    0    0  0.34497636200E+02  0.17261736792E+00 -0.12333409353E+03  0.17902213111E+03  0.12509000000E+03 0.  0.
<mgrwt>
<rscale>  2 0.45777283E+03</rscale>
<asrwt>0</asrwt>
<pdfrwt beam="1">  1       21 0.27612679E-01 0.45777283E+03</pdfrwt>
<pdfrwt beam="2">  1       21 0.41031148E-01 0.45777283E+03</pdfrwt>
<totfact> 0.66207053E+04</totfact>
</mgrwt>
</event>
<event>
 7    0  0.4752811E-002  0.4508528E+03  0.7546771E-02  0.1027468E+00
         21   -1    0    0  502  501  0.00000000000E+00  0.00000000000E+00  0.12150203491E+03  0.12150203491E+03  0.00000000000E+00 0.  1.
         21   -1    0    0  501  502 -0.00000000000E+00 -0.00000000000E+00 -0.41824038388E+03  0.41824038388E+03  0.00000000000E+00 0.  1.
      99926    2    1    2    0    0  0.00000000000E+00  0.00000000000E+00 -0.29673834896E+03  0.53974241879E+03  0.45085278185E+03 0.  0.
      99925    2    3    3    0    0  0.98373695257E+02  0.70511615954E+01 -0.24383330012E+03  0.37189261959E+03  0.26291127678E+03 0.  0.
         25    1    3    3    0    0 -0.98373695257E+02 -0.70511615954E+01 -0.52905048842E+02  0.16784979920E+03  0.12509000000E+03 0.  0.
         25    1    4    4    0    0  0.82156925571E+02  0.29723273057E+02 -0.12859458589E+03  0.19954274981E+03  0.12509000000E+03 0.  0.
         25    1    4    4    0    0  0.16216769687E+02 -0.22672111462E+02 -0.11523871423E+03  0.17234986978E+03  0.12509000000E+03 0.  0.
<mgrwt>
<rscale>  2 0.45085278E+03</rscale>
<asrwt>0</asrwt>
<pdfrwt beam="1">  1       21 0.17867946E-01 0.45085278E+03</pdfrwt>
<pdfrwt beam="2">  1       21 0.61505938E-01 0.45085278E+03</pdfrwt>
<totfact> 0.64645191E+04</totfact>
</mgrwt>
</event>
<event>
 7    0  0.4752811E-002  0.4540860E+03  0.7546771E-02  0.1026511E+00
         21   -1    0    0  502  501  0.00000000000E+00  0.00000000000E+00  0.84705624251E+02  0.84705624251E+02  0.00000000000E+00 0.  1.
         21   -1    0    0  501  502 -0.00000000000E+00 -0.00000000000E+00 -0.60856080104E+03  0.60856080104E+03  0.00000000000E+00 0.  1.
      99926    2    1    2    0    0  0.88817841970E-15  0.00000000000E+00 -0.52385517679E+03  0.69326642529E+03  0.45408599427E+03 0.  0.
      99925    2    3    3    0    0 -0.63435754783E+01 -0.48496933699E+02 -0.17551418455E+03  0.31992857762E+03  0.26297694247E+03 0.  0.
         25    1    3    3    0    0  0.63435754783E+01  0.48496933699E+02 -0.34834099224E+03  0.37333784767E+03  0.12509000000E+03 0.  0.
         25    1    4    4    0    0 -0.14537932119E+02 -0.16177829405E+02 -0.41448110466E+02  0.13356095086E+03  0.12509000000E+03 0.  0.
         25    1    4    4    0    0  0.81943566408E+01 -0.32319104294E+02 -0.13406607408E+03  0.18636762676E+03  0.12509000000E+03 0.  0.
<mgrwt>
<rscale>  2 0.45408599E+03</rscale>
<asrwt>0</asrwt>
<pdfrwt beam="1">  1       21 0.12456709E-01 0.45408599E+03</pdfrwt>
<pdfrwt beam="2">  1       21 0.89494238E-01 0.45408599E+03</pdfrwt>
<totfact> 0.53655096E+04</totfact>
</mgrwt>
</event>
<event>
 7    0  0.4752811E-002  0.4547504E+03  0.7546771E-02  0.1026315E+00
         21   -1    0    0  502  501  0.00000000000E+00  0.00000000000E+00  0.46629139156E+03  0.46629139156E+03  0.00000000000E+00 0. -1.
         21   -1    0    0  501  502 -0.00000000000E+00 -0.00000000000E+00 -0.11087377901E+03  0.11087377901E+03  0.00000000000E+00 0. -1.
      99926    2    1    2    0    0  0.00000000000E+00  0.71054273576E-14  0.35541761254E+03  0.57716517057E+03  0.45475043135E+03 0.  0.
      99925    2    3    3    0    0 -0.71689005111E+02  0.58549135459E+02  0.30576553465E+03  0.41382457042E+03  0.26304162824E+03 0.  0.
         25    1    4    4    0    0 -0.58476836847E+02  0.16832207550E+02  0.20317369781E+03  0.24623144243E+03  0.12509000000E+03 0.  0.
         25    1    3    3    0    0  0.71689005111E+02 -0.58549135459E+02  0.49652077889E+02  0.16334060014E+03  0.12509000000E+03 0.  0.
         25    1    4    4    0    0 -0.13212168264E+02  0.41716927909E+02  0.10259183685E+03  0.16759312800E+03  0.12509000000E+03 0.  0.
<mgrwt>
<rscale>  2 0.45475043E+03</rscale>
<asrwt>0</asrwt>
<pdfrwt beam="1">  1       21 0.68572263E-01 0.45475043E+03</pdfrwt>
<pdfrwt beam="2">  1       21 0.16304968E-01 0.45475043E+03</pdfrwt>
<totfact> 0.60225042E+04</totfact>
</mgrwt>
</event>
<event>
 7    0  0.4752811E-002  0.4622647E+03  0.7546771E-02  0.1024126E+00
         21   -1    0    0  502  501  0.00000000000E+00  0.00000000000E+00  0.76365240867E+03  0.76365240867E+03  0.00000000000E+00 0. -1.
         21   -1    0    0  501  502 -0.00000000000E+00 -0.00000000000E+00 -0.69956117343E+02  0.69956117343E+02  0.00000000000E+00 0. -1.
      99926    2    1    2    0    0  0.00000000000E+00  0.00000000000E+00  0.69369629133E+03  0.83360852601E+03  0.46226467531E+03 0.  0.
      99925    2    3    3    0    0  0.31699724903E+02 -0.11086259492E+03  0.49285616453E+03  0.57039824479E+03  0.26296686337E+03 0.  0.
         25    1    4    4    0    0  0.41634947849E+02 -0.33049852663E+02  0.28126252892E+03  0.31238098521E+03  0.12509000000E+03 0.  0.
         25    1    3    3    0    0 -0.31699724903E+02  0.11086259492E+03  0.20084012679E+03  0.26321028122E+03  0.12509000000E+03 0.  0.
         25    1    4    4    0    0 -0.99352229455E+01 -0.77812742253E+02  0.21159363561E+03  0.25801725958E+03  0.12509000000E+03 0.  0.
<mgrwt>
<rscale>  2 0.46226468E+03</rscale>
<asrwt>0</asrwt>
<pdfrwt beam="1">  1       21 0.11230182E+00 0.46226468E+03</pdfrwt>
<pdfrwt beam="2">  1       21 0.10287665E-01 0.46226468E+03</pdfrwt>
<totfact> 0.43640654E+04</totfact>
</mgrwt>
</event>
<event>
 7    0  0.4752811E-002  0.4683762E+03  0.7546771E-02  0.1022380E+00
         21   -1    0    0  502  501  0.00000000000E+00  0.00000000000E+00  0.57076623410E+02  0.57076623410E+02  0.00000000000E+00 0.  1.
         21   -1    0    0  501  502 -0.00000000000E+00 -0.00000000000E+00 -0.96088508730E+03  0.96088508730E+03  0.00000000000E+00 0.  1.
      99926    2    1    2    0    0 -0.14210854715E-13  0.00000000000E+00 -0.90380846389E+03  0.10179617107E+04  0.46837624307E+03 0.  0.
      99925    2    3    3    0    0  0.10073614820E+03  0.22661380249E+02 -0.71632898104E+03  0.77005573196E+03  0.26305381872E+03 0.  0.
         25    1    4    4    0    0  0.68701000428E+02 -0.13674814138E+02 -0.29698868941E+03  0.32978268259E+03  0.12509000000E+03 0.  0.
         25    1    4    4    0    0  0.32035147773E+02  0.36336194387E+02 -0.41934029163E+03  0.44027304937E+03  0.12509000000E+03 0.  0.
         25    1    3    3    0    0 -0.10073614820E+03 -0.22661380249E+02 -0.18747948285E+03  0.24790597875E+03  0.12509000000E+03 0.  0.
<mgrwt>
<rscale>  2 0.46837624E+03</rscale>
<asrwt>0</asrwt>
<pdfrwt beam="1">  1       21 0.83936215E-02 0.46837624E+03</pdfrwt>
<pdfrwt beam="2">  1       21 0.14130662E+00 0.46837624E+03</pdfrwt>
<totfact> 0.34706271E+04</totfact>
</mgrwt>
</event>
<event>
 7    0  0.4752811E-002  0.4460773E+03  0.7546771E-02  0.1028898E+00
         21   -1    0    0  502  501  0.00000000000E+00  0.00000000000E+00  0.56032772974E+02  0.56032772974E+02  0.00000000000E+00 0.  1.
         21   -1    0    0  501  502 -0.00000000000E+00 -0.00000000000E+00 -0.88780627681E+03  0.88780627681E+03  0.00000000000E+00 0.  1.
      99926    2    1    2    0    0  0.14210854715E-13  0.00000000000E+00 -0.83177350383E+03  0.94383904978E+03  0.44607733658E+03 0.  0.
      99925    2    3    3    0    0 -0.10338574877E+03  0.11583990671E+02 -0.50429697433E+03  0.57817364621E+03  0.26295726834E+03 0.  0.
         25    1    4    4    0    0 -0.85744577591E+02 -0.17915087521E+02 -0.25825830284E+03  0.30002990190E+03  0.12509000000E+03 0.  0.
         25    1    4    4    0    0 -0.17641171182E+02  0.29499078192E+02 -0.24603867149E+03  0.27814374432E+03  0.12509000000E+03 0.  0.
         25    1    3    3    0    0  0.10338574877E+03 -0.11583990671E+02 -0.32747652950E+03  0.36566540357E+03  0.12509000000E+03 0.  0.
<mgrwt>
<rscale>  2 0.44607734E+03</rscale>
<asrwt>0</asrwt>
<pdfrwt beam="1">  1       21 0.82401141E-02 0.44607734E+03</pdfrwt>
<pdfrwt beam="2">  1       21 0.13055974E+00 0.44607734E+03</pdfrwt>
<totfact> 0.44410054E+04</totfact>
</mgrwt>
</event>
<event>
 7    0  0.4752811E-002  0.4626289E+03  0.7546771E-02  0.1024022E+00
         21   -1    0    0  502  501  0.00000000000E+00  0.00000000000E+00  0.52713219472E+02  0.52713219472E+02  0.00000000000E+00 0.  1.
         21   -1    0    0  501  502 -0.00000000000E+00 -0.00000000000E+00 -0.10150467278E+04  0.10150467278E+04  0.00000000000E+00 0.  1.
      99926    2    1    2    0    0 -0.71054273576E-14  0.00000000000E+00 -0.96233350836E+03  0.10677599473E+04  0.46262892663E+03 0.  0.
      99925    2    3    3    0    0  0.36104041802E+02  0.83521744327E+02 -0.78272284072E+03  0.83072222111E+03  0.26299235664E+03 0.  0.
         25    1    4    4    0    0  0.25848744338E+02  0.69528152861E+02 -0.50716264882E+03  0.52760191629E+03  0.12509000000E+03 0.  0.
         25    1    3    3    0    0 -0.36104041802E+02 -0.83521744327E+02 -0.17961066765E+03  0.23703772620E+03  0.12509000000E+03 0.  0.
         25    1    4    4    0    0  0.10255297464E+02  0.13993591466E+02 -0.27556019190E+03  0.30312030481E+03  0.12509000000E+03 0.  0.
<mgrwt>
<rscale>  2 0.46262893E+03</rscale>
<asrwt>0</asrwt>
<pdfrwt beam="1">  1       21 0.77519446E-02 0.46262893E+03</pdfrwt>
<pdfrwt beam="2">  1       21 0.14927157E+00 0.46262893E+03</pdfrwt>
<totfact> 0.34530369E+04</totfact>
</mgrwt>
</event>
<event>
 7    0  0.4752811E-002  0.4133725E+03  0.7546771E-02  0.1039245E+00
         21   -1    0    0  502  501  0.00000000000E+00  0.00000000000E+00  0.39715766117E+02  0.39715766117E+02  0.00000000000E+00 0. -1.
         21   -1    0    0  501  502 -0.00000000000E+00 -0.00000000000E+00 -0.10756236017E+04  0.10756236017E+04  0.00000000000E+00 0. -1.
      99926    2    1    2    0    0  0.00000000000E+00  0.00000000000E+00 -0.10359078356E+04  0.11153393678E+04  0.41337254574E+03 0.  0.
      99925    2    3    3    0    0  0.32685356170E+02  0.55224630530E+02 -0.73335485968E+03  0.78171697101E+03  0.26297144373E+03 0.  0.
         25    1    4    4    0    0  0.90827564760E+01  0.60427755991E+02 -0.31500464989E+03  0.34439722373E+03  0.12509000000E+03 0.  0.
         25    1    3    3    0    0 -0.32685356170E+02 -0.55224630530E+02 -0.30255297588E+03  0.33362239679E+03  0.12509000000E+03 0.  0.
         25    1    4    4    0    0  0.23602599694E+02 -0.52031254613E+01 -0.41835020979E+03  0.43731974728E+03  0.12509000000E+03 0.  0.
<mgrwt>
<rscale>  2 0.41337255E+03</rscale>
<asrwt>0</asrwt>
<pdfrwt beam="1">  1       21 0.58405538E-02 0.41337255E+03</pdfrwt>
<pdfrwt beam="2">  1       21 0.15817994E+00 0.41337255E+03</pdfrwt>
<totfact> 0.49047273E+04</totfact>
</mgrwt>
</event>
<event>
 7    0  0.4752811E-002  0.4556299E+03  0.7546771E-02  0.1026056E+00
         21   -1    0    0  502  501  0.00000000000E+00  0.00000000000E+00  0.32392754033E+02  0.32392754033E+02  0.00000000000E+00 0.  1.
         21   -1    0    0  501  502 -0.00000000000E+00 -0.00000000000E+00 -0.16021994289E+04  0.16021994289E+04  0.00000000000E+00 0.  1.
      99926    2    1    2    0    0  0.00000000000E+00  0.00000000000E+00 -0.15698066748E+04  0.16345921829E+04  0.45562990249E+03 0.  0.
      99925    2    3    3    0    0 -0.73850742913E+02 -0.76640775977E+02 -0.11317431337E+04  0.11667514889E+04  0.26294253261E+03 0.  0.
         25    1    4    4    0    0 -0.60204563634E+02 -0.53717142738E+02 -0.73426504455E+03  0.74920143130E+03  0.12509000000E+03 0.  0.
         25    1    3    3    0    0  0.73850742913E+02  0.76640775977E+02 -0.43806354118E+03  0.46784069402E+03  0.12509000000E+03 0.  0.
         25    1    4    4    0    0 -0.13646179279E+02 -0.22923633239E+02 -0.39747808910E+03  0.41755005758E+03  0.12509000000E+03 0.  0.
<mgrwt>
<rscale>  2 0.45562990E+03</rscale>
<asrwt>0</asrwt>
<pdfrwt beam="1">  1       21 0.47636392E-02 0.45562990E+03</pdfrwt>
<pdfrwt beam="2">  1       21 0.23561762E+00 0.45562990E+03</pdfrwt>
<totfact> 0.20558499E+04</totfact>
</mgrwt>
</event>
<event>
 7    0  0.4752811E-002  0.4582037E+03  0.7546771E-02  0.1025303E+00
         21   -1    0    0  502  501  0.00000000000E+00  0.00000000000E+00  0.24439308144E+03  0.24439308144E+03  0.00000000000E+00 0.  1.
         21   -1    0    0  501  502 -0.00000000000E+00 -0.00000000000E+00 -0.21476739825E+03  0.21476739825E+03  0.00000000000E+00 0.  1.
      99926    2    1    2    0    0 -0.71054273576E-14  0.14210854715E-13  0.29625683194E+02  0.45916047968E+03  0.45820373744E+03 0.  0.
      99925    2    3    3    0    0  0.34679282104E+02 -0.90526181695E+02  0.82677032092E+02  0.29224853913E+03  0.26301344986E+03 0.  0.
         25    1    4    4    0    0  0.14717734017E+02 -0.80639941901E+02  0.68188478377E+02  0.16436723703E+03  0.12509000000E+03 0.  0.
         25    1    3    3    0    0 -0.34679282104E+02  0.90526181695E+02 -0.53051348898E+02  0.16691194055E+03  0.12509000000E+03 0.  0.
         25    1    4    4    0    0  0.19961548088E+02 -0.98862397943E+01  0.14488553715E+02  0.12788130211E+03  0.12509000000E+03 0.  0.
<mgrwt>
<rscale>  2 0.45820374E+03</rscale>
<asrwt>0</asrwt>
<pdfrwt beam="1">  1       21 0.35940159E-01 0.45820374E+03</pdfrwt>
<pdfrwt beam="2">  1       21 0.31583441E-01 0.45820374E+03</pdfrwt>
<totfact> 0.66525256E+04</totfact>
</mgrwt>
</event>
<event>
 7    0  0.4752811E-002  0.4398896E+03  0.7546771E-02  0.1030781E+00
         21   -1    0    0  502  501  0.00000000000E+00  0.00000000000E+00  0.34888217145E+03  0.34888217145E+03  0.00000000000E+00 0.  1.
         21   -1    0    0  501  502 -0.00000000000E+00 -0.00000000000E+00 -0.13865920384E+03  0.13865920384E+03  0.00000000000E+00 0.  1.
      99926    2    1    2    0    0  0.00000000000E+00  0.14210854715E-13  0.21022296761E+03  0.48754137528E+03  0.43988964128E+03 0.  0.
      99925    2    3    3    0    0 -0.32185604013E+02  0.81484882140E+02  0.18309686399E+03  0.33243163116E+03  0.26326911834E+03 0.  0.
         25    1    3    3    0    0  0.32185604013E+02 -0.81484882140E+02  0.27126103620E+02  0.15510974412E+03  0.12509000000E+03 0.  0.
         25    1    4    4    0    0 -0.32643868000E+02  0.78336048376E+02  0.11529845896E+03  0.19011417972E+03  0.12509000000E+03 0.  0.
         25    1    4    4    0    0  0.45826398726E+00  0.31488337635E+01  0.67798405027E+02  0.14231745144E+03  0.12509000000E+03 0.  0.
<mgrwt>
<rscale>  2 0.43988964E+03</rscale>
<asrwt>0</asrwt>
<pdfrwt beam="1">  1       21 0.51306202E-01 0.43988964E+03</pdfrwt>
<pdfrwt beam="2">  1       21 0.20391059E-01 0.43988964E+03</pdfrwt>
<totfact> 0.74724099E+04</totfact>
</mgrwt>
</event>
<event>
 7    0  0.4752811E-002  0.4517286E+03  0.7546771E-02  0.1027208E+00
         21   -1    0    0  502  501  0.00000000000E+00  0.00000000000E+00  0.45550810258E+02  0.45550810258E+02  0.00000000000E+00 0.  1.
         21   -1    0    0  501  502 -0.00000000000E+00 -0.00000000000E+00 -0.11199510144E+04  0.11199510144E+04  0.00000000000E+00 0.  1.
      99926    2    1    2    0    0  0.00000000000E+00 -0.14210854715E-13 -0.10744002041E+04  0.11655018247E+04  0.45172857406E+03 0.  0.
      99925    2    3    3    0    0  0.52238718618E+01  0.10781135966E+03 -0.62395769339E+03  0.68571380720E+03  0.26311526775E+03 0.  0.
         25    1    4    4    0    0  0.87799638591E+01  0.18291128781E+02 -0.22695650751E+03  0.25993925744E+03  0.12509000000E+03 0.  0.
         25    1    3    3    0    0 -0.52238718618E+01 -0.10781135966E+03 -0.45044251075E+03  0.47978801746E+03  0.12509000000E+03 0.  0.
         25    1    4    4    0    0 -0.35560919972E+01  0.89520230882E+02 -0.39700118588E+03  0.42577454976E+03  0.12509000000E+03 0.  0.
<mgrwt>
<rscale>  2 0.45172857E+03</rscale>
<asrwt>0</asrwt>
<pdfrwt beam="1">  1       21 0.66986501E-02 0.45172857E+03</pdfrwt>
<pdfrwt beam="2">  1       21 0.16469864E+00 0.45172857E+03</pdfrwt>
<totfact> 0.34130812E+04</totfact>
</mgrwt>
</event>
<event>
 7    0  0.4752811E-002  0.4650636E+03  0.7546771E-02  0.1023323E+00
         21   -1    0    0  502  501  0.00000000000E+00  0.00000000000E+00  0.23406163716E+03  0.23406163716E+03  0.00000000000E+00 0.  1.
         21   -1    0    0  501  502 -0.00000000000E+00 -0.00000000000E+00 -0.23101197277E+03  0.23101197277E+03  0.00000000000E+00 0.  1.
      99926    2    1    2    0    0 -0.17763568394E-14  0.00000000000E+00  0.30496643846E+01  0.46507360993E+03  0.46506361092E+03 0.  0.
      99925    2    3    3    0    0  0.13523627431E+02 -0.71929937019E+02 -0.96038868937E+02  0.28950923463E+03  0.26312606913E+03 0.  0.
         25    1    3    3    0    0 -0.13523627431E+02  0.71929937019E+02  0.99088533322E+02  0.17556437530E+03  0.12509000000E+03 0.  0.
         25    1    4    4    0    0  0.71607861339E+01  0.50600348963E+01 -0.33926292729E+02  0.12990528184E+03  0.12509000000E+03 0.  0.
         25    1    4    4    0    0  0.63628412975E+01 -0.76989971916E+02 -0.62112576208E+02  0.15960395280E+03  0.12509000000E+03 0.  0.
<mgrwt>
<rscale>  2 0.46506361E+03</rscale>
<asrwt>0</asrwt>
<pdfrwt beam="1">  1       21 0.34420829E-01 0.46506361E+03</pdfrwt>
<pdfrwt beam="2">  1       21 0.33972349E-01 0.46506361E+03</pdfrwt>
<totfact> 0.62631751E+04</totfact>
</mgrwt>
</event>
<event>
 7    0  0.4752811E-002  0.4506699E+03  0.7546771E-02  0.1027522E+00
         21   -1    0    0  502  501  0.00000000000E+00  0.00000000000E+00  0.41192352465E+03  0.41192352465E+03  0.00000000000E+00 0. -1.
         21   -1    0    0  501  502 -0.00000000000E+00 -0.00000000000E+00 -0.12326519504E+03  0.12326519504E+03  0.00000000000E+00 0. -1.
      99926    2    1    2    0    0  0.00000000000E+00  0.71054273576E-14  0.28865832961E+03  0.53518871969E+03  0.45066987300E+03 0.  0.
      99925    2    3    3    0    0 -0.37908310463E+02  0.58118613705E+02  0.82280527714E+02  0.28408292829E+03  0.26290342646E+03 0.  0.
         25    1    4    4    0    0 -0.55054512873E+01  0.67363777482E+02  0.48146502468E+02  0.15011256546E+03  0.12509000000E+03 0.  0.
         25    1    3    3    0    0  0.37908310463E+02 -0.58118613705E+02  0.20637780189E+03  0.25110579140E+03  0.12509000000E+03 0.  0.
         25    1    4    4    0    0 -0.32402859176E+02 -0.92451637770E+01  0.34134025246E+02  0.13397036283E+03  0.12509000000E+03 0.  0.
<mgrwt>
<rscale>  2 0.45066987E+03</rscale>
<asrwt>0</asrwt>
<pdfrwt beam="1">  1       21 0.60576989E-01 0.45066987E+03</pdfrwt>
<pdfrwt beam="2">  1       21 0.18127235E-01 0.45066987E+03</pdfrwt>
<totfact> 0.65057138E+04</totfact>
</mgrwt>
</event>
<event>
 7    0  0.4752811E-002  0.4606487E+03  0.7546771E-02  0.1024593E+00
         21   -1    0    0  502  501  0.00000000000E+00  0.00000000000E+00  0.22941144168E+03  0.22941144168E+03  0.00000000000E+00 0. -1.
         21   -1    0    0  501  502 -0.00000000000E+00 -0.00000000000E+00 -0.23124092736E+03  0.23124092736E+03  0.00000000000E+00 0. -1.
      99926    2    1    2    0    0  0.14210854715E-13 -0.14210854715E-13 -0.18294856834E+01  0.46065236905E+03  0.46064873612E+03 0.  0.
      99925    2    3    3    0    0  0.75639006542E+02 -0.89480077917E+02 -0.18320517330E+02  0.28846814828E+03  0.26296442262E+03 0.  0.
         25    1    3    3    0    0 -0.75639006542E+02  0.89480077917E+02  0.16491031646E+02  0.17218422076E+03  0.12509000000E+03 0.  0.
         25    1    4    4    0    0  0.20547760948E+02 -0.18607258100E+02 -0.37032681537E+02  0.13336929233E+03  0.12509000000E+03 0.  0.
         25    1    4    4    0    0  0.55091245594E+02 -0.70872819817E+02  0.18712164208E+02  0.15509885596E+03  0.12509000000E+03 0.  0.
<mgrwt>
<rscale>  2 0.46064874E+03</rscale>
<asrwt>0</asrwt>
<pdfrwt beam="1">  1       21 0.33736977E-01 0.46064874E+03</pdfrwt>
<pdfrwt beam="2">  1       21 0.34006019E-01 0.46064874E+03</pdfrwt>
<totfact> 0.65147518E+04</totfact>
</mgrwt>
</event>
<event>
 7    0  0.4752811E-002  0.4102042E+03  0.7546771E-02  0.1040303E+00
         21   -1    0    0  502  501  0.00000000000E+00  0.00000000000E+00  0.20486799030E+03  0.20486799030E+03  0.00000000000E+00 0.  1.
         21   -1    0    0  501  502 -0.00000000000E+00 -0.00000000000E+00 -0.20533643115E+03  0.20533643115E+03  0.00000000000E+00 0.  1.
      99926    2    1    2    0    0  0.00000000000E+00  0.00000000000E+00 -0.46844085312E+00  0.41020442145E+03  0.41020415398E+03 0.  0.
      99925    2    3    3    0    0  0.33858390598E+02  0.51316028511E+02 -0.11315877242E+02  0.27040134433E+03  0.26307624853E+03 0.  0.
         25    1    4    4    0    0  0.22589599622E+02 -0.36415964848E+01  0.22638589607E+02  0.12916487555E+03  0.12509000000E+03 0.  0.
         25    1    4    4    0    0  0.11268790976E+02  0.54957624996E+02 -0.33954466849E+02  0.14123646878E+03  0.12509000000E+03 0.  0.
         25    1    3    3    0    0 -0.33858390598E+02 -0.51316028511E+02  0.10847436389E+02  0.13980307712E+03  0.12509000000E+03 0.  0.
<mgrwt>
<rscale>  2 0.41020415E+03</rscale>
<asrwt>0</asrwt>
<pdfrwt beam="1">  1       21 0.30127646E-01 0.41020415E+03</pdfrwt>
<pdfrwt beam="2">  1       21 0.30196534E-01 0.41020415E+03</pdfrwt>
<totfact> 0.10465674E+05</totfact>
</mgrwt>
</event>
<event>
 7    0  0.4752811E-002  0.4587630E+03  0.7546771E-02  0.1025141E+00
         21   -1    0    0  502  501  0.00000000000E+00  0.00000000000E+00  0.68486644038E+03  0.68486644038E+03  0.00000000000E+00 0.  1.
         21   -1    0    0  501  502 -0.00000000000E+00 -0.00000000000E+00 -0.76826458611E+02  0.76826458611E+02  0.00000000000E+00 0.  1.
      99926    2    1    2    0    0 -0.14210854715E-13 -0.71054273576E-14  0.60803998177E+03  0.76169289899E+03  0.45876295943E+03 0.  0.
      99925    2    3    3    0    0  0.99971863695E+02  0.41926068485E+02  0.30966195449E+03  0.42047577748E+03  0.26297753638E+03 0.  0.
         25    1    4    4    0    0  0.67804919636E+02  0.37888563570E+02  0.11501560015E+03  0.18683989604E+03  0.12509000000E+03 0.  0.
         25    1    3    3    0    0 -0.99971863695E+02 -0.41926068485E+02  0.29837802727E+03  0.34121712151E+03  0.12509000000E+03 0.  0.
         25    1    4    4    0    0  0.32166944059E+02  0.40375049150E+01  0.19464635434E+03  0.23363588144E+03  0.12509000000E+03 0.  0.
<mgrwt>
<rscale>  2 0.45876296E+03</rscale>
<asrwt>0</asrwt>
<pdfrwt beam="1">  1       21 0.10071565E+00 0.45876296E+03</pdfrwt>
<pdfrwt beam="2">  1       21 0.11298009E-01 0.45876296E+03</pdfrwt>
<totfact> 0.48232331E+04</totfact>
</mgrwt>
</event>
<event>
 7    0  0.4752811E-002  0.4495669E+03  0.7546771E-02  0.1027851E+00
         21   -1    0    0  502  501  0.00000000000E+00  0.00000000000E+00  0.25745780299E+03  0.25745780299E+03  0.00000000000E+00 0.  1.
         21   -1    0    0  501  502 -0.00000000000E+00 -0.00000000000E+00 -0.19625581454E+03  0.19625581454E+03  0.00000000000E+00 0.  1.
      99926    2    1    2    0    0 -0.14210854715E-13  0.00000000000E+00  0.61201988449E+02  0.45371361752E+03  0.44956686192E+03 0.  0.
      99925    2    3    3    0    0  0.10400715808E+03  0.27287349327E+02  0.29393322637E+02  0.28572139245E+03  0.26307918641E+03 0.  0.
         25    1    3    3    0    0 -0.10400715808E+03 -0.27287349327E+02  0.31808665812E+02  0.16799222507E+03  0.12509000000E+03 0.  0.
         25    1    4    4    0    0  0.92021624153E+02  0.23240455871E+02  0.30662964723E+02  0.15998694824E+03  0.12509000000E+03 0.  0.
         25    1    4    4    0    0  0.11985533924E+02  0.40468934561E+01 -0.12696420860E+01  0.12573444421E+03  0.12509000000E+03 0.  0.
<mgrwt>
<rscale>  2 0.44956686E+03</rscale>
<asrwt>0</asrwt>
<pdfrwt beam="1">  1       21 0.37861442E-01 0.44956686E+03</pdfrwt>
<pdfrwt beam="2">  1       21 0.28861149E-01 0.44956686E+03</pdfrwt>
<totfact> 0.71697678E+04</totfact>
</mgrwt>
</event>
<event>
 7    0  0.4752811E-002  0.4483260E+03  0.7546771E-02  0.1028222E+00
         21   -1    0    0  502  501  0.00000000000E+00  0.00000000000E+00  0.11048653066E+03  0.11048653066E+03  0.00000000000E+00 0. -1.
         21   -1    0    0  501  502 -0.00000000000E+00 -0.00000000000E+00 -0.45479789924E+03  0.45479789924E+03  0.00000000000E+00 0. -1.
      99926    2    1    2    0    0 -0.14210854715E-13  0.00000000000E+00 -0.34431136858E+03  0.56528442990E+03  0.44832596195E+03 0.  0.
      99925    2    3    3    0    0 -0.80029669521E+02 -0.52842351178E+02 -0.15834388175E+03  0.32150486484E+03  0.26286028827E+03 0.  0.
         25    1    4    4    0    0 -0.35568808757E+02 -0.22113017461E+02 -0.32140490980E+02  0.13577424262E+03  0.12509000000E+03 0.  0.
         25    1    4    4    0    0 -0.44460860764E+02 -0.30729333717E+02 -0.12620339077E+03  0.18573062222E+03  0.12509000000E+03 0.  0.
         25    1    3    3    0    0  0.80029669521E+02  0.52842351178E+02 -0.18596748684E+03  0.24377956506E+03  0.12509000000E+03 0.  0.
<mgrwt>
<rscale>  2 0.44832596E+03</rscale>
<asrwt>0</asrwt>
<pdfrwt beam="1">  1       21 0.16248019E-01 0.44832596E+03</pdfrwt>
<pdfrwt beam="2">  1       21 0.66882044E-01 0.44832596E+03</pdfrwt>
<totfact> 0.64189251E+04</totfact>
</mgrwt>
</event>
<event>
 7    0  0.4752811E-002  0.4502389E+03  0.7546771E-02  0.1027651E+00
         21   -1    0    0  502  501  0.00000000000E+00  0.00000000000E+00  0.54293702350E+03  0.54293702350E+03  0.00000000000E+00 0.  1.
         21   -1    0    0  501  502 -0.00000000000E+00 -0.00000000000E+00 -0.93341904154E+02  0.93341904154E+02  0.00000000000E+00 0.  1.
      99926    2    1    2    0    0  0.00000000000E+00  0.00000000000E+00  0.44959511934E+03  0.63627892765E+03  0.45023893927E+03 0.  0.
      99925    2    3    3    0    0  0.79076547494E+02 -0.29512806630E+02  0.38094765865E+03  0.47049567132E+03  0.26290863809E+03 0.  0.
         25    1    4    4    0    0  0.79997694154E+02 -0.27480442375E+02  0.20626140228E+03  0.25562879328E+03  0.12509000000E+03 0.  0.
         25    1    4    4    0    0 -0.92114665996E+00 -0.20323642558E+01  0.17468625637E+03  0.21486687804E+03  0.12509000000E+03 0.  0.
         25    1    3    3    0    0 -0.79076547494E+02  0.29512806630E+02  0.68647460692E+02  0.16578325633E+03  0.12509000000E+03 0.  0.
<mgrwt>
<rscale>  2 0.45023894E+03</rscale>
<asrwt>0</asrwt>
<pdfrwt beam="1">  1       21 0.79843678E-01 0.45023894E+03</pdfrwt>
<pdfrwt beam="2">  1       21 0.13726751E-01 0.45023894E+03</pdfrwt>
<totfact> 0.58672720E+04</totfact>
</mgrwt>
</event>
<event>
 7    0  0.4752811E-002  0.4530346E+03  0.7546771E-02  0.1026821E+00
         21   -1    0    0  502  501  0.00000000000E+00  0.00000000000E+00  0.64034252628E+03  0.64034252628E+03  0.00000000000E+00 0.  1.
         21   -1    0    0  501  502 -0.00000000000E+00 -0.00000000000E+00 -0.80129122689E+02  0.80129122689E+02  0.00000000000E+00 0.  1.
      99926    2    1    2    0    0  0.00000000000E+00  0.00000000000E+00  0.56021340360E+03  0.72047164897E+03  0.45303458964E+03 0.  0.
      99925    2    3    3    0    0 -0.86632254865E+02 -0.25809535371E+02  0.24983012461E+03  0.37383557515E+03  0.26299556344E+03 0.  0.
         25    1    3    3    0    0  0.86632254865E+02  0.25809535371E+02  0.31038327899E+03  0.34663607382E+03  0.12509000000E+03 0.  0.
         25    1    4    4    0    0 -0.29432805063E+02 -0.50523607515E+02  0.11599714900E+03  0.18033793723E+03  0.12509000000E+03 0.  0.
         25    1    4    4    0    0 -0.57199449802E+02  0.24714072144E+02  0.13383297561E+03  0.19349763792E+03  0.12509000000E+03 0.  0.
<mgrwt>
<rscale>  2 0.45303459E+03</rscale>
<asrwt>0</asrwt>
<pdfrwt beam="1">  1       21 0.94168016E-01 0.45303459E+03</pdfrwt>
<pdfrwt beam="2">  1       21 0.11783695E-01 0.45303459E+03</pdfrwt>
<totfact> 0.52614225E+04</totfact>
</mgrwt>
</event>
<event>
 7    0  0.4752811E-002  0.4488321E+03  0.7546771E-02  0.1028071E+00
         21   -1    0    0  502  501  0.00000000000E+00  0.00000000000E+00  0.59012776262E+03  0.59012776262E+03  0.00000000000E+00 0. -1.
         21   -1    0    0  501  502 -0.00000000000E+00 -0.00000000000E+00 -0.85341815170E+02  0.85341815170E+02  0.00000000000E+00 0. -1.
      99926    2    1    2    0    0  0.00000000000E+00  0.00000000000E+00  0.50478594745E+03  0.67546957779E+03  0.44883214878E+03 0.  0.
      99925    2    3    3    0    0 -0.33194855264E+02 -0.10181651402E+03  0.31220069173E+03  0.42208234495E+03  0.26308883112E+03 0.  0.
         25    1    3    3    0    0  0.33194855264E+02  0.10181651402E+03  0.19258525572E+03  0.25338723284E+03  0.12509000000E+03 0.  0.
         25    1    4    4    0    0 -0.88795701352E+01 -0.89249457924E+02  0.19559363020E+03  0.24889493522E+03  0.12509000000E+03 0.  0.
         25    1    4    4    0    0 -0.24315285129E+02 -0.12567056100E+02  0.11660706153E+03  0.17318740973E+03  0.12509000000E+03 0.  0.
<mgrwt>
<rscale>  2 0.44883215E+03</rscale>
<asrwt>0</asrwt>
<pdfrwt beam="1">  1       21 0.86783493E-01 0.44883215E+03</pdfrwt>
<pdfrwt beam="2">  1       21 0.12550267E-01 0.44883215E+03</pdfrwt>
<totfact> 0.56973082E+04</totfact>
</mgrwt>
</event>
<event>
 7    0  0.4752811E-002  0.4442114E+03  0.7546771E-02  0.1029462E+00
         21   -1    0    0  502  501  0.00000000000E+00  0.00000000000E+00  0.27940295933E+03  0.27940295933E+03  0.00000000000E+00 0.  1.
         21   -1    0    0  501  502 -0.00000000000E+00 -0.00000000000E+00 -0.17655840741E+03  0.17655840741E+03  0.00000000000E+00 0.  1.
      99926    2    1    2    0    0  0.00000000000E+00  0.00000000000E+00  0.10284455192E+03  0.45596136675E+03  0.44421139799E+03 0.  0.
      99925    2    3    3    0    0 -0.19894028443E+02 -0.65013331681E+02  0.14442931758E+03  0.30763973482E+03  0.26298264771E+03 0.  0.
         25    1    4    4    0    0  0.29280115066E+02 -0.42661945712E+02  0.70993105701E+02  0.15285580103E+03  0.12509000000E+03 0.  0.
         25    1    3    3    0    0  0.19894028443E+02  0.65013331681E+02 -0.41584765655E+02  0.14832163193E+03  0.12509000000E+03 0.  0.
         25    1    4    4    0    0 -0.49174143509E+02 -0.22351385969E+02  0.73436211875E+02  0.15478393379E+03  0.12509000000E+03 0.  0.
<mgrwt>
<rscale>  2 0.44421140E+03</rscale>
<asrwt>0</asrwt>
<pdfrwt beam="1">  1       21 0.41088671E-01 0.44421140E+03</pdfrwt>
<pdfrwt beam="2">  1       21 0.25964472E-01 0.44421140E+03</pdfrwt>
<totfact> 0.74683733E+04</totfact>
</mgrwt>
</event>
<event>
 7    0  0.4752811E-002  0.4150782E+03  0.7546771E-02  0.1038680E+00
         21   -1    0    0  502  501  0.00000000000E+00  0.00000000000E+00  0.29251234207E+03  0.29251234207E+03  0.00000000000E+00 0. -1.
         21   -1    0    0  501  502 -0.00000000000E+00 -0.00000000000E+00 -0.14725015597E+03  0.14725015597E+03  0.00000000000E+00 0. -1.
      99926    2    1    2    0    0  0.00000000000E+00 -0.13322676296E-14  0.14526218609E+03  0.43976249804E+03  0.41507824802E+03 0.  0.
      99925    2    3    3    0    0 -0.57987719980E+02  0.22141251212E+01  0.53946825582E+02  0.27437361938E+03  0.26268449708E+03 0.  0.
         25    1    4    4    0    0 -0.26136374939E+02 -0.10843847080E+02 -0.12044250316E+02  0.12881487174E+03  0.12509000000E+03 0.  0.
         25    1    4    4    0    0 -0.31851345041E+02  0.13057972201E+02  0.65991075898E+02  0.14555874765E+03  0.12509000000E+03 0.  0.
         25    1    3    3    0    0  0.57987719980E+02 -0.22141251212E+01  0.91315360510E+02  0.16538887866E+03  0.12509000000E+03 0.  0.
<mgrwt>
<rscale>  2 0.41507825E+03</rscale>
<asrwt>0</asrwt>
<pdfrwt beam="1">  1       21 0.43016521E-01 0.41507825E+03</pdfrwt>
<pdfrwt beam="2">  1       21 0.21654435E-01 0.41507825E+03</pdfrwt>
<totfact> 0.97031841E+04</totfact>
</mgrwt>
</event>
<event>
 7    0  0.4752811E-002  0.4541554E+03  0.7546771E-02  0.1026490E+00
         21   -1    0    0  502  501  0.00000000000E+00  0.00000000000E+00  0.78931181217E+03  0.78931181217E+03  0.00000000000E+00 0.  1.
         21   -1    0    0  501  502 -0.00000000000E+00 -0.00000000000E+00 -0.65328165278E+02  0.65328165278E+02  0.00000000000E+00 0.  1.
      99926    2    1    2    0    0  0.17763568394E-14  0.35527136788E-14  0.72398364689E+03  0.85463997745E+03  0.45415544705E+03 0.  0.
      99925    2    3    3    0    0 -0.34954778956E+01 -0.25510857097E+02  0.66174680205E+03  0.71256973020E+03  0.26302807490E+03 0.  0.
         25    1    4    4    0    0  0.15153637506E+02 -0.48926081009E+02  0.31729492685E+03  0.34488689862E+03  0.12509000000E+03 0.  0.
         25    1    3    3    0    0  0.34954778956E+01  0.25510857097E+02  0.62236844842E+02  0.14207024724E+03  0.12509000000E+03 0.  0.
         25    1    4    4    0    0 -0.18649115401E+02  0.23415223912E+02  0.34445187520E+03  0.36768283159E+03  0.12509000000E+03 0.  0.
<mgrwt>
<rscale>  2 0.45415545E+03</rscale>
<asrwt>0</asrwt>
<pdfrwt beam="1">  1       21 0.11607526E+00 0.45415545E+03</pdfrwt>
<pdfrwt beam="2">  1       21 0.96070836E-02 0.45415545E+03</pdfrwt>
<totfact> 0.45533416E+04</totfact>
</mgrwt>
</event>
<event>
 7    0  0.4752811E-002  0.4583729E+03  0.7546771E-02  0.1025254E+00
         21   -1    0    0  502  501  0.00000000000E+00  0.00000000000E+00  0.15877294219E+04  0.15877294219E+04  0.00000000000E+00 0. -1.
         21   -1    0    0  501  502 -0.00000000000E+00 -0.00000000000E+00 -0.33082738038E+02  0.33082738038E+02  0.00000000000E+00 0. -1.
      99926    2    1    2    0    0 -0.14210854715E-13  0.00000000000E+00  0.15546466838E+04  0.16208121599E+04  0.45837293348E+03 0.  0.
      99925    2    3    3    0    0  0.90496477058E+02 -0.14689443453E+02  0.12283026088E+04  0.12594904811E+04  0.26302771963E+03 0.  0.
         25    1    4    4    0    0  0.25956309288E+02  0.16898896887E+01  0.42518461663E+03  0.44396627354E+03  0.12509000000E+03 0.  0.
         25    1    3    3    0    0 -0.90496477058E+02  0.14689443453E+02  0.32634407505E+03  0.36132167875E+03  0.12509000000E+03 0.  0.
         25    1    4    4    0    0  0.64540167770E+02 -0.16379333142E+02  0.80311799213E+03  0.81552420761E+03  0.12509000000E+03 0.  0.
<mgrwt>
<rscale>  2 0.45837293E+03</rscale>
<asrwt>0</asrwt>
<pdfrwt beam="1">  1       21 0.23348957E+00 0.45837293E+03</pdfrwt>
<pdfrwt beam="2">  1       21 0.48651096E-02 0.45837293E+03</pdfrwt>
<totfact> 0.20423405E+04</totfact>
</mgrwt>
</event>
<event>
 7    0  0.4752811E-002  0.4364089E+03  0.7546771E-02  0.1031854E+00
         21   -1    0    0  502  501  0.00000000000E+00  0.00000000000E+00  0.24848770586E+03  0.24848770586E+03  0.00000000000E+00 0. -1.
         21   -1    0    0  501  502 -0.00000000000E+00 -0.00000000000E+00 -0.19161180811E+03  0.19161180811E+03  0.00000000000E+00 0. -1.
      99926    2    1    2    0    0 -0.17763568394E-14  0.00000000000E+00  0.56875897753E+02  0.44009951397E+03  0.43640888447E+03 0.  0.
      99925    2    3    3    0    0 -0.11273527682E+02  0.93668685064E+02  0.25886217833E+02  0.28038482037E+03  0.26276346061E+03 0.  0.
         25    1    3    3    0    0  0.11273527682E+02 -0.93668685064E+02  0.30989679920E+02  0.15971469359E+03  0.12509000000E+03 0.  0.
         25    1    4    4    0    0  0.17642104545E+02  0.17865852935E+02 -0.67311198973E+01  0.12776246956E+03  0.12509000000E+03 0.  0.
         25    1    4    4    0    0 -0.28915632227E+02  0.75802832129E+02  0.32617337730E+02  0.15262235081E+03  0.12509000000E+03 0.  0.
<mgrwt>
<rscale>  2 0.43640888E+03</rscale>
<asrwt>0</asrwt>
<pdfrwt beam="1">  1       21 0.36542310E-01 0.43640888E+03</pdfrwt>
<pdfrwt beam="2">  1       21 0.28178207E-01 0.43640888E+03</pdfrwt>
<totfact> 0.81017637E+04</totfact>
</mgrwt>
</event>
<event>
 7    0  0.4752811E-002  0.4592927E+03  0.7546771E-02  0.1024987E+00
         21   -1    0    0  502  501  0.00000000000E+00  0.00000000000E+00  0.10648120734E+04  0.10648120734E+04  0.00000000000E+00 0. -1.
         21   -1    0    0  501  502 -0.00000000000E+00 -0.00000000000E+00 -0.49527461544E+02  0.49527461544E+02  0.00000000000E+00 0. -1.
      99926    2    1    2    0    0  0.00000000000E+00  0.00000000000E+00  0.10152846119E+04  0.11143395350E+04  0.45929266931E+03 0.  0.
      99925    2    3    3    0    0  0.25063535025E+02 -0.46608072649E+02  0.88978417040E+03  0.92941154322E+03  0.26322889954E+03 0.  0.
         25    1    4    4    0    0 -0.82933933279E+01 -0.57561613591E+01  0.53550338857E+03  0.55001209171E+03  0.12509000000E+03 0.  0.
         25    1    3    3    0    0 -0.25063535025E+02  0.46608072649E+02  0.12550044151E+03  0.18492799178E+03  0.12509000000E+03 0.  0.
         25    1    4    4    0    0  0.33356928353E+02 -0.40851911290E+02  0.35428078183E+03  0.37939945150E+03  0.12509000000E+03 0.  0.
<mgrwt>
<rscale>  2 0.45929267E+03</rscale>
<asrwt>0</asrwt>
<pdfrwt beam="1">  1       21 0.15659000E+00 0.45929267E+03</pdfrwt>
<pdfrwt beam="2">  1       21 0.72834509E-02 0.45929267E+03</pdfrwt>
<totfact> 0.33848366E+04</totfact>
</mgrwt>
</event>
<event>
 7    0  0.4752811E-002  0.4601207E+03  0.7546771E-02  0.1024746E+00
         21   -1    0    0  502  501  0.00000000000E+00  0.00000000000E+00  0.42692082549E+03  0.42692082549E+03  0.00000000000E+00 0.  1.
         21   -1    0    0  501  502 -0.00000000000E+00 -0.00000000000E+00 -0.12397557937E+03  0.12397557937E+03  0.00000000000E+00 0.  1.
      99926    2    1    2    0    0  0.00000000000E+00 -0.35527136788E-14  0.30294524612E+03  0.55089640486E+03  0.46012066542E+03 0.  0.
      99925    2    3    3    0    0 -0.90011408670E+02  0.31173229455E+02  0.27365951853E+03  0.39096208751E+03  0.26246523173E+03 0.  0.
         25    1    3    3    0    0  0.90011408670E+02 -0.31173229455E+02  0.29285727593E+02  0.15993431735E+03  0.12509000000E+03 0.  0.
         25    1    4    4    0    0 -0.18633104127E+02 -0.64273702012E+00  0.16434398598E+03  0.20737420164E+03  0.12509000000E+03 0.  0.
         25    1    4    4    0    0 -0.71378304543E+02  0.31815966475E+02  0.10931553255E+03  0.18358788587E+03  0.12509000000E+03 0.  0.
<mgrwt>
<rscale>  2 0.46012067E+03</rscale>
<asrwt>0</asrwt>
<pdfrwt beam="1">  1       21 0.62782474E-01 0.46012067E+03</pdfrwt>
<pdfrwt beam="2">  1       21 0.18231703E-01 0.46012067E+03</pdfrwt>
<totfact> 0.59365391E+04</totfact>
</mgrwt>
</event>
<event>
 7    0  0.4752811E-002  0.4785590E+03  0.7546771E-02  0.1019532E+00
         21   -1    0    0  502  501  0.00000000000E+00  0.00000000000E+00  0.21274555942E+03  0.21274555942E+03  0.00000000000E+00 0. -1.
         21   -1    0    0  501  502 -0.00000000000E+00 -0.00000000000E+00 -0.26912278697E+03  0.26912278697E+03  0.00000000000E+00 0. -1.
      99926    2    1    2    0    0  0.00000000000E+00  0.00000000000E+00 -0.56377227550E+02  0.48186834639E+03  0.47855899476E+03 0.  0.
      99925    2    3    3    0    0  0.58836164578E+02  0.79214278026E+02 -0.12557918754E+03  0.30816453103E+03  0.26355008962E+03 0.  0.
         25    1    3    3    0    0 -0.58836164578E+02 -0.79214278026E+02  0.69201959985E+02  0.17370381536E+03  0.12509000000E+03 0.  0.
         25    1    4    4    0    0  0.55447131154E+02  0.25658109357E+02 -0.31589551236E+02  0.14275199045E+03  0.12509000000E+03 0.  0.
         25    1    4    4    0    0  0.33890334241E+01  0.53556168669E+02 -0.93989636300E+02  0.16541254058E+03  0.12509000000E+03 0.  0.
<mgrwt>
<rscale>  2 0.47855899E+03</rscale>
<asrwt>0</asrwt>
<pdfrwt beam="1">  1       21 0.31286112E-01 0.47855899E+03</pdfrwt>
<pdfrwt beam="2">  1       21 0.39576880E-01 0.47855899E+03</pdfrwt>
<totfact> 0.55442637E+04</totfact>
</mgrwt>
</event>
<event>
 7    0  0.4752811E-002  0.4534131E+03  0.7546771E-02  0.1026709E+00
         21   -1    0    0  502  501  0.00000000000E+00  0.00000000000E+00  0.32866445553E+03  0.32866445553E+03  0.00000000000E+00 0.  1.
         21   -1    0    0  501  502 -0.00000000000E+00 -0.00000000000E+00 -0.15637788289E+03  0.15637788289E+03  0.00000000000E+00 0.  1.
      99926    2    1    2    0    0 -0.71054273576E-14 -0.71054273576E-14  0.17228657264E+03  0.48504233842E+03  0.45341306438E+03 0.  0.
      99925    2    3    3    0    0  0.32539104206E+02  0.56116312577E+02  0.20569496012E+03  0.34022706887E+03  0.26312774071E+03 0.  0.
         25    1    3    3    0    0 -0.32539104206E+02 -0.56116312577E+02 -0.33408387487E+02  0.14481526955E+03  0.12509000000E+03 0.  0.
         25    1    4    4    0    0 -0.18955745595E+02  0.47998864345E+02  0.10880524589E+03  0.17363554044E+03  0.12509000000E+03 0.  0.
         25    1    4    4    0    0  0.51494849802E+02  0.81174482318E+01  0.96889714233E+02  0.16659152843E+03  0.12509000000E+03 0.  0.
<mgrwt>
<rscale>  2 0.45341306E+03</rscale>
<asrwt>0</asrwt>
<pdfrwt beam="1">  1       21 0.48333008E-01 0.45341306E+03</pdfrwt>
<pdfrwt beam="2">  1       21 0.22996747E-01 0.45341306E+03</pdfrwt>
<totfact> 0.67177156E+04</totfact>
</mgrwt>
</event>
<event>
 7    0  0.4752811E-002  0.4578346E+03  0.7546771E-02  0.1025411E+00
         21   -1    0    0  502  501  0.00000000000E+00  0.00000000000E+00  0.99760207538E+03  0.99760207538E+03  0.00000000000E+00 0. -1.
         21   -1    0    0  501  502 -0.00000000000E+00 -0.00000000000E+00 -0.52529090500E+02  0.52529090500E+02  0.00000000000E+00 0. -1.
      99926    2    1    2    0    0  0.00000000000E+00  0.71054273576E-14  0.94507298488E+03  0.10501311659E+04  0.45783459764E+03 0.  0.
      99925    2    3    3    0    0  0.75674577204E+02 -0.60336713250E+02  0.73838204593E+03  0.78987011819E+03  0.26328615090E+03 0.  0.
         25    1    3    3    0    0 -0.75674577204E+02  0.60336713250E+02  0.20669093895E+03  0.26026104769E+03  0.12509000000E+03 0.  0.
         25    1    4    4    0    0  0.12582134168E+02 -0.61475968180E+02  0.34638467463E+03  0.37358727987E+03  0.12509000000E+03 0.  0.
         25    1    4    4    0    0  0.63092443036E+02  0.11392549303E+01  0.39199737130E+03  0.41628283832E+03  0.12509000000E+03 0.  0.
<mgrwt>
<rscale>  2 0.45783460E+03</rscale>
<asrwt>0</asrwt>
<pdfrwt beam="1">  1       21 0.14670618E+00 0.45783460E+03</pdfrwt>
<pdfrwt beam="2">  1       21 0.77248669E-02 0.45783460E+03</pdfrwt>
<totfact> 0.36459220E+04</totfact>
</mgrwt>
</event>
<event>
 7    0  0.4752811E-002  0.4478748E+03  0.7546771E-02  0.1028358E+00
         21   -1    0    0  502  501  0.00000000000E+00  0.00000000000E+00  0.59929733574E+02  0.59929733574E+02  0.00000000000E+00 0. -1.
         21   -1    0    0  501  502 -0.00000000000E+00 -0.00000000000E+00 -0.83677932833E+03  0.83677932833E+03  0.00000000000E+00 0. -1.
      99926    2    1    2    0    0 -0.35527136788E-14  0.00000000000E+00 -0.77684959475E+03  0.89670906190E+03  0.44787481379E+03 0.  0.
      99925    2    3    3    0    0  0.78047782828E+01 -0.78992017960E+02 -0.35030904557E+03  0.44517279352E+03  0.26298618826E+03 0.  0.
         25    1    3    3    0    0 -0.78047782828E+01  0.78992017960E+02 -0.42654054919E+03  0.45153626838E+03  0.12509000000E+03 0.  0.
         25    1    4    4    0    0  0.39529717674E+02 -0.21454050991E+02 -0.15670956541E+03  0.20549518455E+03  0.12509000000E+03 0.  0.
         25    1    4    4    0    0 -0.31724939391E+02 -0.57537966969E+02 -0.19359948016E+03  0.23967760897E+03  0.12509000000E+03 0.  0.
<mgrwt>
<rscale>  2 0.44787481E+03</rscale>
<asrwt>0</asrwt>
<pdfrwt beam="1">  1       21 0.88131959E-02 0.44787481E+03</pdfrwt>
<pdfrwt beam="2">  1       21 0.12305579E+00 0.44787481E+03</pdfrwt>
<totfact> 0.45882484E+04</totfact>
</mgrwt>
</event>
<event>
 7    0  0.4752811E-002  0.4489695E+03  0.7546771E-02  0.1028030E+00
         21   -1    0    0  502  501  0.00000000000E+00  0.00000000000E+00  0.42648383893E+02  0.42648383893E+02  0.00000000000E+00 0.  1.
         21   -1    0    0  501  502 -0.00000000000E+00 -0.00000000000E+00 -0.11816018631E+04  0.11816018631E+04  0.00000000000E+00 0.  1.
      99926    2    1    2    0    0  0.00000000000E+00  0.00000000000E+00 -0.11389534792E+04  0.12242502470E+04  0.44896953067E+03 0.  0.
      99925    2    3    3    0    0  0.78891742625E+02 -0.41835032868E+02 -0.55925055313E+03  0.62451941768E+03  0.26322850311E+03 0.  0.
         25    1    3    3    0    0 -0.78891742625E+02  0.41835032868E+02 -0.57970292611E+03  0.59973082934E+03  0.12509000000E+03 0.  0.
         25    1    4    4    0    0  0.54113340052E+02  0.86328654312E+01 -0.22463978597E+03  0.26289412599E+03  0.12509000000E+03 0.  0.
         25    1    4    4    0    0  0.24778402573E+02 -0.50467898299E+02 -0.33461076716E+03  0.36162529169E+03  0.12509000000E+03 0.  0.
<mgrwt>
<rscale>  2 0.44896953E+03</rscale>
<asrwt>0</asrwt>
<pdfrwt beam="1">  1       21 0.62718202E-02 0.44896953E+03</pdfrwt>
<pdfrwt beam="2">  1       21 0.17376501E+00 0.44896953E+03</pdfrwt>
<totfact> 0.32914957E+04</totfact>
</mgrwt>
</event>
<event>
 7    0  0.4752811E-002  0.4508255E+03  0.7546771E-02  0.1027476E+00
         21   -1    0    0  502  501  0.00000000000E+00  0.00000000000E+00  0.54314680349E+03  0.54314680349E+03  0.00000000000E+00 0. -1.
         21   -1    0    0  501  502 -0.00000000000E+00 -0.00000000000E+00 -0.93549124695E+02  0.93549124695E+02  0.00000000000E+00 0. -1.
      99926    2    1    2    0    0  0.00000000000E+00 -0.14210854715E-13  0.44959767880E+03  0.63669592819E+03  0.45082550082E+03 0.  0.
      99925    2    3    3    0    0 -0.27820680027E+02 -0.92196615279E+02  0.35669161692E+03  0.45352046438E+03  0.26301653166E+03 0.  0.
         25    1    4    4    0    0 -0.45073606986E+01 -0.26981528552E+02  0.22628126046E+03  0.25999814637E+03  0.12509000000E+03 0.  0.
         25    1    3    3    0    0  0.27820680027E+02  0.92196615279E+02  0.92906061876E+02  0.18317546380E+03  0.12509000000E+03 0.  0.
         25    1    4    4    0    0 -0.23313319329E+02 -0.65215086728E+02  0.13041035646E+03  0.19352231801E+03  0.12509000000E+03 0.  0.
<mgrwt>
<rscale>  2 0.45082550E+03</rscale>
<asrwt>0</asrwt>
<pdfrwt beam="1">  1       21 0.79874529E-01 0.45082550E+03</pdfrwt>
<pdfrwt beam="2">  1       21 0.13757224E-01 0.45082550E+03</pdfrwt>
<totfact> 0.58374050E+04</totfact>
</mgrwt>
</event>
<event>
 7    0  0.4752811E-002  0.4751943E+03  0.7546771E-02  0.1020464E+00
         21   -1    0    0  502  501  0.00000000000E+00  0.00000000000E+00  0.14136113257E+03  0.14136113257E+03  0.00000000000E+00 0.  1.
         21   -1    0    0  501  502 -0.00000000000E+00 -0.00000000000E+00 -0.39934880016E+03  0.39934880016E+03  0.00000000000E+00 0.  1.
      99926    2    1    2    0    0  0.00000000000E+00 -0.14210854715E-13 -0.25798766759E+03  0.54070993273E+03  0.47519427050E+03 0.  0.
      99925    2    3    3    0    0 -0.19242131140E+02 -0.10989485167E+03 -0.23827210153E+03  0.37193982376E+03  0.26290397505E+03 0.  0.
         25    1    3    3    0    0  0.19242131140E+02  0.10989485167E+03 -0.19715566065E+02  0.16877010896E+03  0.12509000000E+03 0.  0.
         25    1    4    4    0    0 -0.46621381457E+02 -0.65885821417E+02 -0.10685372798E+03  0.18324770655E+03  0.12509000000E+03 0.  0.
         25    1    4    4    0    0  0.27379250318E+02 -0.44009030254E+02 -0.13141837355E+03  0.18869211721E+03  0.12509000000E+03 0.  0.
<mgrwt>
<rscale>  2 0.47519427E+03</rscale>
<asrwt>0</asrwt>
<pdfrwt beam="1">  1       21 0.20788402E-01 0.47519427E+03</pdfrwt>
<pdfrwt beam="2">  1       21 0.58727765E-01 0.47519427E+03</pdfrwt>
<totfact> 0.53411960E+04</totfact>
</mgrwt>
</event>
<event>
 7    0  0.4752811E-002  0.4485945E+03  0.7546771E-02  0.1028142E+00
         21   -1    0    0  502  501  0.00000000000E+00  0.00000000000E+00  0.36719334511E+03  0.36719334511E+03  0.00000000000E+00 0.  1.
         21   -1    0    0  501  502 -0.00000000000E+00 -0.00000000000E+00 -0.13701024991E+03  0.13701024991E+03  0.00000000000E+00 0.  1.
      99926    2    1    2    0    0  0.00000000000E+00  0.14210854715E-13  0.23018309519E+03  0.50420359502E+03  0.44859448048E+03 0.  0.
      99925    2    3    3    0    0 -0.37299478870E+02  0.88446459530E+02  0.19902357562E+03  0.34347882690E+03  0.26297013813E+03 0.  0.
         25    1    3    3    0    0  0.37299478870E+02 -0.88446459530E+02  0.31159519570E+02  0.16072476812E+03  0.12509000000E+03 0.  0.
         25    1    4    4    0    0 -0.22006082039E+02  0.18910979971E+02  0.54464582461E+02  0.13948401935E+03  0.12509000000E+03 0.  0.
         25    1    4    4    0    0 -0.15293396831E+02  0.69535479559E+02  0.14455899316E+03  0.20399480755E+03  0.12509000000E+03 0.  0.
<mgrwt>
<rscale>  2 0.44859448E+03</rscale>
<asrwt>0</asrwt>
<pdfrwt beam="1">  1       21 0.53999021E-01 0.44859448E+03</pdfrwt>
<pdfrwt beam="2">  1       21 0.20148566E-01 0.44859448E+03</pdfrwt>
<totfact> 0.68387512E+04</totfact>
</mgrwt>
</event>
<event>
 7    0  0.4752811E-002  0.4552486E+03  0.7546771E-02  0.1026168E+00
         21   -1    0    0  502  501  0.00000000000E+00  0.00000000000E+00  0.16479550738E+03  0.16479550738E+03  0.00000000000E+00 0.  1.
         21   -1    0    0  501  502 -0.00000000000E+00 -0.00000000000E+00 -0.31440680410E+03  0.31440680410E+03  0.00000000000E+00 0.  1.
      99926    2    1    2    0    0  0.00000000000E+00  0.14210854715E-13 -0.14961129672E+03  0.47920231148E+03  0.45524863011E+03 0.  0.
      99925    2    3    3    0    0 -0.78223435211E+02  0.65607078139E+02 -0.42146103997E+02  0.28524491856E+03  0.26299272797E+03 0.  0.
         25    1    4    4    0    0 -0.63949828868E+02  0.67623128246E+02 -0.29624713045E+02  0.15870601693E+03  0.12509000000E+03 0.  0.
         25    1    4    4    0    0 -0.14273606342E+02 -0.20160501076E+01 -0.12521390952E+02  0.12653890164E+03  0.12509000000E+03 0.  0.
         25    1    3    3    0    0  0.78223435211E+02 -0.65607078139E+02 -0.10746519272E+03  0.19395739291E+03  0.12509000000E+03 0.  0.
<mgrwt>
<rscale>  2 0.45524863E+03</rscale>
<asrwt>0</asrwt>
<pdfrwt beam="1">  1       21 0.24234634E-01 0.45524863E+03</pdfrwt>
<pdfrwt beam="2">  1       21 0.46236294E-01 0.45524863E+03</pdfrwt>
<totfact> 0.66626627E+04</totfact>
</mgrwt>
</event>
<event>
 7    0  0.4752811E-002  0.4490767E+03  0.7546771E-02  0.1027998E+00
         21   -1    0    0  502  501  0.00000000000E+00  0.00000000000E+00  0.64073880118E+03  0.64073880118E+03  0.00000000000E+00 0. -1.
         21   -1    0    0  501  502 -0.00000000000E+00 -0.00000000000E+00 -0.78686480784E+02  0.78686480784E+02  0.00000000000E+00 0. -1.
      99926    2    1    2    0    0  0.17763568394E-14  0.00000000000E+00  0.56205232040E+03  0.71942528197E+03  0.44907674786E+03 0.  0.
      99925    2    3    3    0    0 -0.13613509542E+02  0.19842697133E+02  0.52351326752E+03  0.58633949397E+03  0.26296159537E+03 0.  0.
         25    1    3    3    0    0  0.13613509542E+02 -0.19842697133E+02  0.38539052876E+02  0.13308578800E+03  0.12509000000E+03 0.  0.
         25    1    4    4    0    0 -0.36756597669E+02  0.95545115881E+01  0.20416148494E+03  0.24242886833E+03  0.12509000000E+03 0.  0.
         25    1    4    4    0    0  0.23143088127E+02  0.10288185544E+02  0.31935178258E+03  0.34391062564E+03  0.12509000000E+03 0.  0.
<mgrwt>
<rscale>  2 0.44907675E+03</rscale>
<asrwt>0</asrwt>
<pdfrwt beam="1">  1       21 0.94226292E-01 0.44907675E+03</pdfrwt>
<pdfrwt beam="2">  1       21 0.11571542E-01 0.44907675E+03</pdfrwt>
<totfact> 0.54349203E+04</totfact>
</mgrwt>
</event>
<event>
 7    0  0.4752811E-002  0.4497827E+03  0.7546771E-02  0.1027787E+00
         21   -1    0    0  502  501  0.00000000000E+00  0.00000000000E+00  0.33324359324E+03  0.33324359324E+03  0.00000000000E+00 0.  1.
         21   -1    0    0  501  502 -0.00000000000E+00 -0.00000000000E+00 -0.15176918938E+03  0.15176918938E+03  0.00000000000E+00 0.  1.
      99926    2    1    2    0    0  0.00000000000E+00  0.00000000000E+00  0.18147440386E+03  0.48501278262E+03  0.44978265868E+03 0.  0.
      99925    2    3    3    0    0 -0.12781012666E+01  0.10532642657E+03  0.14138944930E+03  0.31663938401E+03  0.26300994935E+03 0.  0.
         25    1    4    4    0    0 -0.38262879013E+01  0.80373424540E+02  0.11073038454E+03  0.18542722026E+03  0.12509000000E+03 0.  0.
         25    1    3    3    0    0  0.12781012666E+01 -0.10532642657E+03  0.40084954558E+02  0.16837339860E+03  0.12509000000E+03 0.  0.
         25    1    4    4    0    0  0.25481866347E+01  0.24953002025E+02  0.30659064754E+02  0.13121216375E+03  0.12509000000E+03 0.  0.
<mgrwt>
<rscale>  2 0.44978266E+03</rscale>
<asrwt>0</asrwt>
<pdfrwt beam="1">  1       21 0.49006411E-01 0.44978266E+03</pdfrwt>
<pdfrwt beam="2">  1       21 0.22318998E-01 0.44978266E+03</pdfrwt>
<totfact> 0.69157284E+04</totfact>
</mgrwt>
</event>
<event>
 7    0  0.4752811E-002  0.4520410E+03  0.7546771E-02  0.1027115E+00
         21   -1    0    0  502  501  0.00000000000E+00  0.00000000000E+00  0.61021180882E+03  0.61021180882E+03  0.00000000000E+00 0.  1.
         21   -1    0    0  501  502 -0.00000000000E+00 -0.00000000000E+00 -0.83717282230E+02  0.83717282230E+02  0.00000000000E+00 0.  1.
      99926    2    1    2    0    0  0.14210854715E-13 -0.35527136788E-14  0.52649452659E+03  0.69392909105E+03  0.45204103451E+03 0.  0.
      99925    2    3    3    0    0 -0.53862391400E+02  0.19847320687E+02  0.47681161502E+03  0.54760420203E+03  0.26310829047E+03 0.  0.
         25    1    3    3    0    0  0.53862391400E+02 -0.19847320687E+02  0.49682911575E+02  0.14632488903E+03  0.12509000000E+03 0.  0.
         25    1    4    4    0    0 -0.21308512853E+02  0.33337042692E+02  0.17265778079E+03  0.21684932212E+03  0.12509000000E+03 0.  0.
         25    1    4    4    0    0 -0.32553878548E+02 -0.13489722006E+02  0.30415383423E+03  0.33075487991E+03  0.12509000000E+03 0.  0.
<mgrwt>
<rscale>  2 0.45204103E+03</rscale>
<asrwt>0</asrwt>
<pdfrwt beam="1">  1       21 0.89737028E-01 0.45204103E+03</pdfrwt>
<pdfrwt beam="2">  1       21 0.12311365E-01 0.45204103E+03</pdfrwt>
<totfact> 0.54491930E+04</totfact>
</mgrwt>
</event>
<event>
 7    0  0.4752811E-002  0.4591044E+03  0.7546771E-02  0.1025041E+00
         21   -1    0    0  502  501  0.00000000000E+00  0.00000000000E+00  0.23925434591E+03  0.23925434591E+03  0.00000000000E+00 0.  1.
         21   -1    0    0  501  502 -0.00000000000E+00 -0.00000000000E+00 -0.22024350235E+03  0.22024350235E+03  0.00000000000E+00 0.  1.
      99926    2    1    2    0    0 -0.14210854715E-13 -0.71054273576E-14  0.19010843556E+02  0.45949784826E+03  0.45910441120E+03 0.  0.
      99925    2    3    3    0    0 -0.86353339329E+02 -0.41016368007E+02  0.79473591460E+02  0.29084882324E+03  0.26294057234E+03 0.  0.
         25    1    4    4    0    0 -0.68363923452E+02 -0.16628690019E+02  0.82683862994E+01  0.14375678653E+03  0.12509000000E+03 0.  0.
         25    1    4    4    0    0 -0.17989415877E+02 -0.24387677988E+02  0.71205205161E+02  0.14709203671E+03  0.12509000000E+03 0.  0.
         25    1    3    3    0    0  0.86353339329E+02  0.41016368007E+02 -0.60462747904E+02  0.16864902503E+03  0.12509000000E+03 0.  0.
<mgrwt>
<rscale>  2 0.45910441E+03</rscale>
<asrwt>0</asrwt>
<pdfrwt beam="1">  1       21 0.35184463E-01 0.45910441E+03</pdfrwt>
<pdfrwt beam="2">  1       21 0.32388750E-01 0.45910441E+03</pdfrwt>
<totfact> 0.66028567E+04</totfact>
</mgrwt>
</event>
<event>
 7    0  0.4752811E-002  0.4726186E+03  0.7546771E-02  0.1021184E+00
         21   -1    0    0  502  501  0.00000000000E+00  0.00000000000E+00  0.50424988122E+02  0.50424988122E+02  0.00000000000E+00 0.  1.
         21   -1    0    0  501  502 -0.00000000000E+00 -0.00000000000E+00 -0.11074286746E+04  0.11074286746E+04  0.00000000000E+00 0.  1.
      99926    2    1    2    0    0  0.00000000000E+00  0.00000000000E+00 -0.10570036865E+04  0.11578536627E+04  0.47261856825E+03 0.  0.
      99925    2    3    3    0    0 -0.21318640361E+02 -0.12599293122E+03 -0.61097785999E+03  0.67731724461E+03  0.26293725734E+03 0.  0.
         25    1    4    4    0    0 -0.24624751509E+01 -0.19197352067E+02 -0.27751776416E+03  0.30502167076E+03  0.12509000000E+03 0.  0.
         25    1    3    3    0    0  0.21318640361E+02  0.12599293122E+03 -0.44602582651E+03  0.48053641814E+03  0.12509000000E+03 0.  0.
         25    1    4    4    0    0 -0.18856165211E+02 -0.10679557915E+03 -0.33346009583E+03  0.37229557384E+03  0.12509000000E+03 0.  0.
<mgrwt>
<rscale>  2 0.47261857E+03</rscale>
<asrwt>0</asrwt>
<pdfrwt beam="1">  1       21 0.74154389E-02 0.47261857E+03</pdfrwt>
<pdfrwt beam="2">  1       21 0.16285717E+00 0.47261857E+03</pdfrwt>
<totfact> 0.29288360E+04</totfact>
</mgrwt>
</event>
<event>
 7    0  0.4752811E-002  0.4505071E+03  0.7546771E-02  0.1027571E+00
         21   -1    0    0  502  501  0.00000000000E+00  0.00000000000E+00  0.67596886181E+03  0.67596886181E+03  0.00000000000E+00 0. -1.
         21   -1    0    0  501  502 -0.00000000000E+00 -0.00000000000E+00 -0.75061388556E+02  0.75061388556E+02  0.00000000000E+00 0. -1.
      99926    2    1    2    0    0  0.00000000000E+00  0.00000000000E+00  0.60090747325E+03  0.75103025036E+03  0.45050709823E+03 0.  0.
      99925    2    3    3    0    0  0.89042750911E+01 -0.86968006381E+02  0.48826225495E+03  0.56134848120E+03  0.26281051631E+03 0.  0.
         25    1    4    4    0    0 -0.15585523293E+02 -0.75501049329E+02  0.22669737106E+03  0.27015277739E+03  0.12509000000E+03 0.  0.
         25    1    3    3    0    0 -0.89042750911E+01  0.86968006381E+02  0.11264521830E+03  0.18968176917E+03  0.12509000000E+03 0.  0.
         25    1    4    4    0    0  0.24489798385E+02 -0.11466957052E+02  0.26156488390E+03  0.29119570381E+03  0.12509000000E+03 0.  0.
<mgrwt>
<rscale>  2 0.45050710E+03</rscale>
<asrwt>0</asrwt>
<pdfrwt beam="1">  1       21 0.99407182E-01 0.45050710E+03</pdfrwt>
<pdfrwt beam="2">  1       21 0.11038440E-01 0.45050710E+03</pdfrwt>
<totfact> 0.52031450E+04</totfact>
</mgrwt>
</event>
<event>
 7    0  0.4752811E-002  0.4494790E+03  0.7546771E-02  0.1027878E+00
         21   -1    0    0  502  501  0.00000000000E+00  0.00000000000E+00  0.74752020764E+03  0.74752020764E+03  0.00000000000E+00 0. -1.
         21   -1    0    0  501  502 -0.00000000000E+00 -0.00000000000E+00 -0.67567191286E+02  0.67567191286E+02  0.00000000000E+00 0. -1.
      99926    2    1    2    0    0  0.00000000000E+00  0.35527136788E-14  0.67995301635E+03  0.81508739893E+03  0.44947899110E+03 0.  0.
      99925    2    3    3    0    0 -0.91002875434E+02  0.19358302546E+02  0.33103062088E+03  0.43292171054E+03  0.26302788499E+03 0.  0.
         25    1    4    4    0    0 -0.25715435045E+02  0.32308834934E+02  0.11670018892E+03  0.17598746151E+03  0.12509000000E+03 0.  0.
         25    1    4    4    0    0 -0.65287440389E+02 -0.12950532388E+02  0.21433043196E+03  0.25693424903E+03  0.12509000000E+03 0.  0.
         25    1    3    3    0    0  0.91002875434E+02 -0.19358302546E+02  0.34892239548E+03  0.38216568839E+03  0.12509000000E+03 0.  0.
<mgrwt>
<rscale>  2 0.44947899E+03</rscale>
<asrwt>0</asrwt>
<pdfrwt beam="1">  1       21 0.10992944E+00 0.44947899E+03</pdfrwt>
<pdfrwt beam="2">  1       21 0.99363521E-02 0.44947899E+03</pdfrwt>
<totfact> 0.49138179E+04</totfact>
</mgrwt>
</event>
<event>
 7    0  0.4752811E-002  0.4505883E+03  0.7546771E-02  0.1027547E+00
         21   -1    0    0  502  501  0.00000000000E+00  0.00000000000E+00  0.31115852046E+03  0.31115852046E+03  0.00000000000E+00 0.  1.
         21   -1    0    0  501  502 -0.00000000000E+00 -0.00000000000E+00 -0.16312410222E+03  0.16312410222E+03  0.00000000000E+00 0.  1.
      99926    2    1    2    0    0 -0.71054273576E-14  0.00000000000E+00  0.14803441824E+03  0.47428262268E+03  0.45058830121E+03 0.  0.
      99925    2    3    3    0    0 -0.63127784786E+02  0.68280132842E+02  0.15306243295E+03  0.31833364774E+03  0.26317467422E+03 0.  0.
         25    1    3    3    0    0  0.63127784786E+02 -0.68280132842E+02 -0.50280147073E+01  0.15594897494E+03  0.12509000000E+03 0.  0.
         25    1    4    4    0    0 -0.27704163906E+02  0.52746445785E+02  0.11998697179E+03  0.18328690553E+03  0.12509000000E+03 0.  0.
         25    1    4    4    0    0 -0.35423620881E+02  0.15533687057E+02  0.33075461162E+02  0.13504674221E+03  0.12509000000E+03 0.  0.
<mgrwt>
<rscale>  2 0.45058830E+03</rscale>
<asrwt>0</asrwt>
<pdfrwt beam="1">  1       21 0.45758606E-01 0.45058830E+03</pdfrwt>
<pdfrwt beam="2">  1       21 0.23988839E-01 0.45058830E+03</pdfrwt>
<totfact> 0.69521167E+04</totfact>
</mgrwt>
</event>
<event>
 7    0  0.4752811E-002  0.4522421E+03  0.7546771E-02  0.1027056E+00
         21   -1    0    0  502  501  0.00000000000E+00  0.00000000000E+00  0.15497586156E+04  0.15497586156E+04  0.00000000000E+00 0.  1.
         21   -1    0    0  501  502 -0.00000000000E+00 -0.00000000000E+00 -0.32992701351E+02  0.32992701351E+02  0.00000000000E+00 0.  1.
      99926    2    1    2    0    0  0.35527136788E-14  0.71054273576E-14  0.15167659143E+04  0.15827513170E+04  0.45224207310E+03 0.  0.
      99925    2    3    3    0    0  0.19459844075E+02  0.40115617389E+02  0.13108749889E+04  0.13377481955E+04  0.26303811455E+03 0.  0.
         25    1    4    4    0    0  0.28465233476E+02 -0.70208313878E+01  0.52213844081E+03  0.53771332610E+03  0.12509000000E+03 0.  0.
         25    1    4    4    0    0 -0.90053894013E+01  0.47136448776E+02  0.78873654809E+03  0.80003486939E+03  0.12509000000E+03 0.  0.
         25    1    3    3    0    0 -0.19459844075E+02 -0.40115617389E+02  0.20589092538E+03  0.24500312150E+03  0.12509000000E+03 0.  0.
<mgrwt>
<rscale>  2 0.45224207E+03</rscale>
<asrwt>0</asrwt>
<pdfrwt beam="1">  1       21 0.22790563E+00 0.45224207E+03</pdfrwt>
<pdfrwt beam="2">  1       21 0.48518689E-02 0.45224207E+03</pdfrwt>
<totfact> 0.22295598E+04</totfact>
</mgrwt>
</event>
<event>
 7    0  0.4752811E-002  0.4535128E+03  0.7546771E-02  0.1026680E+00
         21   -1    0    0  502  501  0.00000000000E+00  0.00000000000E+00  0.10647196807E+04  0.10647196807E+04  0.00000000000E+00 0. -1.
         21   -1    0    0  501  502 -0.00000000000E+00 -0.00000000000E+00 -0.48292953148E+02  0.48292953148E+02  0.00000000000E+00 0. -1.
      99926    2    1    2    0    0  0.00000000000E+00  0.00000000000E+00  0.10164267276E+04  0.11130126339E+04  0.45351276788E+03 0.  0.
      99925    2    3    3    0    0 -0.64637836210E+02  0.42754121877E+02  0.44293204134E+03  0.52094031730E+03  0.26302862228E+03 0.  0.
         25    1    4    4    0    0 -0.45173202082E+02 -0.17237531286E+02  0.21461516101E+03  0.25307099025E+03  0.12509000000E+03 0.  0.
         25    1    3    3    0    0  0.64637836210E+02 -0.42754121877E+02  0.57349468625E+03  0.59207231658E+03  0.12509000000E+03 0.  0.
         25    1    4    4    0    0 -0.19464634128E+02  0.59991653163E+02  0.22831688033E+03  0.26786932705E+03  0.12509000000E+03 0.  0.
<mgrwt>
<rscale>  2 0.45351277E+03</rscale>
<asrwt>0</asrwt>
<pdfrwt beam="1">  1       21 0.15657641E+00 0.45351277E+03</pdfrwt>
<pdfrwt beam="2">  1       21 0.71019056E-02 0.45351277E+03</pdfrwt>
<totfact> 0.35450803E+04</totfact>
</mgrwt>
</event>
<event>
 7    0  0.4752811E-002  0.4540238E+03  0.7546771E-02  0.1026529E+00
         21   -1    0    0  502  501  0.00000000000E+00  0.00000000000E+00  0.73293059281E+02  0.73293059281E+02  0.00000000000E+00 0. -1.
         21   -1    0    0  501  502 -0.00000000000E+00 -0.00000000000E+00 -0.70312815491E+03  0.70312815491E+03  0.00000000000E+00 0. -1.
      99926    2    1    2    0    0  0.00000000000E+00  0.71054273576E-14 -0.62983509563E+03  0.77642121419E+03  0.45402384757E+03 0.  0.
      99925    2    3    3    0    0 -0.24034175557E+02 -0.51252652378E+02 -0.56244829417E+03  0.62347362486E+03  0.26299581996E+03 0.  0.
         25    1    4    4    0    0 -0.41911091380E+02 -0.54764613950E+01 -0.23567929477E+03  0.27014582968E+03  0.12509000000E+03 0.  0.
         25    1    3    3    0    0  0.24034175557E+02  0.51252652378E+02 -0.67386801458E+02  0.15294758933E+03  0.12509000000E+03 0.  0.
         25    1    4    4    0    0  0.17876915823E+02 -0.45776190983E+02 -0.32676899940E+03  0.35332779518E+03  0.12509000000E+03 0.  0.
<mgrwt>
<rscale>  2 0.45402385E+03</rscale>
<asrwt>0</asrwt>
<pdfrwt beam="1">  1       21 0.10778392E-01 0.45402385E+03</pdfrwt>
<pdfrwt beam="2">  1       21 0.10340119E+00 0.45402385E+03</pdfrwt>
<totfact> 0.49303154E+04</totfact>
</mgrwt>
</event>
<event>
 7    0  0.4752811E-002  0.4434398E+03  0.7546771E-02  0.1029697E+00
         21   -1    0    0  502  501  0.00000000000E+00  0.00000000000E+00  0.18469030031E+03  0.18469030031E+03  0.00000000000E+00 0. -1.
         21   -1    0    0  501  502 -0.00000000000E+00 -0.00000000000E+00 -0.26617382725E+03  0.26617382725E+03  0.00000000000E+00 0. -1.
      99926    2    1    2    0    0  0.00000000000E+00  0.00000000000E+00 -0.81483526936E+02  0.45086412756E+03  0.44343984525E+03 0.  0.
      99925    2    3    3    0    0 -0.82822678614E+02  0.18404230521E+02 -0.11030084591E+03  0.29699321489E+03  0.26237450579E+03 0.  0.
         25    1    3    3    0    0  0.82822678614E+02 -0.18404230521E+02  0.28817318971E+02  0.15387091267E+03  0.12509000000E+03 0.  0.
         25    1    4    4    0    0 -0.41819004820E+02  0.29511933199E+02 -0.92299191320E+02  0.16366561088E+03  0.12509000000E+03 0.  0.
         25    1    4    4    0    0 -0.41003673795E+02 -0.11107702679E+02 -0.18001654587E+02  0.13332760401E+03  0.12509000000E+03 0.  0.
<mgrwt>
<rscale>  2 0.44343985E+03</rscale>
<asrwt>0</asrwt>
<pdfrwt beam="1">  1       21 0.27160338E-01 0.44343985E+03</pdfrwt>
<pdfrwt beam="2">  1       21 0.39143210E-01 0.44343985E+03</pdfrwt>
<totfact> 0.75581913E+04</totfact>
</mgrwt>
</event>
<event>
 6    0  0.4752811E-002  0.4840670E+03  0.7546771E-02  0.1018023E+00
         21   -1    0    0  502  501  0.00000000000E+00  0.00000000000E+00  0.40634416693E+03  0.40634416693E+03  0.00000000000E+00 0.  1.
         21   -1    0    0  501  502 -0.00000000000E+00 -0.00000000000E+00 -0.14416400954E+03  0.14416400954E+03  0.00000000000E+00 0.  1.
      99926    2    1    2    0    0  0.35527136788E-14  0.00000000000E+00  0.26218015739E+03  0.55050817646E+03  0.48406695552E+03 0.  0.
         25    1    3    3    0    0 -0.25557923844E+02 -0.84775312691E+02  0.11880642884E+03  0.19391373532E+03  0.12509000000E+03 0.  0.
         25    1    3    3    0    0 -0.27698311449E+01 -0.47484309858E+02  0.21113478536E+02  0.13548327839E+03  0.12509000000E+03 0.  0.
         25    1    3    3    0    0  0.28327754989E+02  0.13225962255E+03  0.12226025002E+03  0.22111116275E+03  0.12509000000E+03 0.  0.
<mgrwt>
<rscale>  2 0.48406696E+03</rscale>
<asrwt>0</asrwt>
<pdfrwt beam="1">  1       21 0.59756495E-01 0.48406696E+03</pdfrwt>
<pdfrwt beam="2">  1       21 0.21200590E-01 0.48406696E+03</pdfrwt>
<totfact> 0.49431869E+04</totfact>
</mgrwt>
</event>
<event>
 7    0  0.4752811E-002  0.4596110E+03  0.7546771E-02  0.1024894E+00
         21   -1    0    0  502  501  0.00000000000E+00  0.00000000000E+00  0.25128622739E+03  0.25128622739E+03  0.00000000000E+00 0. -1.
         21   -1    0    0  501  502 -0.00000000000E+00 -0.00000000000E+00 -0.21016102624E+03  0.21016102624E+03  0.00000000000E+00 0. -1.
      99926    2    1    2    0    0  0.00000000000E+00  0.00000000000E+00  0.41125201151E+02  0.46144725364E+03  0.45961101566E+03 0.  0.
      99925    2    3    3    0    0 -0.47063818487E+02  0.92840816302E+02  0.80295780897E+02  0.29406666157E+03  0.26304632451E+03 0.  0.
         25    1    4    4    0    0 -0.41880131695E+02  0.66084441130E+02  0.76010349603E+02  0.16597041946E+03  0.12509000000E+03 0.  0.
         25    1    3    3    0    0  0.47063818487E+02 -0.92840816302E+02 -0.39170579746E+02  0.16738059206E+03  0.12509000000E+03 0.  0.
         25    1    4    4    0    0 -0.51836867921E+01  0.26756375172E+02  0.42854312944E+01  0.12809624211E+03  0.12509000000E+03 0.  0.
<mgrwt>
<rscale>  2 0.45961102E+03</rscale>
<asrwt>0</asrwt>
<pdfrwt beam="1">  1       21 0.36953857E-01 0.45961102E+03</pdfrwt>
<pdfrwt beam="2">  1       21 0.30906033E-01 0.45961102E+03</pdfrwt>
<totfact> 0.65628173E+04</totfact>
</mgrwt>
</event>
<event>
 7    0  0.4752811E-002  0.4735996E+03  0.7546771E-02  0.1020909E+00
         21   -1    0    0  502  501  0.00000000000E+00  0.00000000000E+00  0.39435541863E+03  0.39435541863E+03  0.00000000000E+00 0. -1.
         21   -1    0    0  501  502 -0.00000000000E+00 -0.00000000000E+00 -0.14219186936E+03  0.14219186936E+03  0.00000000000E+00 0. -1.
      99926    2    1    2    0    0 -0.14210854715E-13  0.00000000000E+00  0.25216354928E+03  0.53654728799E+03  0.47359955307E+03 0.  0.
      99925    2    3    3    0    0 -0.97726989212E+02 -0.82059221137E+02  0.18341162633E+03  0.34508289129E+03  0.26297927103E+03 0.  0.
         25    1    3    3    0    0  0.97726989212E+02  0.82059221137E+02  0.68751922946E+02  0.19146439670E+03  0.12509000000E+03 0.  0.
         25    1    4    4    0    0 -0.35841273539E+02 -0.74598765758E+02  0.11763414689E+03  0.19061708569E+03  0.12509000000E+03 0.  0.
         25    1    4    4    0    0 -0.61885715673E+02 -0.74604553790E+01  0.65777479442E+02  0.15446580560E+03  0.12509000000E+03 0.  0.
<mgrwt>
<rscale>  2 0.47359955E+03</rscale>
<asrwt>0</asrwt>
<pdfrwt beam="1">  1       21 0.57993444E-01 0.47359955E+03</pdfrwt>
<pdfrwt beam="2">  1       21 0.20910569E-01 0.47359955E+03</pdfrwt>
<totfact> 0.54305944E+04</totfact>
</mgrwt>
</event>
<event>
 7    0  0.4752811E-002  0.4592693E+03  0.7546771E-02  0.1024993E+00
         21   -1    0    0  502  501  0.00000000000E+00  0.00000000000E+00  0.81424720087E+02  0.81424720087E+02  0.00000000000E+00 0. -1.
         21   -1    0    0  501  502 -0.00000000000E+00 -0.00000000000E+00 -0.64761736486E+03  0.64761736486E+03  0.00000000000E+00 0. -1.
      99926    2    1    2    0    0  0.14210854715E-13  0.00000000000E+00 -0.56619264477E+03  0.72904208495E+03  0.45926925722E+03 0.  0.
      99925    2    3    3    0    0 -0.91922097355E+02 -0.54034941554E+02 -0.28034849164E+03  0.39930910985E+03  0.26359636103E+03 0.  0.
         25    1    4    4    0    0 -0.59539010179E+02  0.11887761681E+02 -0.12898847877E+03  0.18966219540E+03  0.12509000000E+03 0.  0.
         25    1    4    4    0    0 -0.32383087176E+02 -0.65922703235E+02 -0.15136001288E+03  0.20964691444E+03  0.12509000000E+03 0.  0.
         25    1    3    3    0    0  0.91922097355E+02  0.54034941554E+02 -0.28584415313E+03  0.32973297510E+03  0.12509000000E+03 0.  0.
<mgrwt>
<rscale>  2 0.45926926E+03</rscale>
<asrwt>0</asrwt>
<pdfrwt beam="1">  1       21 0.11974223E-01 0.45926926E+03</pdfrwt>
<pdfrwt beam="2">  1       21 0.95237850E-01 0.45926926E+03</pdfrwt>
<totfact> 0.49665871E+04</totfact>
</mgrwt>
</event>
<event>
 7    0  0.4752811E-002  0.4586048E+03  0.7546771E-02  0.1025187E+00
         21   -1    0    0  502  501  0.00000000000E+00  0.00000000000E+00  0.72957514164E+02  0.72957514164E+02  0.00000000000E+00 0. -1.
         21   -1    0    0  501  502 -0.00000000000E+00 -0.00000000000E+00 -0.72068795932E+03  0.72068795932E+03  0.00000000000E+00 0. -1.
      99926    2    1    2    0    0 -0.88817841970E-15  0.14210854715E-13 -0.64773044515E+03  0.79364547348E+03  0.45860484952E+03 0.  0.
      99925    2    3    3    0    0 -0.37957999617E+01  0.11335802230E+03 -0.45503375814E+03  0.53743468018E+03  0.26251831384E+03 0.  0.
         25    1    4    4    0    0  0.24360950123E+02  0.89047591779E+02 -0.24718028503E+03  0.29200775829E+03  0.12509000000E+03 0.  0.
         25    1    4    4    0    0 -0.28156750085E+02  0.24310430519E+02 -0.20785347311E+03  0.24542692190E+03  0.12509000000E+03 0.  0.
         25    1    3    3    0    0  0.37957999617E+01 -0.11335802230E+03 -0.19269668701E+03  0.25621079330E+03  0.12509000000E+03 0.  0.
<mgrwt>
<rscale>  2 0.45860485E+03</rscale>
<asrwt>0</asrwt>
<pdfrwt beam="1">  1       21 0.10729045E-01 0.45860485E+03</pdfrwt>
<pdfrwt beam="2">  1       21 0.10598353E+00 0.45860485E+03</pdfrwt>
<totfact> 0.46737351E+04</totfact>
</mgrwt>
</event>
<event>
 7    0  0.4752811E-002  0.4426536E+03  0.7546771E-02  0.1029936E+00
         21   -1    0    0  502  501  0.00000000000E+00  0.00000000000E+00  0.16531345618E+04  0.16531345618E+04  0.00000000000E+00 0. -1.
         21   -1    0    0  501  502 -0.00000000000E+00 -0.00000000000E+00 -0.29631917219E+02  0.29631917219E+02  0.00000000000E+00 0. -1.
      99926    2    1    2    0    0  0.00000000000E+00  0.00000000000E+00  0.16235026446E+04  0.16827664791E+04  0.44265357330E+03 0.  0.
      99925    2    3    3    0    0  0.25115859243E+02  0.27583943665E+02  0.67641029951E+03  0.72672092648E+03  0.26306031888E+03 0.  0.
         25    1    3    3    0    0 -0.25115859243E+02 -0.27583943665E+02  0.94709234511E+03  0.95604555257E+03  0.12509000000E+03 0.  0.
         25    1    4    4    0    0  0.14019704043E+02 -0.18911067003E+02  0.26338233590E+03  0.29252682530E+03  0.12509000000E+03 0.  0.
         25    1    4    4    0    0  0.11096155200E+02  0.46495010668E+02  0.41302796361E+03  0.43419410118E+03  0.12509000000E+03 0.  0.
<mgrwt>
<rscale>  2 0.44265357E+03</rscale>
<asrwt>0</asrwt>
<pdfrwt beam="1">  1       21 0.24310796E+00 0.44265357E+03</pdfrwt>
<pdfrwt beam="2">  1       21 0.43576360E-02 0.44265357E+03</pdfrwt>
<totfact> 0.21622224E+04</totfact>
</mgrwt>
</event>
<event>
 7    0  0.4752811E-002  0.4513766E+03  0.7546771E-02  0.1027312E+00
         21   -1    0    0  502  501  0.00000000000E+00  0.00000000000E+00  0.47945905424E+02  0.47945905424E+02  0.00000000000E+00 0. -1.
         21   -1    0    0  501  502 -0.00000000000E+00 -0.00000000000E+00 -0.10623471890E+04  0.10623471890E+04  0.00000000000E+00 0. -1.
      99926    2    1    2    0    0  0.00000000000E+00 -0.71054273576E-14 -0.10144012836E+04  0.11102930945E+04  0.45137655169E+03 0.  0.
      99925    2    3    3    0    0 -0.89649843664E+01 -0.50157651843E+02 -0.40132166313E+03  0.48251105416E+03  0.26298608157E+03 0.  0.
         25    1    4    4    0    0 -0.33764226799E+02  0.32074950807E+01 -0.19058846070E+03  0.23048162722E+03  0.12509000000E+03 0.  0.
         25    1    4    4    0    0  0.24799242433E+02 -0.53365146924E+02 -0.21073320244E+03  0.25202942694E+03  0.12509000000E+03 0.  0.
         25    1    3    3    0    0  0.89649843664E+01  0.50157651843E+02 -0.61307962047E+03  0.62778204030E+03  0.12509000000E+03 0.  0.
<mgrwt>
<rscale>  2 0.45137655E+03</rscale>
<asrwt>0</asrwt>
<pdfrwt beam="1">  1       21 0.70508686E-02 0.45137655E+03</pdfrwt>
<pdfrwt beam="2">  1       21 0.15622752E+00 0.45137655E+03</pdfrwt>
<totfact> 0.36146474E+04</totfact>
</mgrwt>
</event>
<event>
 7    0  0.4752811E-002  0.4533654E+03  0.7546771E-02  0.1026723E+00
         21   -1    0    0  502  501  0.00000000000E+00  0.00000000000E+00  0.33786088289E+03  0.33786088289E+03  0.00000000000E+00 0.  1.
         21   -1    0    0  501  502 -0.00000000000E+00 -0.00000000000E+00 -0.15208937010E+03  0.15208937010E+03  0.00000000000E+00 0.  1.
      99926    2    1    2    0    0  0.00000000000E+00  0.00000000000E+00  0.18577151279E+03  0.48995025299E+03  0.45336541051E+03 0.  0.
      99925    2    3    3    0    0  0.42384435705E+02 -0.85124200820E+02  0.53864812826E+02  0.28479310456E+03  0.26298882940E+03 0.  0.
         25    1    4    4    0    0 -0.19594407572E+02 -0.36431871578E+02  0.22705470346E+02  0.13369468411E+03  0.12509000000E+03 0.  0.
         25    1    4    4    0    0  0.61978843277E+02 -0.48692329243E+02  0.31159342480E+02  0.15109842046E+03  0.12509000000E+03 0.  0.
         25    1    3    3    0    0 -0.42384435705E+02  0.85124200820E+02  0.13190669997E+03  0.20515714843E+03  0.12509000000E+03 0.  0.
<mgrwt>
<rscale>  2 0.45336541E+03</rscale>
<asrwt>0</asrwt>
<pdfrwt beam="1">  1       21 0.49685424E-01 0.45336541E+03</pdfrwt>
<pdfrwt beam="2">  1       21 0.22366084E-01 0.45336541E+03</pdfrwt>
<totfact> 0.66845837E+04</totfact>
</mgrwt>
</event>
<event>
 7    0  0.4752811E-002  0.4250946E+03  0.7546771E-02  0.1035421E+00
         21   -1    0    0  502  501  0.00000000000E+00  0.00000000000E+00  0.42103113682E+03  0.42103113682E+03  0.00000000000E+00 0.  1.
         21   -1    0    0  501  502 -0.00000000000E+00 -0.00000000000E+00 -0.10729930888E+03  0.10729930888E+03  0.00000000000E+00 0.  1.
      99926    2    1    2    0    0  0.00000000000E+00  0.00000000000E+00  0.31373182794E+03  0.52833044570E+03  0.42509457771E+03 0.  0.
      99925    2    3    3    0    0 -0.18930143684E+02 -0.52996153250E+02  0.27773682732E+03  0.38652039398E+03  0.26285609583E+03 0.  0.
         25    1    3    3    0    0  0.18930143684E+02  0.52996153250E+02  0.35995000621E+02  0.14181005172E+03  0.12509000000E+03 0.  0.
         25    1    4    4    0    0  0.18066028495E+02 -0.48088786568E+02  0.17027400480E+03  0.21743885943E+03  0.12509000000E+03 0.  0.
         25    1    4    4    0    0 -0.36996172179E+02 -0.49073666818E+01  0.10746282252E+03  0.16908153456E+03  0.12509000000E+03 0.  0.
<mgrwt>
<rscale>  2 0.42509458E+03</rscale>
<asrwt>0</asrwt>
<pdfrwt beam="1">  1       21 0.61916343E-01 0.42509458E+03</pdfrwt>
<pdfrwt beam="2">  1       21 0.15779310E-01 0.42509458E+03</pdfrwt>
<totfact> 0.80822312E+04</totfact>
</mgrwt>
</event>
<event>
 7    0  0.4752811E-002  0.4182517E+03  0.7546771E-02  0.1037637E+00
         21   -1    0    0  502  501  0.00000000000E+00  0.00000000000E+00  0.18051495381E+03  0.18051495381E+03  0.00000000000E+00 0. -1.
         21   -1    0    0  501  502 -0.00000000000E+00 -0.00000000000E+00 -0.24227144682E+03  0.24227144682E+03  0.00000000000E+00 0. -1.
      99926    2    1    2    0    0  0.00000000000E+00  0.00000000000E+00 -0.61756493018E+02  0.42278640063E+03  0.41825168993E+03 0.  0.
      99925    2    3    3    0    0 -0.70609623461E+02 -0.16652927853E+02 -0.52711586084E+02  0.27789900514E+03  0.26303290064E+03 0.  0.
         25    1    4    4    0    0 -0.66056153137E+02 -0.34415907744E+02 -0.39073840255E+02  0.15073865850E+03  0.12509000000E+03 0.  0.
         25    1    3    3    0    0  0.70609623461E+02  0.16652927853E+02 -0.90449069335E+01  0.14488739549E+03  0.12509000000E+03 0.  0.
         25    1    4    4    0    0 -0.45534703237E+01  0.17762979891E+02 -0.13637745829E+02  0.12716034664E+03  0.12509000000E+03 0.  0.
<mgrwt>
<rscale>  2 0.41825169E+03</rscale>
<asrwt>0</asrwt>
<pdfrwt beam="1">  1       21 0.26546317E-01 0.41825169E+03</pdfrwt>
<pdfrwt beam="2">  1       21 0.35628154E-01 0.41825169E+03</pdfrwt>
<totfact> 0.96238659E+04</totfact>
</mgrwt>
</event>
<event>
 7    0  0.4752811E-002  0.4719241E+03  0.7546771E-02  0.1021379E+00
         21   -1    0    0  502  501  0.00000000000E+00  0.00000000000E+00  0.24746985838E+03  0.24746985838E+03  0.00000000000E+00 0. -1.
         21   -1    0    0  501  502 -0.00000000000E+00 -0.00000000000E+00 -0.22498940000E+03  0.22498940000E+03  0.00000000000E+00 0. -1.
      99926    2    1    2    0    0  0.00000000000E+00  0.00000000000E+00  0.22480458374E+02  0.47245925838E+03  0.47192412507E+03 0.  0.
      99925    2    3    3    0    0  0.10994872033E+03 -0.56384795593E+02 -0.20775202812E+02  0.29138875664E+03  0.26307381506E+03 0.  0.
         25    1    4    4    0    0  0.60555713201E+02 -0.31307261783E+02 -0.50945716011E+02  0.15129478881E+03  0.12509000000E+03 0.  0.
         25    1    3    3    0    0 -0.10994872033E+03  0.56384795593E+02  0.43255661187E+02  0.18107050174E+03  0.12509000000E+03 0.  0.
         25    1    4    4    0    0  0.49393007130E+02 -0.25077533810E+02  0.30170513198E+02  0.14009396783E+03  0.12509000000E+03 0.  0.
<mgrwt>
<rscale>  2 0.47192413E+03</rscale>
<asrwt>0</asrwt>
<pdfrwt beam="1">  1       21 0.36392626E-01 0.47192413E+03</pdfrwt>
<pdfrwt beam="2">  1       21 0.33086676E-01 0.47192413E+03</pdfrwt>
<totfact> 0.58918125E+04</totfact>
</mgrwt>
</event>
<event>
 7    0  0.4752811E-002  0.4598861E+03  0.7546771E-02  0.1024814E+00
         21   -1    0    0  502  501  0.00000000000E+00  0.00000000000E+00  0.40012171262E+02  0.40012171262E+02  0.00000000000E+00 0. -1.
         21   -1    0    0  501  502 -0.00000000000E+00 -0.00000000000E+00 -0.13214427821E+04  0.13214427821E+04  0.00000000000E+00 0. -1.
      99926    2    1    2    0    0 -0.17763568394E-14  0.00000000000E+00 -0.12814306109E+04  0.13614549534E+04  0.45988605072E+03 0.  0.
      99925    2    3    3    0    0  0.14916520860E+02  0.70405666909E+02 -0.52709114128E+03  0.59343476876E+03  0.26298344630E+03 0.  0.
         25    1    3    3    0    0 -0.14916520860E+02 -0.70405666909E+02 -0.75433946959E+03  0.76802018464E+03  0.12509000000E+03 0.  0.
         25    1    4    4    0    0  0.24463561876E+02  0.35487875944E+02 -0.18538837966E+03  0.22775911532E+03  0.12509000000E+03 0.  0.
         25    1    4    4    0    0 -0.95470410167E+01  0.34917790964E+02 -0.34170276163E+03  0.36567565344E+03  0.12509000000E+03 0.  0.
<mgrwt>
<rscale>  2 0.45988605E+03</rscale>
<asrwt>0</asrwt>
<pdfrwt beam="1">  1       21 0.58841435E-02 0.45988605E+03</pdfrwt>
<pdfrwt beam="2">  1       21 0.19432980E+00 0.45988605E+03</pdfrwt>
<totfact> 0.26362040E+04</totfact>
</mgrwt>
</event>
<event>
 7    0  0.4752811E-002  0.4514931E+03  0.7546771E-02  0.1027278E+00
         21   -1    0    0  502  501  0.00000000000E+00  0.00000000000E+00  0.49854346185E+03  0.49854346185E+03  0.00000000000E+00 0.  1.
         21   -1    0    0  501  502 -0.00000000000E+00 -0.00000000000E+00 -0.10222077401E+03  0.10222077401E+03  0.00000000000E+00 0.  1.
      99926    2    1    2    0    0  0.00000000000E+00  0.00000000000E+00  0.39632268784E+03  0.60076423586E+03  0.45149307214E+03 0.  0.
      99925    2    3    3    0    0  0.80255877827E+02  0.64404591952E+02  0.20500743295E+03  0.35008916282E+03  0.26447195876E+03 0.  0.
         25    1    4    4    0    0  0.35694199960E+01  0.40464075924E+02  0.12413120392E+03  0.18084840637E+03  0.12509000000E+03 0.  0.
         25    1    3    3    0    0 -0.80255877827E+02 -0.64404591952E+02  0.19131525489E+03  0.25067507304E+03  0.12509000000E+03 0.  0.
         25    1    4    4    0    0  0.76686457831E+02  0.23940516028E+02  0.80876229024E+02  0.16924075645E+03  0.12509000000E+03 0.  0.
<mgrwt>
<rscale>  2 0.45149307E+03</rscale>
<asrwt>0</asrwt>
<pdfrwt beam="1">  1       21 0.73315214E-01 0.45149307E+03</pdfrwt>
<pdfrwt beam="2">  1       21 0.15032467E-01 0.45149307E+03</pdfrwt>
<totfact> 0.60284329E+04</totfact>
</mgrwt>
</event>
<event>
 7    0  0.4752811E-002  0.4520116E+03  0.7546771E-02  0.1027124E+00
         21   -1    0    0  502  501  0.00000000000E+00  0.00000000000E+00  0.23946434182E+03  0.23946434182E+03  0.00000000000E+00 0.  1.
         21   -1    0    0  501  502 -0.00000000000E+00 -0.00000000000E+00 -0.21330362590E+03  0.21330362590E+03  0.00000000000E+00 0.  1.
      99926    2    1    2    0    0  0.17763568394E-14  0.00000000000E+00  0.26160715914E+02  0.45276796772E+03  0.45201155907E+03 0.  0.
      99925    2    3    3    0    0 -0.85858425911E+01  0.10040861234E+03  0.61636044699E+02  0.28826382438E+03  0.26294756951E+03 0.  0.
         25    1    3    3    0    0  0.85858425911E+01 -0.10040861234E+03 -0.35475328785E+02  0.16450414334E+03  0.12509000000E+03 0.  0.
         25    1    4    4    0    0  0.17450934827E+02  0.35880083235E+02  0.61815618568E+02  0.14512268706E+03  0.12509000000E+03 0.  0.
         25    1    4    4    0    0 -0.26036777419E+02  0.64528529104E+02 -0.17957386833E+00  0.14314113732E+03  0.12509000000E+03 0.  0.
<mgrwt>
<rscale>  2 0.45201156E+03</rscale>
<asrwt>0</asrwt>
<pdfrwt beam="1">  1       21 0.35215344E-01 0.45201156E+03</pdfrwt>
<pdfrwt beam="2">  1       21 0.31368180E-01 0.45201156E+03</pdfrwt>
<totfact> 0.70372727E+04</totfact>
</mgrwt>
</event>
<event>
 7    0  0.4752811E-002  0.4748053E+03  0.7546771E-02  0.1020573E+00
         21   -1    0    0  502  501  0.00000000000E+00  0.00000000000E+00  0.42642683179E+03  0.42642683179E+03  0.00000000000E+00 0. -1.
         21   -1    0    0  501  502 -0.00000000000E+00 -0.00000000000E+00 -0.13216810676E+03  0.13216810676E+03  0.00000000000E+00 0. -1.
      99926    2    1    2    0    0  0.00000000000E+00  0.00000000000E+00  0.29425872503E+03  0.55859493855E+03  0.47480533707E+03 0.  0.
      99925    2    3    3    0    0  0.11834524685E+03 -0.53434164660E+02  0.16423208514E+03  0.33629954367E+03  0.26318130229E+03 0.  0.
         25    1    4    4    0    0  0.39481329884E+02 -0.28681481959E+02  0.11973427735E+03  0.17990332984E+03  0.12509000000E+03 0.  0.
         25    1    4    4    0    0  0.78863916964E+02 -0.24752682701E+02  0.44497807797E+02  0.15639621382E+03  0.12509000000E+03 0.  0.
         25    1    3    3    0    0 -0.11834524685E+03  0.53434164660E+02  0.13002663989E+03  0.22229539488E+03  0.12509000000E+03 0.  0.
<mgrwt>
<rscale>  2 0.47480534E+03</rscale>
<asrwt>0</asrwt>
<pdfrwt beam="1">  1       21 0.62709828E-01 0.47480534E+03</pdfrwt>
<pdfrwt beam="2">  1       21 0.19436486E-01 0.47480534E+03</pdfrwt>
<totfact> 0.52565894E+04</totfact>
</mgrwt>
</event>
<event>
 7    0  0.4752811E-002  0.4439269E+03  0.7546771E-02  0.1029549E+00
         21   -1    0    0  502  501  0.00000000000E+00  0.00000000000E+00  0.32736744884E+03  0.32736744884E+03  0.00000000000E+00 0.  1.
         21   -1    0    0  501  502 -0.00000000000E+00 -0.00000000000E+00 -0.15049684378E+03  0.15049684378E+03  0.00000000000E+00 0.  1.
      99926    2    1    2    0    0  0.00000000000E+00  0.71054273576E-14  0.17687060506E+03  0.47786429261E+03  0.44392687598E+03 0.  0.
      99925    2    3    3    0    0  0.84168985882E+02 -0.35920501673E+02  0.62830789650E+02  0.28543953271E+03  0.26297018478E+03 0.  0.
         25    1    4    4    0    0  0.78205356674E+02 -0.10419717169E+02  0.13724201043E+02  0.14852780922E+03  0.12509000000E+03 0.  0.
         25    1    3    3    0    0 -0.84168985882E+02  0.35920501673E+02  0.11403981541E+03  0.19242475990E+03  0.12509000000E+03 0.  0.
         25    1    4    4    0    0  0.59636292075E+01 -0.25500784505E+02  0.49106588607E+02  0.13691172349E+03  0.12509000000E+03 0.  0.
<mgrwt>
<rscale>  2 0.44392688E+03</rscale>
<asrwt>0</asrwt>
<pdfrwt beam="1">  1       21 0.48142272E-01 0.44392688E+03</pdfrwt>
<pdfrwt beam="2">  1       21 0.22131889E-01 0.44392688E+03</pdfrwt>
<totfact> 0.73070682E+04</totfact>
</mgrwt>
</event>
<event>
 7    0  0.4752811E-002  0.4511252E+03  0.7546771E-02  0.1027387E+00
         21   -1    0    0  502  501  0.00000000000E+00  0.00000000000E+00  0.27753050216E+03  0.27753050216E+03  0.00000000000E+00 0.  1.
         21   -1    0    0  501  502 -0.00000000000E+00 -0.00000000000E+00 -0.18332576340E+03  0.18332576340E+03  0.00000000000E+00 0.  1.
      99926    2    1    2    0    0  0.00000000000E+00  0.71054273576E-14  0.94204738755E+02  0.46085626556E+03  0.45112522064E+03 0.  0.
      99925    2    3    3    0    0  0.79152200533E+02  0.32039727062E+02 -0.10501812984E+02  0.27672971930E+03  0.26301603470E+03 0.  0.
         25    1    4    4    0    0  0.43455233919E+02 -0.24464426469E+02 -0.74922989724E+01  0.13487219195E+03  0.12509000000E+03 0.  0.
         25    1    4    4    0    0  0.35696966614E+02  0.56504153530E+02 -0.30095140115E+01  0.14185752735E+03  0.12509000000E+03 0.  0.
         25    1    3    3    0    0 -0.79152200533E+02 -0.32039727062E+02  0.10470655174E+03  0.18412654626E+03  0.12509000000E+03 0.  0.
<mgrwt>
<rscale>  2 0.45112522E+03</rscale>
<asrwt>0</asrwt>
<pdfrwt beam="1">  1       21 0.40813309E-01 0.45112522E+03</pdfrwt>
<pdfrwt beam="2">  1       21 0.26959671E-01 0.45112522E+03</pdfrwt>
<totfact> 0.70257210E+04</totfact>
</mgrwt>
</event>
<event>
 7    0  0.4752811E-002  0.4626007E+03  0.7546771E-02  0.1024030E+00
         21   -1    0    0  502  501  0.00000000000E+00  0.00000000000E+00  0.51180157780E+03  0.51180157780E+03  0.00000000000E+00 0. -1.
         21   -1    0    0  501  502 -0.00000000000E+00 -0.00000000000E+00 -0.10453241485E+03  0.10453241485E+03  0.00000000000E+00 0. -1.
      99926    2    1    2    0    0  0.00000000000E+00  0.00000000000E+00  0.40726916294E+03  0.61633399265E+03  0.46260071272E+03 0.  0.
      99925    2    3    3    0    0  0.67197617465E+02  0.97186619424E+02  0.28349664271E+03  0.40437195913E+03  0.26303151164E+03 0.  0.
         25    1    4    4    0    0  0.65656913113E+02  0.33978198766E+02  0.17278556295E+03  0.22576028680E+03  0.12509000000E+03 0.  0.
         25    1    4    4    0    0  0.15407043512E+01  0.63208420658E+02  0.11071107976E+03  0.17861167233E+03  0.12509000000E+03 0.  0.
         25    1    3    3    0    0 -0.67197617465E+02 -0.97186619424E+02  0.12377252023E+03  0.21196203352E+03  0.12509000000E+03 0.  0.
<mgrwt>
<rscale>  2 0.46260071E+03</rscale>
<asrwt>0</asrwt>
<pdfrwt beam="1">  1       21 0.75264937E-01 0.46260071E+03</pdfrwt>
<pdfrwt beam="2">  1       21 0.15372414E-01 0.46260071E+03</pdfrwt>
<totfact> 0.54347347E+04</totfact>
</mgrwt>
</event>
<event>
 7    0  0.4752811E-002  0.4658894E+03  0.7546771E-02  0.1023087E+00
         21   -1    0    0  502  501  0.00000000000E+00  0.00000000000E+00  0.24106417233E+03  0.24106417233E+03  0.00000000000E+00 0.  1.
         21   -1    0    0  501  502 -0.00000000000E+00 -0.00000000000E+00 -0.22509867648E+03  0.22509867648E+03  0.00000000000E+00 0.  1.
      99926    2    1    2    0    0  0.00000000000E+00  0.00000000000E+00  0.15965495847E+02  0.46616284881E+03  0.46588936944E+03 0.  0.
      99925    2    3    3    0    0  0.10031332474E+02 -0.10447370153E+03  0.74128274233E+02  0.29282560863E+03  0.26312820846E+03 0.  0.
         25    1    3    3    0    0 -0.10031332474E+02  0.10447370153E+03 -0.58162778387E+02  0.17333724018E+03  0.12509000000E+03 0.  0.
         25    1    4    4    0    0  0.10149977495E+02 -0.11639631760E+02  0.48024749905E+02  0.13487915990E+03  0.12509000000E+03 0.  0.
         25    1    4    4    0    0 -0.11864502068E+00 -0.92834069771E+02  0.26103524329E+02  0.15794644874E+03  0.12509000000E+03 0.  0.
<mgrwt>
<rscale>  2 0.46588937E+03</rscale>
<asrwt>0</asrwt>
<pdfrwt beam="1">  1       21 0.35450614E-01 0.46588937E+03</pdfrwt>
<pdfrwt beam="2">  1       21 0.33102747E-01 0.46588937E+03</pdfrwt>
<totfact> 0.62157000E+04</totfact>
</mgrwt>
</event>
<event>
 7    0  0.4752811E-002  0.4277817E+03  0.7546771E-02  0.1034563E+00
         21   -1    0    0  502  501  0.00000000000E+00  0.00000000000E+00  0.17894767008E+04  0.17894767008E+04  0.00000000000E+00 0.  1.
         21   -1    0    0  501  502 -0.00000000000E+00 -0.00000000000E+00 -0.25565737689E+02  0.25565737689E+02  0.00000000000E+00 0.  1.
      99926    2    1    2    0    0  0.00000000000E+00  0.00000000000E+00  0.17639109631E+04  0.18150424385E+04  0.42778168233E+03 0.  0.
      99925    2    3    3    0    0  0.42065225895E+02  0.34085968457E+02  0.14189148902E+04  0.14440961690E+04  0.26298848455E+03 0.  0.
         25    1    3    3    0    0 -0.42065225895E+02 -0.34085968457E+02  0.34499607285E+03  0.37094626950E+03  0.12509000000E+03 0.  0.
         25    1    4    4    0    0 -0.16069926088E+02  0.66347743285E+00  0.70962848172E+03  0.72074875851E+03  0.12509000000E+03 0.  0.
         25    1    4    4    0    0  0.58135151983E+02  0.33422491024E+02  0.70928640852E+03  0.72334741045E+03  0.12509000000E+03 0.  0.
<mgrwt>
<rscale>  2 0.42778168E+03</rscale>
<asrwt>0</asrwt>
<pdfrwt beam="1">  1       21 0.26315825E+00 0.42778168E+03</pdfrwt>
<pdfrwt beam="2">  1       21 0.37596685E-02 0.42778168E+03</pdfrwt>
<totfact> 0.21087334E+04</totfact>
</mgrwt>
</event>
<event>
 7    0  0.4752811E-002  0.4521166E+03  0.7546771E-02  0.1027093E+00
         21   -1    0    0  502  501  0.00000000000E+00  0.00000000000E+00  0.24484104456E+03  0.24484104456E+03  0.00000000000E+00 0.  1.
         21   -1    0    0  501  502 -0.00000000000E+00 -0.00000000000E+00 -0.20871648897E+03  0.20871648897E+03  0.00000000000E+00 0.  1.
      99926    2    1    2    0    0  0.00000000000E+00  0.00000000000E+00  0.36124555594E+02  0.45355753352E+03  0.45211663617E+03 0.  0.
      99925    2    3    3    0    0  0.37843953319E+02 -0.88063069374E+02 -0.32152839481E+02  0.28181185012E+03  0.26305293154E+03 0.  0.
         25    1    4    4    0    0  0.26185602912E+02 -0.14784223064E+02  0.13533778111E+02  0.12936355863E+03  0.12509000000E+03 0.  0.
         25    1    4    4    0    0  0.11658350407E+02 -0.73278846310E+02 -0.45686617592E+02  0.15244829149E+03  0.12509000000E+03 0.  0.
         25    1    3    3    0    0 -0.37843953319E+02  0.88063069374E+02  0.68277395075E+02  0.17174568341E+03  0.12509000000E+03 0.  0.
<mgrwt>
<rscale>  2 0.45211664E+03</rscale>
<asrwt>0</asrwt>
<pdfrwt beam="1">  1       21 0.36006036E-01 0.45211664E+03</pdfrwt>
<pdfrwt beam="2">  1       21 0.30693601E-01 0.45211664E+03</pdfrwt>
<totfact> 0.70253998E+04</totfact>
</mgrwt>
</event>
<event>
 7    0  0.4752811E-002  0.4532020E+03  0.7546771E-02  0.1026771E+00
         21   -1    0    0  502  501  0.00000000000E+00  0.00000000000E+00  0.13594087639E+03  0.13594087639E+03  0.00000000000E+00 0. -1.
         21   -1    0    0  501  502 -0.00000000000E+00 -0.00000000000E+00 -0.37772306458E+03  0.37772306458E+03  0.00000000000E+00 0. -1.
      99926    2    1    2    0    0  0.00000000000E+00  0.00000000000E+00 -0.24178218818E+03  0.51366394097E+03  0.45320196130E+03 0.  0.
      99925    2    3    3    0    0 -0.45525065417E+02 -0.83998982577E+02 -0.87461309681E+02  0.29323072592E+03  0.26307112589E+03 0.  0.
         25    1    4    4    0    0 -0.50222824685E+02 -0.56423621628E+02 -0.17419577333E+02  0.14716285867E+03  0.12509000000E+03 0.  0.
         25    1    3    3    0    0  0.45525065417E+02  0.83998982577E+02 -0.15432087850E+03  0.22043321505E+03  0.12509000000E+03 0.  0.
         25    1    4    4    0    0  0.46977592676E+01 -0.27575360949E+02 -0.70041732348E+02  0.14606786725E+03  0.12509000000E+03 0.  0.
<mgrwt>
<rscale>  2 0.45320196E+03</rscale>
<asrwt>0</asrwt>
<pdfrwt beam="1">  1       21 0.19991306E-01 0.45320196E+03</pdfrwt>
<pdfrwt beam="2">  1       21 0.55547508E-01 0.45320196E+03</pdfrwt>
<totfact> 0.65246969E+04</totfact>
</mgrwt>
</event>
<event>
 6    0  0.4752811E-002  0.4438157E+03  0.7546771E-02  0.1029582E+00
         21   -1    0    0  502  501  0.00000000000E+00  0.00000000000E+00  0.47393456725E+03  0.47393456725E+03  0.00000000000E+00 0. -1.
         21   -1    0    0  501  502 -0.00000000000E+00 -0.00000000000E+00 -0.10390272581E+03  0.10390272581E+03  0.00000000000E+00 0. -1.
      99926    2    1    2    0    0  0.00000000000E+00  0.00000000000E+00  0.37003184144E+03  0.57783729306E+03  0.44381569775E+03 0.  0.
         25    1    3    3    0    0 -0.26007474576E+01  0.72395265412E+01  0.16586324418E+03  0.20788770647E+03  0.12509000000E+03 0.  0.
         25    1    3    3    0    0 -0.14112070215E+01  0.74200242527E+02  0.15544886200E+03  0.21288382816E+03  0.12509000000E+03 0.  0.
         25    1    3    3    0    0  0.40119544790E+01 -0.81439769068E+02  0.48719735257E+02  0.15706575842E+03  0.12509000000E+03 0.  0.
<mgrwt>
<rscale>  2 0.44381570E+03</rscale>
<asrwt>0</asrwt>
<pdfrwt beam="1">  1       21 0.69696259E-01 0.44381570E+03</pdfrwt>
<pdfrwt beam="2">  1       21 0.15279813E-01 0.44381570E+03</pdfrwt>
<totfact> 0.65681472E+04</totfact>
</mgrwt>
</event>
<event>
 7    0  0.4752811E-002  0.4356922E+03  0.7546771E-02  0.1032077E+00
         21   -1    0    0  502  501  0.00000000000E+00  0.00000000000E+00  0.20625800956E+03  0.20625800956E+03  0.00000000000E+00 0.  1.
         21   -1    0    0  501  502 -0.00000000000E+00 -0.00000000000E+00 -0.23008519312E+03  0.23008519312E+03  0.00000000000E+00 0.  1.
      99926    2    1    2    0    0 -0.71054273576E-14  0.00000000000E+00 -0.23827183559E+02  0.43634320269E+03  0.43569215721E+03 0.  0.
      99925    2    3    3    0    0 -0.28381138283E+02 -0.81622970534E+02 -0.52068988615E+02  0.28170521905E+03  0.26301873039E+03 0.  0.
         25    1    3    3    0    0  0.28381138283E+02  0.81622970534E+02  0.28241805057E+02  0.15463798363E+03  0.12509000000E+03 0.  0.
         25    1    4    4    0    0 -0.18706765477E+02 -0.81290917330E+02 -0.40487985438E+02  0.15570787193E+03  0.12509000000E+03 0.  0.
         25    1    4    4    0    0 -0.96743728058E+01 -0.33205320310E+00 -0.11581003177E+02  0.12599734713E+03  0.12509000000E+03 0.  0.
<mgrwt>
<rscale>  2 0.43569216E+03</rscale>
<asrwt>0</asrwt>
<pdfrwt beam="1">  1       21 0.30332060E-01 0.43569216E+03</pdfrwt>
<pdfrwt beam="2">  1       21 0.33836058E-01 0.43569216E+03</pdfrwt>
<totfact> 0.81833458E+04</totfact>
</mgrwt>
</event>
<event>
 7    0  0.4752811E-002  0.4461298E+03  0.7546771E-02  0.1028882E+00
         21   -1    0    0  502  501  0.00000000000E+00  0.00000000000E+00  0.55043693300E+02  0.55043693300E+02  0.00000000000E+00 0.  1.
         21   -1    0    0  501  502 -0.00000000000E+00 -0.00000000000E+00 -0.90397189828E+03  0.90397189828E+03  0.00000000000E+00 0.  1.
      99926    2    1    2    0    0  0.00000000000E+00 -0.71054273576E-14 -0.84892820498E+03  0.95901559158E+03  0.44612981035E+03 0.  0.
      99925    2    3    3    0    0 -0.89602796077E+02 -0.55153188773E+02 -0.55178705509E+03  0.61988301226E+03  0.26213633748E+03 0.  0.
         25    1    4    4    0    0 -0.66778191455E+02 -0.51145453395E+02 -0.35344610838E+03  0.38424841429E+03  0.12509000000E+03 0.  0.
         25    1    3    3    0    0  0.89602796077E+02  0.55153188773E+02 -0.29714114989E+03  0.33913257932E+03  0.12509000000E+03 0.  0.
         25    1    4    4    0    0 -0.22824604622E+02 -0.40077353779E+01 -0.19834094672E+03  0.23563459798E+03  0.12509000000E+03 0.  0.
<mgrwt>
<rscale>  2 0.44612981E+03</rscale>
<asrwt>0</asrwt>
<pdfrwt beam="1">  1       21 0.80946621E-02 0.44612981E+03</pdfrwt>
<pdfrwt beam="2">  1       21 0.13293702E+00 0.44612981E+03</pdfrwt>
<totfact> 0.43733146E+04</totfact>
</mgrwt>
</event>
<event>
 7    0  0.4752811E-002  0.4588318E+03  0.7546771E-02  0.1025121E+00
         21   -1    0    0  502  501  0.00000000000E+00  0.00000000000E+00  0.88232512622E+02  0.88232512622E+02  0.00000000000E+00 0. -1.
         21   -1    0    0  501  502 -0.00000000000E+00 -0.00000000000E+00 -0.59651080795E+03  0.59651080795E+03  0.00000000000E+00 0. -1.
      99926    2    1    2    0    0 -0.71054273576E-14  0.00000000000E+00 -0.50827829533E+03  0.68474332057E+03  0.45883176608E+03 0.  0.
      99925    2    3    3    0    0 -0.59091707357E+02 -0.59614846343E+02 -0.19766551890E+03  0.33952807647E+03  0.26298649692E+03 0.  0.
         25    1    3    3    0    0  0.59091707357E+02  0.59614846343E+02 -0.31061277642E+03  0.34521524410E+03  0.12509000000E+03 0.  0.
         25    1    4    4    0    0 -0.51932221100E+01 -0.18111788844E+02 -0.54926720029E+02  0.13791105512E+03  0.12509000000E+03 0.  0.
         25    1    4    4    0    0 -0.53898485247E+02 -0.41503057499E+02 -0.14273879888E+03  0.20161702135E+03  0.12509000000E+03 0.  0.
<mgrwt>
<rscale>  2 0.45883177E+03</rscale>
<asrwt>0</asrwt>
<pdfrwt beam="1">  1       21 0.12975369E-01 0.45883177E+03</pdfrwt>
<pdfrwt beam="2">  1       21 0.87722180E-01 0.45883177E+03</pdfrwt>
<totfact> 0.52147958E+04</totfact>
</mgrwt>
</event>
<event>
 7    0  0.4752811E-002  0.4531102E+03  0.7546771E-02  0.1026799E+00
         21   -1    0    0  502  501  0.00000000000E+00  0.00000000000E+00  0.62164572986E+02  0.62164572986E+02  0.00000000000E+00 0.  1.
         21   -1    0    0  501  502 -0.00000000000E+00 -0.00000000000E+00 -0.82566644595E+03  0.82566644595E+03  0.00000000000E+00 0.  1.
      99926    2    1    2    0    0  0.00000000000E+00  0.00000000000E+00 -0.76350187296E+03  0.88783101893E+03  0.45311015014E+03 0.  0.
      99925    2    3    3    0    0  0.10417034797E+03 -0.27447528369E+02 -0.42651599573E+03  0.51258201125E+03  0.26309617146E+03 0.  0.
         25    1    4    4    0    0  0.73889549997E+02 -0.58691031755E+01 -0.28584530170E+03  0.32070103924E+03  0.12509000000E+03 0.  0.
         25    1    4    4    0    0  0.30280797972E+02 -0.21578425193E+02 -0.14067069403E+03  0.19188097201E+03  0.12509000000E+03 0.  0.
         25    1    3    3    0    0 -0.10417034797E+03  0.27447528369E+02 -0.33698587724E+03  0.37524900768E+03  0.12509000000E+03 0.  0.
<mgrwt>
<rscale>  2 0.45311015E+03</rscale>
<asrwt>0</asrwt>
<pdfrwt beam="1">  1       21 0.91418498E-02 0.45311015E+03</pdfrwt>
<pdfrwt beam="2">  1       21 0.12142152E+00 0.45311015E+03</pdfrwt>
<totfact> 0.44417733E+04</totfact>
</mgrwt>
</event>
<event>
 7    0  0.4752811E-002  0.4580676E+03  0.7546771E-02  0.1025343E+00
         21   -1    0    0  502  501  0.00000000000E+00  0.00000000000E+00  0.13836004502E+03  0.13836004502E+03  0.00000000000E+00 0.  1.
         21   -1    0    0  501  502 -0.00000000000E+00 -0.00000000000E+00 -0.37913024980E+03  0.37913024980E+03  0.00000000000E+00 0.  1.
      99926    2    1    2    0    0  0.00000000000E+00 -0.35527136788E-14 -0.24077020478E+03  0.51749029483E+03  0.45806758642E+03 0.  0.
      99925    2    3    3    0    0 -0.48012504030E+02 -0.48531651180E+01 -0.31935767121E+02  0.26932082812E+03  0.26303053336E+03 0.  0.
         25    1    3    3    0    0  0.48012504030E+02  0.48531651180E+01 -0.20883443766E+03  0.24816946671E+03  0.12509000000E+03 0.  0.
         25    1    4    4    0    0 -0.33482808472E+02  0.31251861776E+02 -0.36882137855E+02  0.13822292690E+03  0.12509000000E+03 0.  0.
         25    1    4    4    0    0 -0.14529695558E+02 -0.36105026894E+02  0.49463707343E+01  0.13109790122E+03  0.12509000000E+03 0.  0.
<mgrwt>
<rscale>  2 0.45806759E+03</rscale>
<asrwt>0</asrwt>
<pdfrwt beam="1">  1       21 0.20347066E-01 0.45806759E+03</pdfrwt>
<pdfrwt beam="2">  1       21 0.55754447E-01 0.45806759E+03</pdfrwt>
<totfact> 0.62522800E+04</totfact>
</mgrwt>
</event>
<event>
 7    0  0.4752811E-002  0.4539920E+03  0.7546771E-02  0.1026538E+00
         21   -1    0    0  502  501  0.00000000000E+00  0.00000000000E+00  0.22298837728E+04  0.22298837728E+04  0.00000000000E+00 0.  1.
         21   -1    0    0  501  502 -0.00000000000E+00 -0.00000000000E+00 -0.23107561585E+02  0.23107561585E+02  0.00000000000E+00 0.  1.
      99926    2    1    2    0    0  0.00000000000E+00  0.00000000000E+00  0.22067762113E+04  0.22529913344E+04  0.45399196736E+03 0.  0.
      99925    2    3    3    0    0  0.89077107170E+02 -0.59848187930E+02  0.12271108130E+04  0.12595587312E+04  0.26300325702E+03 0.  0.
         25    1    4    4    0    0  0.52430498998E+02 -0.30652800708E+02  0.80168217920E+03  0.81365249091E+03  0.12509000000E+03 0.  0.
         25    1    4    4    0    0  0.36646608172E+02 -0.29195387222E+02  0.42542863384E+03  0.44590624028E+03  0.12509000000E+03 0.  0.
         25    1    3    3    0    0 -0.89077107170E+02  0.59848187930E+02  0.97966539821E+03  0.99343260324E+03  0.12509000000E+03 0.  0.
<mgrwt>
<rscale>  2 0.45399197E+03</rscale>
<asrwt>0</asrwt>
<pdfrwt beam="1">  1       21 0.32792394E+00 0.45399197E+03</pdfrwt>
<pdfrwt beam="2">  1       21 0.33981723E-02 0.45399197E+03</pdfrwt>
<totfact> 0.10080199E+04</totfact>
</mgrwt>
</event>
<event>
 7    0  0.4752811E-002  0.4445632E+03  0.7546771E-02  0.1029356E+00
         21   -1    0    0  502  501  0.00000000000E+00  0.00000000000E+00  0.13513537139E+03  0.13513537139E+03  0.00000000000E+00 0.  1.
         21   -1    0    0  501  502 -0.00000000000E+00 -0.00000000000E+00 -0.36562683852E+03  0.36562683852E+03  0.00000000000E+00 0.  1.
      99926    2    1    2    0    0  0.00000000000E+00  0.00000000000E+00 -0.23049146713E+03  0.50076220991E+03  0.44456324010E+03 0.  0.
      99925    2    3    3    0    0  0.45991668946E+02  0.54636219320E+02 -0.62595176101E+02  0.27954507061E+03  0.26292002655E+03 0.  0.
         25    1    4    4    0    0  0.31562259776E+02  0.25239752734E+02  0.89603926927E+01  0.13176121621E+03  0.12509000000E+03 0.  0.
         25    1    3    3    0    0 -0.45991668946E+02 -0.54636219320E+02 -0.16789629103E+03  0.22121713929E+03  0.12509000000E+03 0.  0.
         25    1    4    4    0    0  0.14429409171E+02  0.29396466586E+02 -0.71555568794E+02  0.14778385440E+03  0.12509000000E+03 0.  0.
<mgrwt>
<rscale>  2 0.44456324E+03</rscale>
<asrwt>0</asrwt>
<pdfrwt beam="1">  1       21 0.19872849E-01 0.44456324E+03</pdfrwt>
<pdfrwt beam="2">  1       21 0.53768652E-01 0.44456324E+03</pdfrwt>
<totfact> 0.70911609E+04</totfact>
</mgrwt>
</event>
<event>
 7    0  0.4752811E-002  0.4631278E+03  0.7546771E-02  0.1023878E+00
         21   -1    0    0  502  501  0.00000000000E+00  0.00000000000E+00  0.97907542711E+03  0.97907542711E+03  0.00000000000E+00 0.  1.
         21   -1    0    0  501  502 -0.00000000000E+00 -0.00000000000E+00 -0.54767830472E+02  0.54767830472E+02  0.00000000000E+00 0.  1.
      99926    2    1    2    0    0 -0.17763568394E-14  0.00000000000E+00  0.92430759664E+03  0.10338432576E+04  0.46312778803E+03 0.  0.
      99925    2    3    3    0    0  0.13924220593E+02 -0.37374416957E+02  0.83165035313E+03  0.87314601481E+03  0.26296562959E+03 0.  0.
         25    1    4    4    0    0  0.37357376279E+02 -0.10268151250E+02  0.50051641053E+03  0.51736369587E+03  0.12509000000E+03 0.  0.
         25    1    4    4    0    0 -0.23433155687E+02 -0.27106265707E+02  0.33113394260E+03  0.35578231894E+03  0.12509000000E+03 0.  0.
         25    1    3    3    0    0 -0.13924220593E+02  0.37374416957E+02  0.92657243508E+02  0.16069724278E+03  0.12509000000E+03 0.  0.
<mgrwt>
<rscale>  2 0.46312779E+03</rscale>
<asrwt>0</asrwt>
<pdfrwt beam="1">  1       21 0.14398167E+00 0.46312779E+03</pdfrwt>
<pdfrwt beam="2">  1       21 0.80540933E-02 0.46312779E+03</pdfrwt>
<totfact> 0.35565076E+04</totfact>
</mgrwt>
</event>
<event>
 7    0  0.4752811E-002  0.4547933E+03  0.7546771E-02  0.1026302E+00
         21   -1    0    0  502  501  0.00000000000E+00  0.00000000000E+00  0.14037290447E+03  0.14037290447E+03  0.00000000000E+00 0.  1.
         21   -1    0    0  501  502 -0.00000000000E+00 -0.00000000000E+00 -0.36837051772E+03  0.36837051772E+03  0.00000000000E+00 0.  1.
      99926    2    1    2    0    0  0.00000000000E+00  0.00000000000E+00 -0.22799761324E+03  0.50874342219E+03  0.45479331347E+03 0.  0.
      99925    2    3    3    0    0  0.67816077915E+02 -0.85667855158E+02 -0.17559575873E+03  0.33458411498E+03  0.26301075583E+03 0.  0.
         25    1    4    4    0    0  0.65631278820E+02 -0.51224187579E+02 -0.12444159220E+03  0.19510151235E+03  0.12509000000E+03 0.  0.
         25    1    4    4    0    0  0.21847990949E+01 -0.34443667580E+02 -0.51154166529E+02  0.13948260263E+03  0.12509000000E+03 0.  0.
         25    1    3    3    0    0 -0.67816077915E+02  0.85667855158E+02 -0.52401854515E+02  0.17415930721E+03  0.12509000000E+03 0.  0.
<mgrwt>
<rscale>  2 0.45479331E+03</rscale>
<asrwt>0</asrwt>
<pdfrwt beam="1">  1       21 0.20643075E-01 0.45479331E+03</pdfrwt>
<pdfrwt beam="2">  1       21 0.54172134E-01 0.45479331E+03</pdfrwt>
<totfact> 0.64766848E+04</totfact>
</mgrwt>
</event>
<event>
 7    0  0.4752811E-002  0.4577481E+03  0.7546771E-02  0.1025436E+00
         21   -1    0    0  502  501  0.00000000000E+00  0.00000000000E+00  0.24561973258E+03  0.24561973258E+03  0.00000000000E+00 0. -1.
         21   -1    0    0  501  502 -0.00000000000E+00 -0.00000000000E+00 -0.21327001092E+03  0.21327001092E+03  0.00000000000E+00 0. -1.
      99926    2    1    2    0    0  0.00000000000E+00  0.00000000000E+00  0.32349721667E+02  0.45888974350E+03  0.45774806630E+03 0.  0.
      99925    2    3    3    0    0  0.99512632673E+02  0.32582772434E+02  0.68373362227E+02  0.29182804262E+03  0.26367458861E+03 0.  0.
         25    1    4    4    0    0  0.34283854714E+02 -0.22136330868E+02  0.42812910243E+02  0.13836854130E+03  0.12509000000E+03 0.  0.
         25    1    3    3    0    0 -0.99512632673E+02 -0.32582772434E+02 -0.36023640560E+02  0.16706170088E+03  0.12509000000E+03 0.  0.
         25    1    4    4    0    0  0.65228777959E+02  0.54719103301E+02  0.25560451983E+02  0.15345950132E+03  0.12509000000E+03 0.  0.
<mgrwt>
<rscale>  2 0.45774807E+03</rscale>
<asrwt>0</asrwt>
<pdfrwt beam="1">  1       21 0.36120549E-01 0.45774807E+03</pdfrwt>
<pdfrwt beam="2">  1       21 0.31363237E-01 0.45774807E+03</pdfrwt>
<totfact> 0.66785400E+04</totfact>
</mgrwt>
</event>
<event>
 7    0  0.4752811E-002  0.4269088E+03  0.7546771E-02  0.1034841E+00
         21   -1    0    0  502  501  0.00000000000E+00  0.00000000000E+00  0.33602893142E+03  0.33602893142E+03  0.00000000000E+00 0.  1.
         21   -1    0    0  501  502 -0.00000000000E+00 -0.00000000000E+00 -0.13559183390E+03  0.13559183390E+03  0.00000000000E+00 0.  1.
      99926    2    1    2    0    0  0.00000000000E+00  0.00000000000E+00  0.20043709752E+03  0.47162076532E+03  0.42690879145E+03 0.  0.
      99925    2    3    3    0    0  0.48115705605E+02  0.64549985293E+02  0.15664683835E+03  0.31655008264E+03  0.26302832762E+03 0.  0.
         25    1    4    4    0    0  0.16703658738E+01  0.31389750988E+02  0.11522817411E+03  0.17295417543E+03  0.12509000000E+03 0.  0.
         25    1    4    4    0    0  0.46445339731E+02  0.33160234305E+02  0.41418664235E+02  0.14359590721E+03  0.12509000000E+03 0.  0.
         25    1    3    3    0    0 -0.48115705605E+02 -0.64549985293E+02  0.43790259170E+02  0.15507068268E+03  0.12509000000E+03 0.  0.
<mgrwt>
<rscale>  2 0.42690879E+03</rscale>
<asrwt>0</asrwt>
<pdfrwt beam="1">  1       21 0.49416019E-01 0.42690879E+03</pdfrwt>
<pdfrwt beam="2">  1       21 0.19939976E-01 0.42690879E+03</pdfrwt>
<totfact> 0.84680511E+04</totfact>
</mgrwt>
</event>
<event>
 6    0  0.4752811E-002  0.4550604E+03  0.7546771E-02  0.1026224E+00
         21   -1    0    0  502  501  0.00000000000E+00  0.00000000000E+00  0.61053970548E+02  0.61053970548E+02  0.00000000000E+00 0. -1.
         21   -1    0    0  501  502 -0.00000000000E+00 -0.00000000000E+00 -0.84793803610E+03  0.84793803610E+03  0.00000000000E+00 0. -1.
      99926    2    1    2    0    0  0.00000000000E+00 -0.35527136788E-14 -0.78688406555E+03  0.90899200665E+03  0.45506036471E+03 0.  0.
         25    1    3    3    0    0  0.42852701289E+02  0.29291734384E+02 -0.48323657828E+03  0.50185601361E+03  0.12509000000E+03 0.  0.
         25    1    3    3    0    0 -0.10068132440E+02 -0.29491628902E+02 -0.89370366267E+02  0.15686202196E+03  0.12509000000E+03 0.  0.
         25    1    3    3    0    0 -0.32784568848E+02  0.19989451818E+00 -0.21427712101E+03  0.25027397108E+03  0.12509000000E+03 0.  0.
<mgrwt>
<rscale>  2 0.45506036E+03</rscale>
<asrwt>0</asrwt>
<pdfrwt beam="1">  1       21 0.89785255E-02 0.45506036E+03</pdfrwt>
<pdfrwt beam="2">  1       21 0.12469676E+00 0.45506036E+03</pdfrwt>
<totfact> 0.42826992E+04</totfact>
</mgrwt>
</event>
<event>
 7    0  0.4752811E-002  0.4359278E+03  0.7546771E-02  0.1032004E+00
         21   -1    0    0  502  501  0.00000000000E+00  0.00000000000E+00  0.29753489552E+03  0.29753489552E+03  0.00000000000E+00 0. -1.
         21   -1    0    0  501  502 -0.00000000000E+00 -0.00000000000E+00 -0.15967289675E+03  0.15967289675E+03  0.00000000000E+00 0. -1.
      99926    2    1    2    0    0  0.00000000000E+00  0.00000000000E+00  0.13786199877E+03  0.45720779227E+03  0.43592778600E+03 0.  0.
      99925    2    3    3    0    0  0.18393500235E+02  0.29782436298E+02  0.18000234771E+03  0.32064780006E+03  0.26303773900E+03 0.  0.
         25    1    4    4    0    0 -0.30344656287E+02  0.10705162373E+02  0.77085258380E+02  0.15041623525E+03  0.12509000000E+03 0.  0.
         25    1    3    3    0    0 -0.18393500235E+02 -0.29782436298E+02 -0.42140348942E+02  0.13655999221E+03  0.12509000000E+03 0.  0.
         25    1    4    4    0    0  0.48738156522E+02  0.19077273925E+02  0.10291708933E+03  0.17023156481E+03  0.12509000000E+03 0.  0.
<mgrwt>
<rscale>  2 0.43592779E+03</rscale>
<asrwt>0</asrwt>
<pdfrwt beam="1">  1       21 0.43755132E-01 0.43592779E+03</pdfrwt>
<pdfrwt beam="2">  1       21 0.23481308E-01 0.43592779E+03</pdfrwt>
<totfact> 0.79808525E+04</totfact>
</mgrwt>
</event>
<event>
 7    0  0.4752811E-002  0.4566970E+03  0.7546771E-02  0.1025744E+00
         21   -1    0    0  502  501  0.00000000000E+00  0.00000000000E+00  0.10653095734E+03  0.10653095734E+03  0.00000000000E+00 0. -1.
         21   -1    0    0  501  502 -0.00000000000E+00 -0.00000000000E+00 -0.48946381065E+03  0.48946381065E+03  0.00000000000E+00 0. -1.
      99926    2    1    2    0    0  0.00000000000E+00  0.00000000000E+00 -0.38293285331E+03  0.59599476799E+03  0.45669704765E+03 0.  0.
      99925    2    3    3    0    0 -0.63068073786E+01  0.37775617679E+02 -0.38176759299E+03  0.46516801598E+03  0.26299812722E+03 0.  0.
         25    1    4    4    0    0  0.30168760725E+02  0.28078060180E+02 -0.15449858956E+03  0.20301688074E+03  0.12509000000E+03 0.  0.
         25    1    4    4    0    0 -0.36475568104E+02  0.96975574988E+01 -0.22726900343E+03  0.26215113524E+03  0.12509000000E+03 0.  0.
         25    1    3    3    0    0  0.63068073786E+01 -0.37775617679E+02 -0.11652603206E+01  0.13082675201E+03  0.12509000000E+03 0.  0.
<mgrwt>
<rscale>  2 0.45669705E+03</rscale>
<asrwt>0</asrwt>
<pdfrwt beam="1">  1       21 0.15666317E-01 0.45669705E+03</pdfrwt>
<pdfrwt beam="2">  1       21 0.71979972E-01 0.45669705E+03</pdfrwt>
<totfact> 0.58141837E+04</totfact>
</mgrwt>
</event>
<event>
 7    0  0.4752811E-002  0.4480827E+03  0.7546771E-02  0.1028295E+00
         21   -1    0    0  502  501  0.00000000000E+00  0.00000000000E+00  0.49940220726E+03  0.49940220726E+03  0.00000000000E+00 0. -1.
         21   -1    0    0  501  502 -0.00000000000E+00 -0.00000000000E+00 -0.10050920425E+03  0.10050920425E+03  0.00000000000E+00 0. -1.
      99926    2    1    2    0    0 -0.71054273576E-14  0.00000000000E+00  0.39889300301E+03  0.59991141152E+03  0.44808266405E+03 0.  0.
      99925    2    3    3    0    0  0.49443587511E+02  0.94409101722E+02  0.26023401738E+03  0.38489613478E+03  0.26280324186E+03 0.  0.
         25    1    3    3    0    0 -0.49443587511E+02 -0.94409101722E+02  0.13865898562E+03  0.21501527673E+03  0.12509000000E+03 0.  0.
         25    1    4    4    0    0  0.75882003550E+01  0.30842054898E+02  0.16797535391E+03  0.21183021682E+03  0.12509000000E+03 0.  0.
         25    1    4    4    0    0  0.41855387156E+02  0.63567046824E+02  0.92258663469E+02  0.17306591796E+03  0.12509000000E+03 0.  0.
<mgrwt>
<rscale>  2 0.44808266E+03</rscale>
<asrwt>0</asrwt>
<pdfrwt beam="1">  1       21 0.73441500E-01 0.44808266E+03</pdfrwt>
<pdfrwt beam="2">  1       21 0.14780765E-01 0.44808266E+03</pdfrwt>
<totfact> 0.62003613E+04</totfact>
</mgrwt>
</event>
<event>
 7    0  0.4752811E-002  0.4593818E+03  0.7546771E-02  0.1024961E+00
         21   -1    0    0  502  501  0.00000000000E+00  0.00000000000E+00  0.65239106407E+02  0.65239106407E+02  0.00000000000E+00 0.  1.
         21   -1    0    0  501  502 -0.00000000000E+00 -0.00000000000E+00 -0.80868519493E+03  0.80868519493E+03  0.00000000000E+00 0.  1.
      99926    2    1    2    0    0  0.17763568394E-14  0.14210854715E-13 -0.74344608852E+03  0.87392430134E+03  0.45938175620E+03 0.  0.
      99925    2    3    3    0    0  0.13162888917E+02  0.11639942807E+03 -0.46323318601E+03  0.54545989332E+03  0.26309584204E+03 0.  0.
         25    1    4    4    0    0  0.22904942068E+02  0.51610723795E+02 -0.15891397403E+03  0.20997490903E+03  0.12509000000E+03 0.  0.
         25    1    3    3    0    0 -0.13162888917E+02 -0.11639942807E+03 -0.28021290252E+03  0.32846440802E+03  0.12509000000E+03 0.  0.
         25    1    4    4    0    0 -0.97420531513E+01  0.64788704274E+02 -0.30431921198E+03  0.33548498429E+03  0.12509000000E+03 0.  0.
<mgrwt>
<rscale>  2 0.45938176E+03</rscale>
<asrwt>0</asrwt>
<pdfrwt beam="1">  1       21 0.95939859E-02 0.45938176E+03</pdfrwt>
<pdfrwt beam="2">  1       21 0.11892430E+00 0.45938176E+03</pdfrwt>
<totfact> 0.42889273E+04</totfact>
</mgrwt>
</event>
<event>
 7    0  0.4752811E-002  0.4536865E+03  0.7546771E-02  0.1026628E+00
         21   -1    0    0  502  501  0.00000000000E+00  0.00000000000E+00  0.30310507481E+03  0.30310507481E+03  0.00000000000E+00 0.  1.
         21   -1    0    0  501  502 -0.00000000000E+00 -0.00000000000E+00 -0.16976903153E+03  0.16976903153E+03  0.00000000000E+00 0.  1.
      99926    2    1    2    0    0  0.00000000000E+00  0.00000000000E+00  0.13333604328E+03  0.47287410634E+03  0.45368647765E+03 0.  0.
      99925    2    3    3    0    0  0.10083092103E+03 -0.43666112262E+02  0.10637336035E+03  0.30420846559E+03  0.26297128123E+03 0.  0.
         25    1    4    4    0    0  0.64389185482E+02  0.15248426568E+02  0.43904279223E+02  0.14816739032E+03  0.12509000000E+03 0.  0.
         25    1    4    4    0    0  0.36441735553E+02 -0.58914538831E+02  0.62469081125E+02  0.15604107527E+03  0.12509000000E+03 0.  0.
         25    1    3    3    0    0 -0.10083092103E+03  0.43666112262E+02  0.26962682936E+02  0.16866564074E+03  0.12509000000E+03 0.  0.
<mgrwt>
<rscale>  2 0.45368648E+03</rscale>
<asrwt>0</asrwt>
<pdfrwt beam="1">  1       21 0.44574276E-01 0.45368648E+03</pdfrwt>
<pdfrwt beam="2">  1       21 0.24966034E-01 0.45368648E+03</pdfrwt>
<totfact> 0.67927875E+04</totfact>
</mgrwt>
</event>
<event>
 7    0  0.4752811E-002  0.4514443E+03  0.7546771E-02  0.1027292E+00
         21   -1    0    0  502  501  0.00000000000E+00  0.00000000000E+00  0.23613569211E+03  0.23613569211E+03  0.00000000000E+00 0.  1.
         21   -1    0    0  501  502 -0.00000000000E+00 -0.00000000000E+00 -0.21576782120E+03  0.21576782120E+03  0.00000000000E+00 0.  1.
      99926    2    1    2    0    0  0.00000000000E+00  0.00000000000E+00  0.20367870908E+02  0.45190351331E+03  0.45144427694E+03 0.  0.
      99925    2    3    3    0    0  0.10353154834E+03  0.15269864065E+02 -0.20184475577E+02  0.28384414536E+03  0.26307439166E+03 0.  0.
         25    1    4    4    0    0  0.55996454390E+02  0.45753649309E+02 -0.24405075166E+02  0.14653366549E+03  0.12509000000E+03 0.  0.
         25    1    3    3    0    0 -0.10353154834E+03 -0.15269864065E+02  0.40552346485E+02  0.16805936795E+03  0.12509000000E+03 0.  0.
         25    1    4    4    0    0  0.47535093954E+02 -0.30483785243E+02  0.42205995895E+01  0.13731047987E+03  0.12509000000E+03 0.  0.
<mgrwt>
<rscale>  2 0.45144428E+03</rscale>
<asrwt>0</asrwt>
<pdfrwt beam="1">  1       21 0.34725837E-01 0.45144428E+03</pdfrwt>
<pdfrwt beam="2">  1       21 0.31730562E-01 0.45144428E+03</pdfrwt>
<totfact> 0.70759548E+04</totfact>
</mgrwt>
</event>
<event>
 7    0  0.4752811E-002  0.4573983E+03  0.7546771E-02  0.1025538E+00
         21   -1    0    0  502  501  0.00000000000E+00  0.00000000000E+00  0.64957398561E+02  0.64957398561E+02  0.00000000000E+00 0.  1.
         21   -1    0    0  501  502 -0.00000000000E+00 -0.00000000000E+00 -0.80519387299E+03  0.80519387299E+03  0.00000000000E+00 0.  1.
      99926    2    1    2    0    0  0.00000000000E+00  0.00000000000E+00 -0.74023647443E+03  0.87015127155E+03  0.45739829176E+03 0.  0.
      99925    2    3    3    0    0 -0.63622622696E+02 -0.67023738639E+02 -0.59648766364E+03  0.65837013839E+03  0.26289482039E+03 0.  0.
         25    1    4    4    0    0 -0.63029758444E+02 -0.42820226447E+02 -0.25771611362E+03  0.29643114810E+03  0.12509000000E+03 0.  0.
         25    1    4    4    0    0 -0.59286425267E+00 -0.24203512191E+02 -0.33877155002E+03  0.36193899029E+03  0.12509000000E+03 0.  0.
         25    1    3    3    0    0  0.63622622696E+02  0.67023738639E+02 -0.14374881078E+03  0.21178113316E+03  0.12509000000E+03 0.  0.
<mgrwt>
<rscale>  2 0.45739829E+03</rscale>
<asrwt>0</asrwt>
<pdfrwt beam="1">  1       21 0.95525590E-02 0.45739829E+03</pdfrwt>
<pdfrwt beam="2">  1       21 0.11841086E+00 0.45739829E+03</pdfrwt>
<totfact> 0.43722225E+04</totfact>
</mgrwt>
</event>
<event>
 7    0  0.4752811E-002  0.4575001E+03  0.7546771E-02  0.1025509E+00
         21   -1    0    0  502  501  0.00000000000E+00  0.00000000000E+00  0.15354848972E+03  0.15354848972E+03  0.00000000000E+00 0.  1.
         21   -1    0    0  501  502 -0.00000000000E+00 -0.00000000000E+00 -0.34078214769E+03  0.34078214769E+03  0.00000000000E+00 0.  1.
      99926    2    1    2    0    0  0.00000000000E+00  0.00000000000E+00 -0.18723365797E+03  0.49433063741E+03  0.45750009443E+03 0.  0.
      99925    2    3    3    0    0 -0.78893860840E+02 -0.71332245001E+02 -0.69131380191E+02  0.29207291426E+03  0.26308726511E+03 0.  0.
         25    1    4    4    0    0 -0.80000052589E+02 -0.50112127125E+02 -0.43359398818E+02  0.16260005924E+03  0.12509000000E+03 0.  0.
         25    1    3    3    0    0  0.78893860840E+02  0.71332245001E+02 -0.11810227778E+03  0.20225772315E+03  0.12509000000E+03 0.  0.
         25    1    4    4    0    0  0.11061917493E+01 -0.21220117876E+02 -0.25771981373E+02  0.12947285502E+03  0.12509000000E+03 0.  0.
<mgrwt>
<rscale>  2 0.45750009E+03</rscale>
<asrwt>0</asrwt>
<pdfrwt beam="1">  1       21 0.22580660E-01 0.45750009E+03</pdfrwt>
<pdfrwt beam="2">  1       21 0.50115022E-01 0.45750009E+03</pdfrwt>
<totfact> 0.64383449E+04</totfact>
</mgrwt>
</event>
<event>
 7    0  0.4752811E-002  0.4399483E+03  0.7546771E-02  0.1030763E+00
         21   -1    0    0  502  501  0.00000000000E+00  0.00000000000E+00  0.27210965398E+03  0.27210965398E+03  0.00000000000E+00 0.  1.
         21   -1    0    0  501  502 -0.00000000000E+00 -0.00000000000E+00 -0.17782765193E+03  0.17782765193E+03  0.00000000000E+00 0.  1.
      99926    2    1    2    0    0  0.00000000000E+00 -0.14210854715E-13  0.94282002048E+02  0.44993730591E+03  0.43994827348E+03 0.  0.
      99925    2    3    3    0    0 -0.66487574895E+02 -0.72252359853E+02  0.61184862414E+02  0.28750599775E+03  0.26320165317E+03 0.  0.
         25    1    4    4    0    0 -0.49789957567E+02 -0.17606957887E+00  0.17606647373E+02  0.13578134263E+03  0.12509000000E+03 0.  0.
         25    1    3    3    0    0  0.66487574895E+02  0.72252359853E+02  0.33097139635E+02  0.16243130816E+03  0.12509000000E+03 0.  0.
         25    1    4    4    0    0 -0.16697617328E+02 -0.72076290274E+02  0.43578215041E+02  0.15172465512E+03  0.12509000000E+03 0.  0.
<mgrwt>
<rscale>  2 0.43994827E+03</rscale>
<asrwt>0</asrwt>
<pdfrwt beam="1">  1       21 0.40016126E-01 0.43994827E+03</pdfrwt>
<pdfrwt beam="2">  1       21 0.26151125E-01 0.43994827E+03</pdfrwt>
<totfact> 0.77844239E+04</totfact>
</mgrwt>
</event>
<event>
 7    0  0.4752811E-002  0.4540219E+03  0.7546771E-02  0.1026529E+00
         21   -1    0    0  502  501  0.00000000000E+00  0.00000000000E+00  0.26972135428E+02  0.26972135428E+02  0.00000000000E+00 0. -1.
         21   -1    0    0  501  502 -0.00000000000E+00 -0.00000000000E+00 -0.19106376863E+04  0.19106376863E+04  0.00000000000E+00 0. -1.
      99926    2    1    2    0    0  0.00000000000E+00  0.00000000000E+00 -0.18836655508E+04  0.19376098217E+04  0.45402193087E+03 0.  0.
      99925    2    3    3    0    0 -0.10263766831E+03  0.38509930944E+02 -0.12960856932E+04  0.13269420700E+04  0.26252547938E+03 0.  0.
         25    1    4    4    0    0 -0.65162634594E+02 -0.52455383601E+00 -0.51074349572E+03  0.52986118052E+03  0.12509000000E+03 0.  0.
         25    1    3    3    0    0  0.10263766831E+03 -0.38509930944E+02 -0.58757985762E+03  0.61066775167E+03  0.12509000000E+03 0.  0.
         25    1    4    4    0    0 -0.37475033718E+02  0.39034484780E+02 -0.78534219749E+03  0.79708088951E+03  0.12509000000E+03 0.  0.
<mgrwt>
<rscale>  2 0.45402193E+03</rscale>
<asrwt>0</asrwt>
<pdfrwt beam="1">  1       21 0.39664895E-02 0.45402193E+03</pdfrwt>
<pdfrwt beam="2">  1       21 0.28097620E+00 0.45402193E+03</pdfrwt>
<totfact> 0.14867879E+04</totfact>
</mgrwt>
</event>
<event>
 7    0  0.4752811E-002  0.4572757E+03  0.7546771E-02  0.1025574E+00
         21   -1    0    0  502  501  0.00000000000E+00  0.00000000000E+00  0.23152993598E+03  0.23152993598E+03  0.00000000000E+00 0. -1.
         21   -1    0    0  501  502 -0.00000000000E+00 -0.00000000000E+00 -0.22578189762E+03  0.22578189762E+03  0.00000000000E+00 0. -1.
      99926    2    1    2    0    0  0.00000000000E+00  0.00000000000E+00  0.57480383538E+01  0.45731183360E+03  0.45727570809E+03 0.  0.
      99925    2    3    3    0    0  0.73407302594E+01 -0.96184834650E+02 -0.59124856150E+02  0.28654471358E+03  0.26326168641E+03 0.  0.
         25    1    4    4    0    0  0.10047413505E+02 -0.64283700384E+02 -0.69132209442E+02  0.15703539453E+03  0.12509000000E+03 0.  0.
         25    1    3    3    0    0 -0.73407302594E+01  0.96184834650E+02  0.64872894504E+02  0.17076712002E+03  0.12509000000E+03 0.  0.
         25    1    4    4    0    0 -0.27066832453E+01 -0.31901134266E+02  0.10007353291E+02  0.12950931905E+03  0.12509000000E+03 0.  0.
<mgrwt>
<rscale>  2 0.45727571E+03</rscale>
<asrwt>0</asrwt>
<pdfrwt beam="1">  1       21 0.34048520E-01 0.45727571E+03</pdfrwt>
<pdfrwt beam="2">  1       21 0.33203220E-01 0.45727571E+03</pdfrwt>
<totfact> 0.67149172E+04</totfact>
</mgrwt>
</event>
<event>
 7    0  0.4752811E-002  0.4548301E+03  0.7546771E-02  0.1026291E+00
         21   -1    0    0  502  501  0.00000000000E+00  0.00000000000E+00  0.24628887593E+04  0.24628887593E+04  0.00000000000E+00 0.  1.
         21   -1    0    0  501  502 -0.00000000000E+00 -0.00000000000E+00 -0.20998755802E+02  0.20998755802E+02  0.00000000000E+00 0.  1.
      99926    2    1    2    0    0  0.00000000000E+00  0.00000000000E+00  0.24418900035E+04  0.24838875151E+04  0.45483007651E+03 0.  0.
      99925    2    3    3    0    0  0.85194743974E+02  0.70124303776E+02  0.16719457208E+04  0.16960821655E+04  0.26290046838E+03 0.  0.
         25    1    3    3    0    0 -0.85194743974E+02 -0.70124303776E+02  0.76994428266E+03  0.78780534961E+03  0.12509000000E+03 0.  0.
         25    1    4    4    0    0  0.68942640016E+02  0.53553820357E+02  0.74590384951E+03  0.76134168420E+03  0.12509000000E+03 0.  0.
         25    1    4    4    0    0  0.16252103958E+02  0.16570483419E+02  0.92604187132E+03  0.93474048128E+03  0.12509000000E+03 0.  0.
<mgrwt>
<rscale>  2 0.45483008E+03</rscale>
<asrwt>0</asrwt>
<pdfrwt beam="1">  1       21 0.36218932E+00 0.45483008E+03</pdfrwt>
<pdfrwt beam="2">  1       21 0.30880540E-02 0.45483008E+03</pdfrwt>
<totfact> 0.73077213E+03</totfact>
</mgrwt>
</event>
<event>
 7    0  0.4752811E-002  0.4561343E+03  0.7546771E-02  0.1025908E+00
         21   -1    0    0  502  501  0.00000000000E+00  0.00000000000E+00  0.14652221287E+03  0.14652221287E+03  0.00000000000E+00 0.  1.
         21   -1    0    0  501  502 -0.00000000000E+00 -0.00000000000E+00 -0.35499487771E+03  0.35499487771E+03  0.00000000000E+00 0.  1.
      99926    2    1    2    0    0  0.00000000000E+00  0.00000000000E+00 -0.20847266484E+03  0.50151709058E+03  0.45613434442E+03 0.  0.
      99925    2    3    3    0    0 -0.71643763854E+02 -0.72916705050E+02 -0.75142041498E+02  0.29205530888E+03  0.26305950328E+03 0.  0.
         25    1    4    4    0    0 -0.44269440937E+02 -0.40309731049E+02 -0.79491798473E+02  0.15984715181E+03  0.12509000000E+03 0.  0.
         25    1    3    3    0    0  0.71643763854E+02  0.72916705050E+02 -0.13333062334E+03  0.20946178170E+03  0.12509000000E+03 0.  0.
         25    1    4    4    0    0 -0.27374322917E+02 -0.32606974001E+02  0.43497569757E+01  0.13220815706E+03  0.12509000000E+03 0.  0.
<mgrwt>
<rscale>  2 0.45613434E+03</rscale>
<asrwt>0</asrwt>
<pdfrwt beam="1">  1       21 0.21547384E-01 0.45613434E+03</pdfrwt>
<pdfrwt beam="2">  1       21 0.52205129E-01 0.45613434E+03</pdfrwt>
<totfact> 0.64580743E+04</totfact>
</mgrwt>
</event>
<event>
 7    0  0.4752811E-002  0.4570217E+03  0.7546771E-02  0.1025649E+00
         21   -1    0    0  502  501  0.00000000000E+00  0.00000000000E+00  0.10842253365E+03  0.10842253365E+03  0.00000000000E+00 0. -1.
         21   -1    0    0  501  502 -0.00000000000E+00 -0.00000000000E+00 -0.48160843695E+03  0.48160843695E+03  0.00000000000E+00 0. -1.
      99926    2    1    2    0    0  0.00000000000E+00  0.00000000000E+00 -0.37318590330E+03  0.59003097060E+03  0.45702169297E+03 0.  0.
      99925    2    3    3    0    0  0.43766296712E+02 -0.81751012178E+02 -0.32232167209E+03  0.42622195120E+03  0.26301173865E+03 0.  0.
         25    1    4    4    0    0  0.29224948684E+02 -0.37987106154E+01 -0.17693110602E+03  0.21867933648E+03  0.12509000000E+03 0.  0.
         25    1    3    3    0    0 -0.43766296712E+02  0.81751012178E+02 -0.50864231209E+02  0.16380901940E+03  0.12509000000E+03 0.  0.
         25    1    4    4    0    0  0.14541348028E+02 -0.77952301563E+02 -0.14539056607E+03  0.20754261471E+03  0.12509000000E+03 0.  0.
<mgrwt>
<rscale>  2 0.45702169E+03</rscale>
<asrwt>0</asrwt>
<pdfrwt beam="1">  1       21 0.15944490E-01 0.45702169E+03</pdfrwt>
<pdfrwt beam="2">  1       21 0.70824770E-01 0.45702169E+03</pdfrwt>
<totfact> 0.58358034E+04</totfact>
</mgrwt>
</event>
<event>
 7    0  0.4752811E-002  0.4592425E+03  0.7546771E-02  0.1025001E+00
         21   -1    0    0  502  501  0.00000000000E+00  0.00000000000E+00  0.77781893580E+02  0.77781893580E+02  0.00000000000E+00 0. -1.
         21   -1    0    0  501  502 -0.00000000000E+00 -0.00000000000E+00 -0.67786879974E+03  0.67786879974E+03  0.00000000000E+00 0. -1.
      99926    2    1    2    0    0  0.00000000000E+00 -0.71054273576E-14 -0.60008690616E+03  0.75565069332E+03  0.45924250170E+03 0.  0.
      99925    2    3    3    0    0 -0.10168895193E+03 -0.54134279156E+02 -0.41045645993E+03  0.50093835094E+03  0.26304669323E+03 0.  0.
         25    1    3    3    0    0  0.10168895193E+03  0.54134279156E+02 -0.18963044623E+03  0.25471234238E+03  0.12509000000E+03 0.  0.
         25    1    4    4    0    0 -0.65545612935E+02  0.69001030304E+01 -0.23283227587E+03  0.27240083624E+03  0.12509000000E+03 0.  0.
         25    1    4    4    0    0 -0.36143338993E+02 -0.61034382186E+02 -0.17762418406E+03  0.22853751470E+03  0.12509000000E+03 0.  0.
<mgrwt>
<rscale>  2 0.45924250E+03</rscale>
<asrwt>0</asrwt>
<pdfrwt beam="1">  1       21 0.11438515E-01 0.45924250E+03</pdfrwt>
<pdfrwt beam="2">  1       21 0.99686581E-01 0.45924250E+03</pdfrwt>
<totfact> 0.48351232E+04</totfact>
</mgrwt>
</event>
<event>
 7    0  0.4752811E-002  0.4522483E+03  0.7546771E-02  0.1027054E+00
         21   -1    0    0  502  501  0.00000000000E+00  0.00000000000E+00  0.27296291462E+03  0.27296291462E+03  0.00000000000E+00 0.  1.
         21   -1    0    0  501  502 -0.00000000000E+00 -0.00000000000E+00 -0.18732261413E+03  0.18732261413E+03  0.00000000000E+00 0.  1.
      99926    2    1    2    0    0  0.00000000000E+00  0.00000000000E+00  0.85640300491E+02  0.46028552875E+03  0.45224828016E+03 0.  0.
      99925    2    3    3    0    0 -0.81192974664E+02  0.11633530007E+02  0.12944342230E+03  0.30442065222E+03  0.26303744176E+03 0.  0.
         25    1    3    3    0    0  0.81192974664E+02 -0.11633530007E+02 -0.43803121809E+02  0.15586487653E+03  0.12509000000E+03 0.  0.
         25    1    4    4    0    0 -0.22318617094E+02 -0.92231278453E+01  0.24824355639E+02  0.12979577608E+03  0.12509000000E+03 0.  0.
         25    1    4    4    0    0 -0.58874357571E+02  0.20856657853E+02  0.10461906666E+03  0.17462487613E+03  0.12509000000E+03 0.  0.
<mgrwt>
<rscale>  2 0.45224828E+03</rscale>
<asrwt>0</asrwt>
<pdfrwt beam="1">  1       21 0.40141605E-01 0.45224828E+03</pdfrwt>
<pdfrwt beam="2">  1       21 0.27547443E-01 0.45224828E+03</pdfrwt>
<totfact> 0.69673190E+04</totfact>
</mgrwt>
</event>
<event>
 7    0  0.4752811E-002  0.4462376E+03  0.7546771E-02  0.1028850E+00
         21   -1    0    0  502  501  0.00000000000E+00  0.00000000000E+00  0.19464313889E+03  0.19464313889E+03  0.00000000000E+00 0.  1.
         21   -1    0    0  501  502 -0.00000000000E+00 -0.00000000000E+00 -0.25576035713E+03  0.25576035713E+03  0.00000000000E+00 0.  1.
      99926    2    1    2    0    0  0.17763568394E-14  0.00000000000E+00 -0.61117218239E+02  0.45040349601E+03  0.44623759911E+03 0.  0.
      99925    2    3    3    0    0 -0.15027759712E+02  0.81399544568E+02  0.25992167888E+02  0.27694666372E+03  0.26300597395E+03 0.  0.
         25    1    4    4    0    0 -0.29836399863E+02  0.35928473870E+02 -0.20704307720E+02  0.13511936371E+03  0.12509000000E+03 0.  0.
         25    1    3    3    0    0  0.15027759712E+02 -0.81399544568E+02 -0.87109386127E+02  0.17345683229E+03  0.12509000000E+03 0.  0.
         25    1    4    4    0    0  0.14808640151E+02  0.45471070698E+02  0.46696475609E+02  0.14182730001E+03  0.12509000000E+03 0.  0.
<mgrwt>
<rscale>  2 0.44623760E+03</rscale>
<asrwt>0</asrwt>
<pdfrwt beam="1">  1       21 0.28623991E-01 0.44623760E+03</pdfrwt>
<pdfrwt beam="2">  1       21 0.37611817E-01 0.44623760E+03</pdfrwt>
<totfact> 0.73917403E+04</totfact>
</mgrwt>
</event>
<event>
 7    0  0.4752811E-002  0.4750506E+03  0.7546771E-02  0.1020504E+00
         21   -1    0    0  502  501  0.00000000000E+00  0.00000000000E+00  0.22477516102E+03  0.22477516102E+03  0.00000000000E+00 0. -1.
         21   -1    0    0  501  502 -0.00000000000E+00 -0.00000000000E+00 -0.25099867989E+03  0.25099867989E+03  0.00000000000E+00 0. -1.
      99926    2    1    2    0    0  0.00000000000E+00  0.00000000000E+00 -0.26223518871E+02  0.47577384091E+03  0.47505060230E+03 0.  0.
      99925    2    3    3    0    0  0.11563257871E+03  0.49934914318E+02 -0.52106529904E+02  0.29638089989E+03  0.26317704770E+03 0.  0.
         25    1    4    4    0    0  0.66221890474E+02  0.29285709589E+01  0.78975545202E+01  0.14178785129E+03  0.12509000000E+03 0.  0.
         25    1    4    4    0    0  0.49410688235E+02  0.47006343359E+02 -0.60004084424E+02  0.15459304860E+03  0.12509000000E+03 0.  0.
         25    1    3    3    0    0 -0.11563257871E+03 -0.49934914318E+02  0.25883011033E+02  0.17939294102E+03  0.12509000000E+03 0.  0.
<mgrwt>
<rscale>  2 0.47505060E+03</rscale>
<asrwt>0</asrwt>
<pdfrwt beam="1">  1       21 0.33055171E-01 0.47505060E+03</pdfrwt>
<pdfrwt beam="2">  1       21 0.36911570E-01 0.47505060E+03</pdfrwt>
<totfact> 0.57316775E+04</totfact>
</mgrwt>
</event>
<event>
 7    0  0.4752811E-002  0.4518090E+03  0.7546771E-02  0.1027184E+00
         21   -1    0    0  502  501  0.00000000000E+00  0.00000000000E+00  0.12183332752E+03  0.12183332752E+03  0.00000000000E+00 0.  1.
         21   -1    0    0  501  502 -0.00000000000E+00 -0.00000000000E+00 -0.41887421241E+03  0.41887421241E+03  0.00000000000E+00 0.  1.
      99926    2    1    2    0    0  0.83266726847E-15  0.00000000000E+00 -0.29704088488E+03  0.54070753993E+03  0.45180898225E+03 0.  0.
      99925    2    3    3    0    0 -0.24984727686E+00 -0.99539995430E+02 -0.13391791340E+03  0.31231120668E+03  0.26400001738E+03 0.  0.
         25    1    4    4    0    0 -0.52112644617E+01 -0.92933509153E+02 -0.62085161709E+02  0.16782690430E+03  0.12509000000E+03 0.  0.
         25    1    3    3    0    0  0.24984727686E+00  0.99539995430E+02 -0.16312297149E+03  0.22839633325E+03  0.12509000000E+03 0.  0.
         25    1    4    4    0    0  0.49614171849E+01 -0.66064862775E+01 -0.71832751690E+02  0.14448430239E+03  0.12509000000E+03 0.  0.
<mgrwt>
<rscale>  2 0.45180898E+03</rscale>
<asrwt>0</asrwt>
<pdfrwt beam="1">  1       21 0.17916666E-01 0.45180898E+03</pdfrwt>
<pdfrwt beam="2">  1       21 0.61599149E-01 0.45180898E+03</pdfrwt>
<totfact> 0.64087907E+04</totfact>
</mgrwt>
</event>
<event>
 7    0  0.4752811E-002  0.4630217E+03  0.7546771E-02  0.1023908E+00
         21   -1    0    0  502  501  0.00000000000E+00  0.00000000000E+00  0.17985592667E+03  0.17985592667E+03  0.00000000000E+00 0.  1.
         21   -1    0    0  501  502 -0.00000000000E+00 -0.00000000000E+00 -0.29800117362E+03  0.29800117362E+03  0.00000000000E+00 0.  1.
      99926    2    1    2    0    0  0.00000000000E+00  0.00000000000E+00 -0.11814524695E+03  0.47785710029E+03  0.46302171539E+03 0.  0.
      99925    2    3    3    0    0  0.65139848258E+02  0.42004882589E+02 -0.16909848706E+03  0.32212864827E+03  0.26299231494E+03 0.  0.
         25    1    3    3    0    0 -0.65139848258E+02 -0.42004882589E+02  0.50953240103E+02  0.15572845202E+03  0.12509000000E+03 0.  0.
         25    1    4    4    0    0  0.72691864076E+02  0.12862006194E+02 -0.96741612464E+02  0.17451643472E+03  0.12509000000E+03 0.  0.
         25    1    4    4    0    0 -0.75520158183E+01  0.29142876394E+02 -0.72356874593E+02  0.14761221355E+03  0.12509000000E+03 0.  0.
<mgrwt>
<rscale>  2 0.46302172E+03</rscale>
<asrwt>0</asrwt>
<pdfrwt beam="1">  1       21 0.26449401E-01 0.46302172E+03</pdfrwt>
<pdfrwt beam="2">  1       21 0.43823701E-01 0.46302172E+03</pdfrwt>
<totfact> 0.62765199E+04</totfact>
</mgrwt>
</event>
<event>
 7    0  0.4752811E-002  0.4587192E+03  0.7546771E-02  0.1025153E+00
         21   -1    0    0  502  501  0.00000000000E+00  0.00000000000E+00  0.42374905777E+03  0.42374905777E+03  0.00000000000E+00 0.  1.
         21   -1    0    0  501  502 -0.00000000000E+00 -0.00000000000E+00 -0.12414383117E+03  0.12414383117E+03  0.00000000000E+00 0.  1.
      99926    2    1    2    0    0 -0.71054273576E-14 -0.14210854715E-13  0.29960522660E+03  0.54789288893E+03  0.45871922342E+03 0.  0.
      99925    2    3    3    0    0 -0.33290660325E+02 -0.74698383100E+02  0.28757422320E+03  0.39795833773E+03  0.26264765031E+03 0.  0.
         25    1    4    4    0    0 -0.25145816626E+02 -0.78090094857E+02  0.15129873144E+03  0.21276557344E+03  0.12509000000E+03 0.  0.
         25    1    3    3    0    0  0.33290660325E+02  0.74698383100E+02  0.12031003398E+02  0.14993455121E+03  0.12509000000E+03 0.  0.
         25    1    4    4    0    0 -0.81448436981E+01  0.33917117569E+01  0.13627549177E+03  0.18519276429E+03  0.12509000000E+03 0.  0.
<mgrwt>
<rscale>  2 0.45871922E+03</rscale>
<asrwt>0</asrwt>
<pdfrwt beam="1">  1       21 0.62316037E-01 0.45871922E+03</pdfrwt>
<pdfrwt beam="2">  1       21 0.18256446E-01 0.45871922E+03</pdfrwt>
<totfact> 0.60214320E+04</totfact>
</mgrwt>
</event>
<event>
 7    0  0.4752811E-002  0.4400911E+03  0.7546771E-02  0.1030719E+00
         21   -1    0    0  502  501  0.00000000000E+00  0.00000000000E+00  0.80493310583E+03  0.80493310583E+03  0.00000000000E+00 0.  1.
         21   -1    0    0  501  502 -0.00000000000E+00 -0.00000000000E+00 -0.60154116730E+02  0.60154116730E+02  0.00000000000E+00 0.  1.
      99926    2    1    2    0    0  0.00000000000E+00 -0.14210854715E-13  0.74477898910E+03  0.86508722256E+03  0.44009108152E+03 0.  0.
      99925    2    3    3    0    0  0.63088256980E+02  0.68457896227E+02  0.41221666083E+03  0.49778377579E+03  0.26305797887E+03 0.  0.
         25    1    4    4    0    0  0.42363067986E+02  0.57233964557E+02  0.27645304807E+03  0.31167956640E+03  0.12509000000E+03 0.  0.
         25    1    4    4    0    0  0.20725188994E+02  0.11223931670E+02  0.13576361276E+03  0.18610420939E+03  0.12509000000E+03 0.  0.
         25    1    3    3    0    0 -0.63088256980E+02 -0.68457896227E+02  0.33256232827E+03  0.36730344677E+03  0.12509000000E+03 0.  0.
<mgrwt>
<rscale>  2 0.44009108E+03</rscale>
<asrwt>0</asrwt>
<pdfrwt beam="1">  1       21 0.11837251E+00 0.44009108E+03</pdfrwt>
<pdfrwt beam="2">  1       21 0.88461941E-02 0.44009108E+03</pdfrwt>
<totfact> 0.50412319E+04</totfact>
</mgrwt>
</event>
<event>
 7    0  0.4752811E-002  0.4553266E+03  0.7546771E-02  0.1026145E+00
         21   -1    0    0  502  501  0.00000000000E+00  0.00000000000E+00  0.12585954297E+03  0.12585954297E+03  0.00000000000E+00 0.  1.
         21   -1    0    0  501  502 -0.00000000000E+00 -0.00000000000E+00 -0.41181293114E+03  0.41181293114E+03  0.00000000000E+00 0.  1.
      99926    2    1    2    0    0 -0.44408920985E-15 -0.14210854715E-13 -0.28595338817E+03  0.53767247410E+03  0.45532664012E+03 0.  0.
      99925    2    3    3    0    0  0.35241249998E+01  0.11122961797E+03 -0.15287155342E+03  0.32379697244E+03  0.26285037597E+03 0.  0.
         25    1    4    4    0    0  0.18812568165E+01  0.12825488714E+02 -0.77139392980E+02  0.14753313640E+03  0.12509000000E+03 0.  0.
         25    1    3    3    0    0 -0.35241249998E+01 -0.11122961797E+03 -0.13308183475E+03  0.21387550166E+03  0.12509000000E+03 0.  0.
         25    1    4    4    0    0  0.16428681834E+01  0.98404129254E+02 -0.75732160442E+02  0.17626383604E+03  0.12509000000E+03 0.  0.
<mgrwt>
<rscale>  2 0.45532664E+03</rscale>
<asrwt>0</asrwt>
<pdfrwt beam="1">  1       21 0.18508757E-01 0.45532664E+03</pdfrwt>
<pdfrwt beam="2">  1       21 0.60560725E-01 0.45532664E+03</pdfrwt>
<totfact> 0.62526750E+04</totfact>
</mgrwt>
</event>
<event>
 7    0  0.4752811E-002  0.4657955E+03  0.7546771E-02  0.1023114E+00
         21   -1    0    0  502  501  0.00000000000E+00  0.00000000000E+00  0.71451571149E+02  0.71451571149E+02  0.00000000000E+00 0. -1.
         21   -1    0    0  501  502 -0.00000000000E+00 -0.00000000000E+00 -0.75913456751E+03  0.75913456751E+03  0.00000000000E+00 0. -1.
      99926    2    1    2    0    0  0.00000000000E+00 -0.35527136788E-14 -0.68768299636E+03  0.83058613866E+03  0.46579548114E+03 0.  0.
      99925    2    3    3    0    0 -0.53385983280E+02 -0.17346251882E+02 -0.62399117468E+03  0.67940706632E+03  0.26282697734E+03 0.  0.
         25    1    4    4    0    0 -0.52297354154E+02  0.16262138818E+02 -0.36781479430E+03  0.39234513049E+03  0.12509000000E+03 0.  0.
         25    1    4    4    0    0 -0.10886291262E+01 -0.33608390700E+02 -0.25617638038E+03  0.28706193583E+03  0.12509000000E+03 0.  0.
         25    1    3    3    0    0  0.53385983280E+02  0.17346251882E+02 -0.63691821683E+02  0.15117907234E+03  0.12509000000E+03 0.  0.
<mgrwt>
<rscale>  2 0.46579548E+03</rscale>
<asrwt>0</asrwt>
<pdfrwt beam="1">  1       21 0.10507584E-01 0.46579548E+03</pdfrwt>
<pdfrwt beam="2">  1       21 0.11163743E+00 0.46579548E+03</pdfrwt>
<totfact> 0.42596421E+04</totfact>
</mgrwt>
</event>
<event>
 7    0  0.4752811E-002  0.3999203E+03  0.7546771E-02  0.1043807E+00
         21   -1    0    0  502  501  0.00000000000E+00  0.00000000000E+00  0.12650502435E+04  0.12650502435E+04  0.00000000000E+00 0. -1.
         21   -1    0    0  501  502 -0.00000000000E+00 -0.00000000000E+00 -0.31606705631E+02  0.31606705631E+02  0.00000000000E+00 0. -1.
      99926    2    1    2    0    0  0.00000000000E+00 -0.71054273576E-14  0.12334435379E+04  0.12966569492E+04  0.39992034535E+03 0.  0.
      99925    2    3    3    0    0 -0.21308041258E+02  0.36539843767E+02  0.87288172818E+03  0.91267580440E+03  0.26318324365E+03 0.  0.
         25    1    3    3    0    0  0.21308041258E+02 -0.36539843767E+02  0.36056180971E+03  0.38398114475E+03  0.12509000000E+03 0.  0.
         25    1    4    4    0    0 -0.37470490857E+02  0.26655735604E+02  0.54938337083E+03  0.56531775327E+03  0.12509000000E+03 0.  0.
         25    1    4    4    0    0  0.16162449599E+02  0.98841081630E+01  0.32349835736E+03  0.34735805113E+03  0.12509000000E+03 0.  0.
<mgrwt>
<rscale>  2 0.39992035E+03</rscale>
<asrwt>0</asrwt>
<pdfrwt beam="1">  1       21 0.18603677E+00 0.39992035E+03</pdfrwt>
<pdfrwt beam="2">  1       21 0.46480458E-02 0.39992035E+03</pdfrwt>
<totfact> 0.45977665E+04</totfact>
</mgrwt>
</event>
<event>
 7    0  0.4752811E-002  0.4501219E+03  0.7546771E-02  0.1027686E+00
         21   -1    0    0  502  501  0.00000000000E+00  0.00000000000E+00  0.42633365471E+03  0.42633365471E+03  0.00000000000E+00 0.  1.
         21   -1    0    0  501  502 -0.00000000000E+00 -0.00000000000E+00 -0.11880935277E+03  0.11880935277E+03  0.00000000000E+00 0.  1.
      99926    2    1    2    0    0  0.00000000000E+00  0.00000000000E+00  0.30752430195E+03  0.54514300748E+03  0.45012187496E+03 0.  0.
      99925    2    3    3    0    0 -0.72351055781E+02 -0.68575743153E+02  0.24631909270E+03  0.37388036252E+03  0.26301354001E+03 0.  0.
         25    1    4    4    0    0 -0.71722413511E+02 -0.46380162324E+02  0.10773717482E+03  0.18587638633E+03  0.12509000000E+03 0.  0.
         25    1    3    3    0    0  0.72351055781E+02  0.68575743153E+02  0.61205209246E+02  0.17126264497E+03  0.12509000000E+03 0.  0.
         25    1    4    4    0    0 -0.62864226982E+00 -0.22195580829E+02  0.13858191788E+03  0.18800397619E+03  0.12509000000E+03 0.  0.
<mgrwt>
<rscale>  2 0.45012187E+03</rscale>
<asrwt>0</asrwt>
<pdfrwt beam="1">  1       21 0.62696125E-01 0.45012187E+03</pdfrwt>
<pdfrwt beam="2">  1       21 0.17471964E-01 0.45012187E+03</pdfrwt>
<totfact> 0.64648103E+04</totfact>
</mgrwt>
</event>
<event>
 7    0  0.4752811E-002  0.4531764E+03  0.7546771E-02  0.1026779E+00
         21   -1    0    0  502  501  0.00000000000E+00  0.00000000000E+00  0.23020391870E+03  0.23020391870E+03  0.00000000000E+00 0. -1.
         21   -1    0    0  501  502 -0.00000000000E+00 -0.00000000000E+00 -0.22302928114E+03  0.22302928114E+03  0.00000000000E+00 0. -1.
      99926    2    1    2    0    0  0.00000000000E+00  0.00000000000E+00  0.71746375620E+01  0.45323319983E+03  0.45317640937E+03 0.  0.
      99925    2    3    3    0    0  0.83024986851E+02 -0.17011774088E+02 -0.67992513880E+02  0.28447254786E+03  0.26290511528E+03 0.  0.
         25    1    3    3    0    0 -0.83024986851E+02  0.17011774088E+02  0.75167151442E+02  0.16876065198E+03  0.12509000000E+03 0.  0.
         25    1    4    4    0    0  0.35202098384E+02  0.29162328401E+02 -0.47203468391E+02  0.14129863643E+03  0.12509000000E+03 0.  0.
         25    1    4    4    0    0  0.47822888467E+02 -0.46174102488E+02 -0.20789045489E+02  0.14317391143E+03  0.12509000000E+03 0.  0.
<mgrwt>
<rscale>  2 0.45317641E+03</rscale>
<asrwt>0</asrwt>
<pdfrwt beam="1">  1       21 0.33853518E-01 0.45317641E+03</pdfrwt>
<pdfrwt beam="2">  1       21 0.32798424E-01 0.45317641E+03</pdfrwt>
<totfact> 0.69683839E+04</totfact>
</mgrwt>
</event>
<event>
 7    0  0.4752811E-002  0.4522799E+03  0.7546771E-02  0.1027044E+00
         21   -1    0    0  502  501  0.00000000000E+00  0.00000000000E+00  0.60971701892E+02  0.60971701892E+02  0.00000000000E+00 0. -1.
         21   -1    0    0  501  502 -0.00000000000E+00 -0.00000000000E+00 -0.83873796033E+03  0.83873796033E+03  0.00000000000E+00 0. -1.
      99926    2    1    2    0    0  0.00000000000E+00  0.17763568394E-14 -0.77776625844E+03  0.89970966222E+03  0.45227991723E+03 0.  0.
      99925    2    3    3    0    0  0.10461264894E+03  0.10649057800E+02 -0.55840727119E+03  0.62617158053E+03  0.26308736001E+03 0.  0.
         25    1    3    3    0    0 -0.10461264894E+03 -0.10649057800E+02 -0.21935898725E+03  0.27353808169E+03  0.12509000000E+03 0.  0.
         25    1    4    4    0    0  0.72473061295E+02  0.38915604891E+02 -0.32738949837E+03  0.35999744535E+03  0.12509000000E+03 0.  0.
         25    1    4    4    0    0  0.32139587644E+02 -0.28266547091E+02 -0.23101777283E+03  0.26617413518E+03  0.12509000000E+03 0.  0.
<mgrwt>
<rscale>  2 0.45227992E+03</rscale>
<asrwt>0</asrwt>
<pdfrwt beam="1">  1       21 0.89664270E-02 0.45227992E+03</pdfrwt>
<pdfrwt beam="2">  1       21 0.12334381E+00 0.45227992E+03</pdfrwt>
<totfact> 0.44179641E+04</totfact>
</mgrwt>
</event>
<event>
 7    0  0.4752811E-002  0.4634261E+03  0.7546771E-02  0.1023792E+00
         21   -1    0    0  502  501  0.00000000000E+00  0.00000000000E+00  0.74975770994E+03  0.74975770994E+03  0.00000000000E+00 0. -1.
         21   -1    0    0  501  502 -0.00000000000E+00 -0.00000000000E+00 -0.71611048523E+02  0.71611048523E+02  0.00000000000E+00 0. -1.
      99926    2    1    2    0    0 -0.71054273576E-14 -0.14210854715E-13  0.67814666142E+03  0.82136875847E+03  0.46342609226E+03 0.  0.
      99925    2    3    3    0    0 -0.43514109490E+02 -0.96863299100E+02  0.32194068317E+03  0.42918744392E+03  0.26321109798E+03 0.  0.
         25    1    4    4    0    0 -0.58478977010E+02 -0.30824840815E+02  0.16623015141E+03  0.21828864584E+03  0.12509000000E+03 0.  0.
         25    1    3    3    0    0  0.43514109490E+02  0.96863299100E+02  0.35620597825E+03  0.39218131454E+03  0.12509000000E+03 0.  0.
         25    1    4    4    0    0  0.14964867520E+02 -0.66038458284E+02  0.15571053176E+03  0.21089879808E+03  0.12509000000E+03 0.  0.
<mgrwt>
<rscale>  2 0.46342609E+03</rscale>
<asrwt>0</asrwt>
<pdfrwt beam="1">  1       21 0.11025848E+00 0.46342609E+03</pdfrwt>
<pdfrwt beam="2">  1       21 0.10531037E-01 0.46342609E+03</pdfrwt>
<totfact> 0.43781307E+04</totfact>
</mgrwt>
</event>
<event>
 7    0  0.4752811E-002  0.4402212E+03  0.7546771E-02  0.1030679E+00
         21   -1    0    0  502  501  0.00000000000E+00  0.00000000000E+00  0.31283608153E+03  0.31283608153E+03  0.00000000000E+00 0. -1.
         21   -1    0    0  501  502 -0.00000000000E+00 -0.00000000000E+00 -0.15486921933E+03  0.15486921933E+03  0.00000000000E+00 0. -1.
      99926    2    1    2    0    0  0.00000000000E+00  0.14210854715E-13  0.15796686220E+03  0.46770530086E+03  0.44022121587E+03 0.  0.
      99925    2    3    3    0    0  0.55763427226E+02  0.78325519112E+02  0.12378782459E+03  0.30627370088E+03  0.26312678992E+03 0.  0.
         25    1    4    4    0    0  0.27941146883E+02  0.11916198375E+02  0.92703635738E+02  0.15863220244E+03  0.12509000000E+03 0.  0.
         25    1    3    3    0    0 -0.55763427226E+02 -0.78325519112E+02  0.34179037610E+02  0.16143159998E+03  0.12509000000E+03 0.  0.
         25    1    4    4    0    0  0.27822280344E+02  0.66409320737E+02  0.31084188855E+02  0.14764149844E+03  0.12509000000E+03 0.  0.
<mgrwt>
<rscale>  2 0.44022122E+03</rscale>
<asrwt>0</asrwt>
<pdfrwt beam="1">  1       21 0.46005306E-01 0.44022122E+03</pdfrwt>
<pdfrwt beam="2">  1       21 0.22774885E-01 0.44022122E+03</pdfrwt>
<totfact> 0.76154097E+04</totfact>
</mgrwt>
</event>
<event>
 7    0  0.4752811E-002  0.4758079E+03  0.7546771E-02  0.1020294E+00
         21   -1    0    0  502  501  0.00000000000E+00  0.00000000000E+00  0.27362992698E+03  0.27362992698E+03  0.00000000000E+00 0. -1.
         21   -1    0    0  501  502 -0.00000000000E+00 -0.00000000000E+00 -0.20684249738E+03  0.20684249738E+03  0.00000000000E+00 0. -1.
      99926    2    1    2    0    0  0.14210854715E-13  0.00000000000E+00  0.66787429598E+02  0.48047242437E+03  0.47580793376E+03 0.  0.
      99925    2    3    3    0    0  0.10060756066E+03 -0.78778715984E+02  0.72043639200E+01  0.29199001890E+03  0.26244675826E+03 0.  0.
         25    1    3    3    0    0 -0.10060756066E+03  0.78778715984E+02  0.59583065678E+02  0.18848240547E+03  0.12509000000E+03 0.  0.
         25    1    4    4    0    0  0.29827827006E+02 -0.25761727184E+02 -0.29571628491E+02  0.13444461746E+03  0.12509000000E+03 0.  0.
         25    1    4    4    0    0  0.70779733658E+02 -0.53016988800E+02  0.36775992411E+02  0.15754540144E+03  0.12509000000E+03 0.  0.
<mgrwt>
<rscale>  2 0.47580793E+03</rscale>
<asrwt>0</asrwt>
<pdfrwt beam="1">  1       21 0.40239695E-01 0.47580793E+03</pdfrwt>
<pdfrwt beam="2">  1       21 0.30418014E-01 0.47580793E+03</pdfrwt>
<totfact> 0.56701314E+04</totfact>
</mgrwt>
</event>
<event>
 7    0  0.4752811E-002  0.4545657E+03  0.7546771E-02  0.1026369E+00
         21   -1    0    0  502  501  0.00000000000E+00  0.00000000000E+00  0.12391375530E+04  0.12391375530E+04  0.00000000000E+00 0.  1.
         21   -1    0    0  501  502 -0.00000000000E+00 -0.00000000000E+00 -0.41688255403E+02  0.41688255403E+02  0.00000000000E+00 0.  1.
      99926    2    1    2    0    0  0.00000000000E+00 -0.14210854715E-13  0.11974492976E+04  0.12808258084E+04  0.45456565109E+03 0.  0.
      99925    2    3    3    0    0  0.82912894527E+02 -0.74902654604E+02  0.71031204445E+03  0.76562180293E+03  0.26296119275E+03 0.  0.
         25    1    4    4    0    0  0.14828397169E+02 -0.65692741201E+02  0.32343504964E+03  0.35326074937E+03  0.12509000000E+03 0.  0.
         25    1    4    4    0    0  0.68084497358E+02 -0.92099134027E+01  0.38687699481E+03  0.41236105356E+03  0.12509000000E+03 0.  0.
         25    1    3    3    0    0 -0.82912894527E+02  0.74902654604E+02  0.48713725316E+03  0.51520400548E+03  0.12509000000E+03 0.  0.
<mgrwt>
<rscale>  2 0.45456565E+03</rscale>
<asrwt>0</asrwt>
<pdfrwt beam="1">  1       21 0.18222609E+00 0.45456565E+03</pdfrwt>
<pdfrwt beam="2">  1       21 0.61306266E-02 0.45456565E+03</pdfrwt>
<totfact> 0.29777286E+04</totfact>
</mgrwt>
</event>
<event>
 7    0  0.4752811E-002  0.4559704E+03  0.7546771E-02  0.1025956E+00
         21   -1    0    0  502  501  0.00000000000E+00  0.00000000000E+00  0.12989571056E+03  0.12989571056E+03  0.00000000000E+00 0.  1.
         21   -1    0    0  501  502 -0.00000000000E+00 -0.00000000000E+00 -0.40014596518E+03  0.40014596518E+03  0.00000000000E+00 0.  1.
      99926    2    1    2    0    0  0.00000000000E+00  0.00000000000E+00 -0.27025025462E+03  0.53004167574E+03  0.45597036954E+03 0.  0.
      99925    2    3    3    0    0 -0.77512237943E+02  0.83555278930E+02 -0.16620854501E+03  0.33139168931E+03  0.26306945783E+03 0.  0.
         25    1    4    4    0    0 -0.55694822107E+02  0.53186893509E+02 -0.12935162614E+03  0.19572968639E+03  0.12509000000E+03 0.  0.
         25    1    3    3    0    0  0.77512237943E+02 -0.83555278930E+02 -0.10404170961E+03  0.19864998642E+03  0.12509000000E+03 0.  0.
         25    1    4    4    0    0 -0.21817415836E+02  0.30368385421E+02 -0.36856918867E+02  0.13566200292E+03  0.12509000000E+03 0.  0.
<mgrwt>
<rscale>  2 0.45597037E+03</rscale>
<asrwt>0</asrwt>
<pdfrwt beam="1">  1       21 0.19102311E-01 0.45597037E+03</pdfrwt>
<pdfrwt beam="2">  1       21 0.58844994E-01 0.45597037E+03</pdfrwt>
<totfact> 0.62719927E+04</totfact>
</mgrwt>
</event>
<event>
 7    0  0.4752811E-002  0.4523419E+03  0.7546771E-02  0.1027026E+00
         21   -1    0    0  502  501  0.00000000000E+00  0.00000000000E+00  0.21613769067E+03  0.21613769067E+03  0.00000000000E+00 0. -1.
         21   -1    0    0  501  502 -0.00000000000E+00 -0.00000000000E+00 -0.23666997181E+03  0.23666997181E+03  0.00000000000E+00 0. -1.
      99926    2    1    2    0    0  0.00000000000E+00  0.00000000000E+00 -0.20532281138E+02  0.45280766247E+03  0.45234191120E+03 0.  0.
      99925    2    3    3    0    0  0.40686919196E+02  0.10275931023E+03 -0.94586342605E+01  0.28552037967E+03  0.26309222757E+03 0.  0.
         25    1    3    3    0    0 -0.40686919196E+02 -0.10275931023E+03 -0.11073646878E+02  0.16728728281E+03  0.12509000000E+03 0.  0.
         25    1    4    4    0    0 -0.63726045252E+01  0.82565968108E+02  0.88048896176E-01  0.15001754908E+03  0.12509000000E+03 0.  0.
         25    1    4    4    0    0  0.47059523721E+02  0.20193342125E+02 -0.95466831567E+01  0.13550283059E+03  0.12509000000E+03 0.  0.
<mgrwt>
<rscale>  2 0.45234191E+03</rscale>
<asrwt>0</asrwt>
<pdfrwt beam="1">  1       21 0.31784955E-01 0.45234191E+03</pdfrwt>
<pdfrwt beam="2">  1       21 0.34804407E-01 0.45234191E+03</pdfrwt>
<totfact> 0.70183445E+04</totfact>
</mgrwt>
</event>
<event>
 7    0  0.4752811E-002  0.4533126E+03  0.7546771E-02  0.1026739E+00
         21   -1    0    0  502  501  0.00000000000E+00  0.00000000000E+00  0.40645043256E+02  0.40645043256E+02  0.00000000000E+00 0. -1.
         21   -1    0    0  501  502 -0.00000000000E+00 -0.00000000000E+00 -0.12639446422E+04  0.12639446422E+04  0.00000000000E+00 0. -1.
      99926    2    1    2    0    0  0.35527136788E-14  0.00000000000E+00 -0.12232995989E+04  0.13045896854E+04  0.45331262790E+03 0.  0.
      99925    2    3    3    0    0  0.19950114828E+02  0.92062569964E+02 -0.59971953270E+03  0.66164868428E+03  0.26313863199E+03 0.  0.
         25    1    4    4    0    0  0.47480383858E+02  0.30660327576E+02 -0.28272632733E+03  0.31428669524E+03  0.12509000000E+03 0.  0.
         25    1    4    4    0    0 -0.27530269030E+02  0.61402242389E+02 -0.31699320537E+03  0.34736198905E+03  0.12509000000E+03 0.  0.
         25    1    3    3    0    0 -0.19950114828E+02 -0.92062569964E+02 -0.62358006621E+03  0.64294100114E+03  0.12509000000E+03 0.  0.
<mgrwt>
<rscale>  2 0.45331263E+03</rscale>
<asrwt>0</asrwt>
<pdfrwt beam="1">  1       21 0.59772134E-02 0.45331263E+03</pdfrwt>
<pdfrwt beam="2">  1       21 0.18587418E+00 0.45331263E+03</pdfrwt>
<totfact> 0.29365138E+04</totfact>
</mgrwt>
</event>
<event>
 7    0  0.4752811E-002  0.4542655E+03  0.7546771E-02  0.1026458E+00
         21   -1    0    0  502  501  0.00000000000E+00  0.00000000000E+00  0.70687511898E+03  0.70687511898E+03  0.00000000000E+00 0. -1.
         21   -1    0    0  501  502 -0.00000000000E+00 -0.00000000000E+00 -0.72982188265E+02  0.72982188265E+02  0.00000000000E+00 0. -1.
      99926    2    1    2    0    0  0.14210854715E-13  0.00000000000E+00  0.63389293072E+03  0.77985730725E+03  0.45426553034E+03 0.  0.
      99925    2    3    3    0    0 -0.10373739678E+03 -0.30352152333E+02  0.45272855500E+03  0.53460082972E+03  0.26296806266E+03 0.  0.
         25    1    4    4    0    0 -0.69022535690E+02 -0.15234341381E+02  0.30633102785E+03  0.33835248235E+03  0.12509000000E+03 0.  0.
         25    1    3    3    0    0  0.10373739678E+03  0.30352152333E+02  0.18116437571E+03  0.24525647753E+03  0.12509000000E+03 0.  0.
         25    1    4    4    0    0 -0.34714861086E+02 -0.15117810952E+02  0.14639752716E+03  0.19624834737E+03  0.12509000000E+03 0.  0.
<mgrwt>
<rscale>  2 0.45426553E+03</rscale>
<asrwt>0</asrwt>
<pdfrwt beam="1">  1       21 0.10395222E+00 0.45426553E+03</pdfrwt>
<pdfrwt beam="2">  1       21 0.10732675E-01 0.45426553E+03</pdfrwt>
<totfact> 0.49036645E+04</totfact>
</mgrwt>
</event>
<event>
 7    0  0.4752811E-002  0.4442561E+03  0.7546771E-02  0.1029449E+00
         21   -1    0    0  502  501  0.00000000000E+00  0.00000000000E+00  0.86443993235E+02  0.86443993235E+02  0.00000000000E+00 0.  1.
         21   -1    0    0  501  502 -0.00000000000E+00 -0.00000000000E+00 -0.57078435603E+03  0.57078435603E+03  0.00000000000E+00 0.  1.
      99926    2    1    2    0    0  0.00000000000E+00  0.00000000000E+00 -0.48434036280E+03  0.65722834927E+03  0.44425613788E+03 0.  0.
      99925    2    3    3    0    0 -0.79991693967E+02 -0.52471104291E+02 -0.36453850416E+03  0.45936000586E+03  0.26262407750E+03 0.  0.
         25    1    4    4    0    0 -0.61948175152E+02 -0.20505148739E+02 -0.24375868373E+03  0.28164488549E+03  0.12509000000E+03 0.  0.
         25    1    3    3    0    0  0.79991693967E+02  0.52471104291E+02 -0.11980185864E+03  0.19786834341E+03  0.12509000000E+03 0.  0.
         25    1    4    4    0    0 -0.18043518815E+02 -0.31965955552E+02 -0.12077982043E+03  0.17771512037E+03  0.12509000000E+03 0.  0.
<mgrwt>
<rscale>  2 0.44425614E+03</rscale>
<asrwt>0</asrwt>
<pdfrwt beam="1">  1       21 0.12712353E-01 0.44425614E+03</pdfrwt>
<pdfrwt beam="2">  1       21 0.83938872E-01 0.44425614E+03</pdfrwt>
<totfact> 0.60228519E+04</totfact>
</mgrwt>
</event>
<event>
 7    0  0.4752811E-002  0.4572413E+03  0.7546771E-02  0.1025584E+00
         21   -1    0    0  502  501  0.00000000000E+00  0.00000000000E+00  0.13644237782E+03  0.13644237782E+03  0.00000000000E+00 0.  1.
         21   -1    0    0  501  502 -0.00000000000E+00 -0.00000000000E+00 -0.38307310315E+03  0.38307310315E+03  0.00000000000E+00 0.  1.
      99926    2    1    2    0    0 -0.62172489379E-14  0.00000000000E+00 -0.24663072534E+03  0.51951548097E+03  0.45724131516E+03 0.  0.
      99925    2    3    3    0    0  0.54165123379E+01 -0.11326394786E+03 -0.17835928173E+03  0.33739859926E+03  0.26299756826E+03 0.  0.
         25    1    4    4    0    0 -0.33094279061E+02 -0.76651545817E+02 -0.89243545854E+02  0.17487884194E+03  0.12509000000E+03 0.  0.
         25    1    3    3    0    0 -0.54165123379E+01  0.11326394786E+03 -0.68271443610E+02  0.18211688171E+03  0.12509000000E+03 0.  0.
         25    1    4    4    0    0  0.38510791399E+02 -0.36612402044E+02 -0.89115735873E+02  0.16251975732E+03  0.12509000000E+03 0.  0.
<mgrwt>
<rscale>  2 0.45724132E+03</rscale>
<asrwt>0</asrwt>
<pdfrwt beam="1">  1       21 0.20065056E-01 0.45724132E+03</pdfrwt>
<pdfrwt beam="2">  1       21 0.56334279E-01 0.45724132E+03</pdfrwt>
<totfact> 0.62796128E+04</totfact>
</mgrwt>
</event>
<event>
 7    0  0.4752811E-002  0.4528476E+03  0.7546771E-02  0.1026876E+00
         21   -1    0    0  502  501  0.00000000000E+00  0.00000000000E+00  0.14199651406E+03  0.14199651406E+03  0.00000000000E+00 0. -1.
         21   -1    0    0  501  502 -0.00000000000E+00 -0.00000000000E+00 -0.36104933935E+03  0.36104933935E+03  0.00000000000E+00 0. -1.
      99926    2    1    2    0    0  0.71054273576E-14  0.00000000000E+00 -0.21905282529E+03  0.50304585341E+03  0.45284764586E+03 0.  0.
      99925    2    3    3    0    0  0.46910722528E+02  0.36044720447E+02 -0.24265116589E+03  0.36267410576E+03  0.26296973385E+03 0.  0.
         25    1    4    4    0    0  0.19500671330E+02 -0.22311365608E+02 -0.10785584088E+03  0.16780483822E+03  0.12509000000E+03 0.  0.
         25    1    3    3    0    0 -0.46910722528E+02 -0.36044720447E+02  0.23598340597E+02  0.14037174765E+03  0.12509000000E+03 0.  0.
         25    1    4    4    0    0  0.27410051198E+02  0.58356086055E+02 -0.13479532501E+03  0.19486926754E+03  0.12509000000E+03 0.  0.
<mgrwt>
<rscale>  2 0.45284765E+03</rscale>
<asrwt>0</asrwt>
<pdfrwt beam="1">  1       21 0.20881840E-01 0.45284765E+03</pdfrwt>
<pdfrwt beam="2">  1       21 0.53095492E-01 0.45284765E+03</pdfrwt>
<totfact> 0.66180639E+04</totfact>
</mgrwt>
</event>
<event>
 7    0  0.4752811E-002  0.4542066E+03  0.7546771E-02  0.1026475E+00
         21   -1    0    0  502  501  0.00000000000E+00  0.00000000000E+00  0.21623852263E+03  0.21623852263E+03  0.00000000000E+00 0.  1.
         21   -1    0    0  501  502 -0.00000000000E+00 -0.00000000000E+00 -0.23851401584E+03  0.23851401584E+03  0.00000000000E+00 0.  1.
      99926    2    1    2    0    0  0.00000000000E+00  0.00000000000E+00 -0.22275493205E+02  0.45475253847E+03  0.45420664201E+03 0.  0.
      99925    2    3    3    0    0  0.75947170994E+02  0.51050077032E+02  0.51233556022E+02  0.28321487041E+03  0.26308117076E+03 0.  0.
         25    1    4    4    0    0  0.66382256152E+02  0.54075955977E+02  0.42442690214E+02  0.15741570125E+03  0.12509000000E+03 0.  0.
         25    1    4    4    0    0  0.95649148420E+01 -0.30258789448E+01  0.87908658076E+01  0.12579916916E+03  0.12509000000E+03 0.  0.
         25    1    3    3    0    0 -0.75947170994E+02 -0.51050077032E+02 -0.73509049227E+02  0.17153766807E+03  0.12509000000E+03 0.  0.
<mgrwt>
<rscale>  2 0.45420664E+03</rscale>
<asrwt>0</asrwt>
<pdfrwt beam="1">  1       21 0.31799783E-01 0.45420664E+03</pdfrwt>
<pdfrwt beam="2">  1       21 0.35075590E-01 0.45420664E+03</pdfrwt>
<totfact> 0.68999693E+04</totfact>
</mgrwt>
</event>
<event>
 7    0  0.4752811E-002  0.4500893E+03  0.7546771E-02  0.1027695E+00
         21   -1    0    0  502  501  0.00000000000E+00  0.00000000000E+00  0.55626449275E+03  0.55626449275E+03  0.00000000000E+00 0. -1.
         21   -1    0    0  501  502 -0.00000000000E+00 -0.00000000000E+00 -0.91044978249E+02  0.91044978249E+02  0.00000000000E+00 0. -1.
      99926    2    1    2    0    0  0.14210854715E-13  0.17763568394E-14  0.46521951450E+03  0.64730947100E+03  0.45008927400E+03 0.  0.
      99925    2    3    3    0    0 -0.87242699428E+02 -0.13959347891E+02  0.20420734693E+03  0.34468592314E+03  0.26325195740E+03 0.  0.
         25    1    4    4    0    0 -0.22868151628E+02  0.28721560715E+02  0.10400993700E+03  0.16677366550E+03  0.12509000000E+03 0.  0.
         25    1    3    3    0    0  0.87242699428E+02  0.13959347891E+02  0.26101216758E+03  0.30262354786E+03  0.12509000000E+03 0.  0.
         25    1    4    4    0    0 -0.64374547800E+02 -0.42680908605E+02  0.10019740993E+03  0.17791225765E+03  0.12509000000E+03 0.  0.
<mgrwt>
<rscale>  2 0.45008927E+03</rscale>
<asrwt>0</asrwt>
<pdfrwt beam="1">  1       21 0.81803600E-01 0.45008927E+03</pdfrwt>
<pdfrwt beam="2">  1       21 0.13388968E-01 0.45008927E+03</pdfrwt>
<totfact> 0.58074194E+04</totfact>
</mgrwt>
</event>
<event>
 6    0  0.4752811E-002  0.4573225E+03  0.7546771E-02  0.1025561E+00
         21   -1    0    0  502  501  0.00000000000E+00  0.00000000000E+00  0.41560688449E+03  0.41560688449E+03  0.00000000000E+00 0. -1.
         21   -1    0    0  501  502 -0.00000000000E+00 -0.00000000000E+00 -0.12580629557E+03  0.12580629557E+03  0.00000000000E+00 0. -1.
      99926    2    1    2    0    0  0.00000000000E+00  0.14210854715E-13  0.28980058892E+03  0.54141318006E+03  0.45732247945E+03 0.  0.
         25    1    3    3    0    0  0.78319314595E+01  0.32523704354E+02  0.11492686499E+03  0.17313238545E+03  0.12509000000E+03 0.  0.
         25    1    3    3    0    0  0.49802462503E+02 -0.10194903288E+03  0.10577198349E+03  0.19927145097E+03  0.12509000000E+03 0.  0.
         25    1    3    3    0    0 -0.57634393963E+02  0.69425328529E+02  0.69101740433E+02  0.16900934365E+03  0.12509000000E+03 0.  0.
<mgrwt>
<rscale>  2 0.45732248E+03</rscale>
<asrwt>0</asrwt>
<pdfrwt beam="1">  1       21 0.61118659E-01 0.45732248E+03</pdfrwt>
<pdfrwt beam="2">  1       21 0.18500926E-01 0.45732248E+03</pdfrwt>
<totfact> 0.61303023E+04</totfact>
</mgrwt>
</event>
<event>
 7    0  0.4752811E-002  0.4584120E+03  0.7546771E-02  0.1025243E+00
         21   -1    0    0  502  501  0.00000000000E+00  0.00000000000E+00  0.10731018132E+03  0.10731018132E+03  0.00000000000E+00 0.  1.
         21   -1    0    0  501  502 -0.00000000000E+00 -0.00000000000E+00 -0.48956577603E+03  0.48956577603E+03  0.00000000000E+00 0.  1.
      99926    2    1    2    0    0  0.71054273576E-14  0.17763568394E-14 -0.38225559471E+03  0.59687595735E+03  0.45841200767E+03 0.  0.
      99925    2    3    3    0    0 -0.41948360533E+02  0.49084073773E+01 -0.38098912079E+03  0.46484236515E+03  0.26294858215E+03 0.  0.
         25    1    4    4    0    0 -0.36751645331E+02  0.23393398614E+02 -0.24864965148E+03  0.28173053050E+03  0.12509000000E+03 0.  0.
         25    1    3    3    0    0  0.41948360533E+02 -0.49084073773E+01 -0.12664739171E+01  0.13203359221E+03  0.12509000000E+03 0.  0.
         25    1    4    4    0    0 -0.51967152026E+01 -0.18484991237E+02 -0.13233946931E+03  0.18311183465E+03  0.12509000000E+03 0.  0.
<mgrwt>
<rscale>  2 0.45841201E+03</rscale>
<asrwt>0</asrwt>
<pdfrwt beam="1">  1       21 0.15780909E-01 0.45841201E+03</pdfrwt>
<pdfrwt beam="2">  1       21 0.71994967E-01 0.45841201E+03</pdfrwt>
<totfact> 0.57310076E+04</totfact>
</mgrwt>
</event>
<event>
 7    0  0.4752811E-002  0.4549075E+03  0.7546771E-02  0.1026269E+00
         21   -1    0    0  502  501  0.00000000000E+00  0.00000000000E+00  0.27961261794E+04  0.27961261794E+04  0.00000000000E+00 0. -1.
         21   -1    0    0  501  502 -0.00000000000E+00 -0.00000000000E+00 -0.18502462070E+02  0.18502462070E+02  0.00000000000E+00 0. -1.
      99926    2    1    2    0    0  0.00000000000E+00 -0.35527136788E-14  0.27776237173E+04  0.28146286415E+04  0.45490754479E+03 0.  0.
      99925    2    3    3    0    0 -0.29845343569E+02  0.28135327136E+02  0.10945136154E+04  0.11263782262E+04  0.26284123175E+03 0.  0.
         25    1    4    4    0    0  0.88445867128E+01  0.34240811915E+02  0.43692206704E+03  0.45584982251E+03  0.12509000000E+03 0.  0.
         25    1    3    3    0    0  0.29845343569E+02 -0.28135327136E+02  0.16831101020E+04  0.16882504153E+04  0.12509000000E+03 0.  0.
         25    1    4    4    0    0 -0.38689930282E+02 -0.61054847786E+01  0.65759154831E+03  0.67052840369E+03  0.12509000000E+03 0.  0.
<mgrwt>
<rscale>  2 0.45490754E+03</rscale>
<asrwt>0</asrwt>
<pdfrwt beam="1">  1       21 0.41119474E+00 0.45490754E+03</pdfrwt>
<pdfrwt beam="2">  1       21 0.27209522E-02 0.45490754E+03</pdfrwt>
<totfact> 0.44220079E+03</totfact>
</mgrwt>
</event>
<event>
 7    0  0.4752811E-002  0.4564694E+03  0.7546771E-02  0.1025810E+00
         21   -1    0    0  502  501  0.00000000000E+00  0.00000000000E+00  0.27348062338E+03  0.27348062338E+03  0.00000000000E+00 0.  1.
         21   -1    0    0  501  502 -0.00000000000E+00 -0.00000000000E+00 -0.19047451483E+03  0.19047451483E+03  0.00000000000E+00 0.  1.
      99926    2    1    2    0    0 -0.35527136788E-14  0.00000000000E+00  0.83006108545E+02  0.46395513821E+03  0.45646944719E+03 0.  0.
      99925    2    3    3    0    0  0.11765252616E+02 -0.30394102065E+01 -0.63581775853E+02  0.27086662189E+03  0.26301791849E+03 0.  0.
         25    1    4    4    0    0 -0.10487681347E+02 -0.33012073528E+01 -0.69786057180E+02  0.14366102919E+03  0.12509000000E+03 0.  0.
         25    1    4    4    0    0  0.22252933963E+02  0.26179714627E+00  0.62042813269E+01  0.12720559270E+03  0.12509000000E+03 0.  0.
         25    1    3    3    0    0 -0.11765252616E+02  0.30394102065E+01  0.14658788440E+03  0.19308851632E+03  0.12509000000E+03 0.  0.
<mgrwt>
<rscale>  2 0.45646945E+03</rscale>
<asrwt>0</asrwt>
<pdfrwt beam="1">  1       21 0.40217739E-01 0.45646945E+03</pdfrwt>
<pdfrwt beam="2">  1       21 0.28010958E-01 0.45646945E+03</pdfrwt>
<totfact> 0.67100525E+04</totfact>
</mgrwt>
</event>
<event>
 7    0  0.4752811E-002  0.4347179E+03  0.7546771E-02  0.1032380E+00
         21   -1    0    0  502  501  0.00000000000E+00  0.00000000000E+00  0.71519273487E+02  0.71519273487E+02  0.00000000000E+00 0. -1.
         21   -1    0    0  501  502 -0.00000000000E+00 -0.00000000000E+00 -0.66058980662E+03  0.66058980662E+03  0.00000000000E+00 0. -1.
      99926    2    1    2    0    0  0.00000000000E+00  0.00000000000E+00 -0.58907053313E+03  0.73210908010E+03  0.43471785352E+03 0.  0.
      99925    2    3    3    0    0 -0.82272763919E+02 -0.36995935490E+02 -0.41534245553E+03  0.49980225719E+03  0.26297420786E+03 0.  0.
         25    1    3    3    0    0  0.82272763919E+02  0.36995935490E+02 -0.17372807760E+03  0.23230682291E+03  0.12509000000E+03 0.  0.
         25    1    4    4    0    0 -0.34590036246E+02 -0.23769703035E+02 -0.13454200897E+03  0.18844237758E+03  0.12509000000E+03 0.  0.
         25    1    4    4    0    0 -0.47682727673E+02 -0.13226232455E+02 -0.28080044656E+03  0.31135987961E+03  0.12509000000E+03 0.  0.
<mgrwt>
<rscale>  2 0.43471785E+03</rscale>
<asrwt>0</asrwt>
<pdfrwt beam="1">  1       21 0.10517540E-01 0.43471785E+03</pdfrwt>
<pdfrwt beam="2">  1       21 0.97145559E-01 0.43471785E+03</pdfrwt>
<totfact> 0.60241754E+04</totfact>
</mgrwt>
</event>
<event>
 6    0  0.4752811E-002  0.4559242E+03  0.7546771E-02  0.1025970E+00
         21   -1    0    0  502  501  0.00000000000E+00  0.00000000000E+00  0.14681258992E+03  0.14681258992E+03  0.00000000000E+00 0. -1.
         21   -1    0    0  501  502 -0.00000000000E+00 -0.00000000000E+00 -0.35396634122E+03  0.35396634122E+03  0.00000000000E+00 0. -1.
      99926    2    1    2    0    0  0.71054273576E-14  0.00000000000E+00 -0.20715375130E+03  0.50077893113E+03  0.45592418360E+03 0.  0.
         25    1    3    3    0    0 -0.56563541449E+02 -0.35866320646E+02 -0.93783991937E+02  0.17008460372E+03  0.12509000000E+03 0.  0.
         25    1    3    3    0    0  0.61178014607E+02  0.36822965851E+02  0.22688925778E+02  0.14581143898E+03  0.12509000000E+03 0.  0.
         25    1    3    3    0    0 -0.46144731578E+01 -0.95664520439E+00 -0.13605868514E+03  0.18488288843E+03  0.12509000000E+03 0.  0.
<mgrwt>
<rscale>  2 0.45592418E+03</rscale>
<asrwt>0</asrwt>
<pdfrwt beam="1">  1       21 0.21590088E-01 0.45592418E+03</pdfrwt>
<pdfrwt beam="2">  1       21 0.52053871E-01 0.45592418E+03</pdfrwt>
<totfact> 0.64739727E+04</totfact>
</mgrwt>
</event>
<event>
 7    0  0.4752811E-002  0.4504728E+03  0.7546771E-02  0.1027581E+00
         21   -1    0    0  502  501  0.00000000000E+00  0.00000000000E+00  0.88379802085E+02  0.88379802085E+02  0.00000000000E+00 0.  1.
         21   -1    0    0  501  502 -0.00000000000E+00 -0.00000000000E+00 -0.57401614717E+03  0.57401614717E+03  0.00000000000E+00 0.  1.
      99926    2    1    2    0    0 -0.17763568394E-14  0.00000000000E+00 -0.48563634508E+03  0.66239594925E+03  0.45047278932E+03 0.  0.
      99925    2    3    3    0    0  0.14389215186E+02  0.16888126867E+02 -0.46387526480E+03  0.53350331541E+03  0.26258954268E+03 0.  0.
         25    1    4    4    0    0 -0.10856841736E+02 -0.45645987437E+01 -0.29585042120E+03  0.32142446453E+03  0.12509000000E+03 0.  0.
         25    1    3    3    0    0 -0.14389215186E+02 -0.16888126867E+02 -0.21761080284E+02  0.12889263384E+03  0.12509000000E+03 0.  0.
         25    1    4    4    0    0  0.25246056921E+02  0.21452725610E+02 -0.16802484360E+03  0.21207885089E+03  0.12509000000E+03 0.  0.
<mgrwt>
<rscale>  2 0.45047279E+03</rscale>
<asrwt>0</asrwt>
<pdfrwt beam="1">  1       21 0.12997029E-01 0.45047279E+03</pdfrwt>
<pdfrwt beam="2">  1       21 0.84414141E-01 0.45047279E+03</pdfrwt>
<totfact> 0.56999809E+04</totfact>
</mgrwt>
</event>
<event>
 7    0  0.4752811E-002  0.4383697E+03  0.7546771E-02  0.1031248E+00
         21   -1    0    0  502  501  0.00000000000E+00  0.00000000000E+00  0.61286531994E+02  0.61286531994E+02  0.00000000000E+00 0. -1.
         21   -1    0    0  501  502 -0.00000000000E+00 -0.00000000000E+00 -0.78389176069E+03  0.78389176069E+03  0.00000000000E+00 0. -1.
      99926    2    1    2    0    0  0.00000000000E+00  0.17763568394E-14 -0.72260522869E+03  0.84517829268E+03  0.43836974107E+03 0.  0.
      99925    2    3    3    0    0  0.48330070835E+02 -0.62594832481E+01 -0.30122759877E+03  0.40293221641E+03  0.26313746955E+03 0.  0.
         25    1    4    4    0    0  0.10828786503E+02 -0.16766755147E+02 -0.93904333919E+02  0.15768296904E+03  0.12509000000E+03 0.  0.
         25    1    3    3    0    0 -0.48330070835E+02  0.62594832481E+01 -0.42137762992E+03  0.44224607627E+03  0.12509000000E+03 0.  0.
         25    1    4    4    0    0  0.37501284333E+02  0.10507271899E+02 -0.20732326485E+03  0.24524924738E+03  0.12509000000E+03 0.  0.
<mgrwt>
<rscale>  2 0.43836974E+03</rscale>
<asrwt>0</asrwt>
<pdfrwt beam="1">  1       21 0.90127258E-02 0.43836974E+03</pdfrwt>
<pdfrwt beam="2">  1       21 0.11527819E+00 0.43836974E+03</pdfrwt>
<totfact> 0.52131305E+04</totfact>
</mgrwt>
</event>
<event>
 7    0  0.4752811E-002  0.4406146E+03  0.7546771E-02  0.1030558E+00
         21   -1    0    0  502  501  0.00000000000E+00  0.00000000000E+00  0.50938137111E+03  0.50938137111E+03  0.00000000000E+00 0.  1.
         21   -1    0    0  501  502 -0.00000000000E+00 -0.00000000000E+00 -0.95282833036E+02  0.95282833036E+02  0.00000000000E+00 0.  1.
      99926    2    1    2    0    0  0.35527136788E-14  0.00000000000E+00  0.41409853807E+03  0.60466420415E+03  0.44061457141E+03 0.  0.
      99925    2    3    3    0    0 -0.22275601378E+02  0.64652759020E+02  0.36285084532E+03  0.45317157800E+03  0.26273096789E+03 0.  0.
         25    1    4    4    0    0 -0.26236203388E+02  0.40474083084E+02  0.12491013902E+03  0.18323902614E+03  0.12509000000E+03 0.  0.
         25    1    3    3    0    0  0.22275601378E+02 -0.64652759020E+02  0.51247692753E+02  0.15149262615E+03  0.12509000000E+03 0.  0.
         25    1    4    4    0    0  0.39606020101E+01  0.24178675936E+02  0.23794070630E+03  0.26993255186E+03  0.12509000000E+03 0.  0.
<mgrwt>
<rscale>  2 0.44061457E+03</rscale>
<asrwt>0</asrwt>
<pdfrwt beam="1">  1       21 0.74909024E-01 0.44061457E+03</pdfrwt>
<pdfrwt beam="2">  1       21 0.14012182E-01 0.44061457E+03</pdfrwt>
<totfact> 0.65527035E+04</totfact>
</mgrwt>
</event>
<event>
 7    0  0.4752811E-002  0.4577225E+03  0.7546771E-02  0.1025444E+00
         21   -1    0    0  502  501  0.00000000000E+00  0.00000000000E+00  0.10383466048E+03  0.10383466048E+03  0.00000000000E+00 0.  1.
         21   -1    0    0  501  502 -0.00000000000E+00 -0.00000000000E+00 -0.50443148792E+03  0.50443148792E+03  0.00000000000E+00 0.  1.
      99926    2    1    2    0    0  0.44408920985E-15  0.00000000000E+00 -0.40059682744E+03  0.60826614840E+03  0.45772250233E+03 0.  0.
      99925    2    3    3    0    0  0.33719754854E+01  0.66967785084E+02 -0.12615594309E+03  0.29929792745E+03  0.26299785729E+03 0.  0.
         25    1    4    4    0    0  0.11014460736E+02 -0.71443652353E+01 -0.60929842769E+02  0.13975805572E+03  0.12509000000E+03 0.  0.
         25    1    3    3    0    0 -0.33719754854E+01 -0.66967785084E+02 -0.27444088435E+03  0.30896822096E+03  0.12509000000E+03 0.  0.
         25    1    4    4    0    0 -0.76424852511E+01  0.74112150319E+02 -0.65226100320E+02  0.15953987172E+03  0.12509000000E+03 0.  0.
<mgrwt>
<rscale>  2 0.45772250E+03</rscale>
<asrwt>0</asrwt>
<pdfrwt beam="1">  1       21 0.15269803E-01 0.45772250E+03</pdfrwt>
<pdfrwt beam="2">  1       21 0.74181100E-01 0.45772250E+03</pdfrwt>
<totfact> 0.56937892E+04</totfact>
</mgrwt>
</event>
<event>
 7    0  0.4752811E-002  0.4544567E+03  0.7546771E-02  0.1026401E+00
         21   -1    0    0  502  501  0.00000000000E+00  0.00000000000E+00  0.25479852938E+03  0.25479852938E+03  0.00000000000E+00 0. -1.
         21   -1    0    0  501  502 -0.00000000000E+00 -0.00000000000E+00 -0.20264141155E+03  0.20264141155E+03  0.00000000000E+00 0. -1.
      99926    2    1    2    0    0  0.00000000000E+00  0.00000000000E+00  0.52157117825E+02  0.45743994093E+03  0.45445674670E+03 0.  0.
      99925    2    3    3    0    0 -0.79962131829E+02 -0.15343215719E+02 -0.46633306292E+02  0.27845275482E+03  0.26216772230E+03 0.  0.
         25    1    4    4    0    0 -0.56991005327E+02  0.20396273833E+02 -0.19066603199E+01  0.13897886936E+03  0.12509000000E+03 0.  0.
         25    1    4    4    0    0 -0.22971126501E+02 -0.35739489552E+02 -0.44726645972E+02  0.13947388546E+03  0.12509000000E+03 0.  0.
         25    1    3    3    0    0  0.79962131829E+02  0.15343215719E+02  0.98790424117E+02  0.17898718611E+03  0.12509000000E+03 0.  0.
<mgrwt>
<rscale>  2 0.45445675E+03</rscale>
<asrwt>0</asrwt>
<pdfrwt beam="1">  1       21 0.37470372E-01 0.45445675E+03</pdfrwt>
<pdfrwt beam="2">  1       21 0.29800207E-01 0.45445675E+03</pdfrwt>
<totfact> 0.68664462E+04</totfact>
</mgrwt>
</event>
<event>
 7    0  0.4752811E-002  0.4594585E+03  0.7546771E-02  0.1024938E+00
         21   -1    0    0  502  501  0.00000000000E+00  0.00000000000E+00  0.19817260912E+03  0.19817260912E+03  0.00000000000E+00 0.  1.
         21   -1    0    0  501  502 -0.00000000000E+00 -0.00000000000E+00 -0.26631094974E+03  0.26631094974E+03  0.00000000000E+00 0.  1.
      99926    2    1    2    0    0  0.00000000000E+00  0.00000000000E+00 -0.68138340614E+02  0.46448355886E+03  0.45945853240E+03 0.  0.
      99925    2    3    3    0    0  0.69959244138E+02 -0.43125890436E+02  0.41878422974E+02  0.27872744285E+03  0.26302290170E+03 0.  0.
         25    1    3    3    0    0 -0.69959244138E+02  0.43125890436E+02 -0.11001676359E+03  0.18575611601E+03  0.12509000000E+03 0.  0.
         25    1    4    4    0    0  0.57284363454E+02  0.74709646226E+01  0.33423671662E+01  0.13782595230E+03  0.12509000000E+03 0.  0.
         25    1    4    4    0    0  0.12674880684E+02 -0.50596855059E+02  0.38536055808E+02  0.14090149055E+03  0.12509000000E+03 0.  0.
<mgrwt>
<rscale>  2 0.45945853E+03</rscale>
<asrwt>0</asrwt>
<pdfrwt beam="1">  1       21 0.29143031E-01 0.45945853E+03</pdfrwt>
<pdfrwt beam="2">  1       21 0.39163375E-01 0.45945853E+03</pdfrwt>
<totfact> 0.65495180E+04</totfact>
</mgrwt>
</event>
<event>
 7    0  0.4752811E-002  0.4536019E+03  0.7546771E-02  0.1026653E+00
         21   -1    0    0  502  501  0.00000000000E+00  0.00000000000E+00  0.23422079898E+03  0.23422079898E+03  0.00000000000E+00 0.  1.
         21   -1    0    0  501  502 -0.00000000000E+00 -0.00000000000E+00 -0.21961618921E+03  0.21961618921E+03  0.00000000000E+00 0.  1.
      99926    2    1    2    0    0 -0.71054273576E-14  0.00000000000E+00  0.14604609772E+02  0.45383698819E+03  0.45360193697E+03 0.  0.
      99925    2    3    3    0    0 -0.53180610309E+02 -0.21471495783E+02 -0.86927010292E+02  0.28282418043E+03  0.26295248520E+03 0.  0.
         25    1    4    4    0    0  0.81500923110E+01 -0.22659692010E+02 -0.60480442488E+02  0.14101516823E+03  0.12509000000E+03 0.  0.
         25    1    4    4    0    0 -0.61330702620E+02  0.11881962267E+01 -0.26446567804E+02  0.14180901221E+03  0.12509000000E+03 0.  0.
         25    1    3    3    0    0  0.53180610309E+02  0.21471495783E+02  0.10153162006E+03  0.17101280776E+03  0.12509000000E+03 0.  0.
<mgrwt>
<rscale>  2 0.45360194E+03</rscale>
<asrwt>0</asrwt>
<pdfrwt beam="1">  1       21 0.34444235E-01 0.45360194E+03</pdfrwt>
<pdfrwt beam="2">  1       21 0.32296499E-01 0.45360194E+03</pdfrwt>
<totfact> 0.69402047E+04</totfact>
</mgrwt>
</event>
<event>
 7    0  0.4752811E-002  0.4544151E+03  0.7546771E-02  0.1026414E+00
         21   -1    0    0  502  501  0.00000000000E+00  0.00000000000E+00  0.86869034832E+03  0.86869034832E+03  0.00000000000E+00 0. -1.
         21   -1    0    0  501  502 -0.00000000000E+00 -0.00000000000E+00 -0.59426551974E+02  0.59426551974E+02  0.00000000000E+00 0. -1.
      99926    2    1    2    0    0  0.00000000000E+00  0.00000000000E+00  0.80926379635E+03  0.92811690030E+03  0.45441510597E+03 0.  0.
      99925    2    3    3    0    0  0.44411199915E+02  0.18344029083E+02  0.30153150616E+03  0.40299934709E+03  0.26301780638E+03 0.  0.
         25    1    4    4    0    0  0.37219671056E+02  0.41329613303E+02  0.12555996544E+03  0.18575859030E+03  0.12509000000E+03 0.  0.
         25    1    4    4    0    0  0.71915288594E+01 -0.22985584221E+02  0.17597154071E+03  0.21724075679E+03  0.12509000000E+03 0.  0.
         25    1    3    3    0    0 -0.44411199915E+02 -0.18344029083E+02  0.50773229019E+03  0.52511755321E+03  0.12509000000E+03 0.  0.
<mgrwt>
<rscale>  2 0.45441511E+03</rscale>
<asrwt>0</asrwt>
<pdfrwt beam="1">  1       21 0.12774857E+00 0.45441511E+03</pdfrwt>
<pdfrwt beam="2">  1       21 0.87391994E-02 0.45441511E+03</pdfrwt>
<totfact> 0.42232771E+04</totfact>
</mgrwt>
</event>
<event>
 7    0  0.4752811E-002  0.4770778E+03  0.7546771E-02  0.1019941E+00
         21   -1    0    0  502  501  0.00000000000E+00  0.00000000000E+00  0.75153410222E+03  0.75153410222E+03  0.00000000000E+00 0.  1.
         21   -1    0    0  501  502 -0.00000000000E+00 -0.00000000000E+00 -0.75712881475E+02  0.75712881475E+02  0.00000000000E+00 0.  1.
      99926    2    1    2    0    0  0.00000000000E+00  0.14210854715E-13  0.67582122075E+03  0.82724698370E+03  0.47707782345E+03 0.  0.
      99925    2    3    3    0    0 -0.33646321491E+02  0.70327284139E+02  0.23107207829E+03  0.35870956827E+03  0.26305939853E+03 0.  0.
         25    1    4    4    0    0 -0.42515622005E+02  0.58512549073E+02  0.15334954977E+03  0.21070094691E+03  0.12509000000E+03 0.  0.
         25    1    3    3    0    0  0.33646321491E+02 -0.70327284139E+02  0.44474914246E+03  0.46853741543E+03  0.12509000000E+03 0.  0.
         25    1    4    4    0    0  0.88693005144E+01  0.11814735066E+02  0.77722528524E+02  0.14800862136E+03  0.12509000000E+03 0.  0.
<mgrwt>
<rscale>  2 0.47707782E+03</rscale>
<asrwt>0</asrwt>
<pdfrwt beam="1">  1       21 0.11051972E+00 0.47707782E+03</pdfrwt>
<pdfrwt beam="2">  1       21 0.11134248E-01 0.47707782E+03</pdfrwt>
<totfact> 0.39225426E+04</totfact>
</mgrwt>
</event>
<event>
 7    0  0.4752811E-002  0.4654509E+03  0.7546771E-02  0.1023212E+00
         21   -1    0    0  502  501  0.00000000000E+00  0.00000000000E+00  0.14244954568E+03  0.14244954568E+03  0.00000000000E+00 0.  1.
         21   -1    0    0  501  502 -0.00000000000E+00 -0.00000000000E+00 -0.38021274601E+03  0.38021274601E+03  0.00000000000E+00 0.  1.
      99926    2    1    2    0    0  0.00000000000E+00  0.00000000000E+00 -0.23776320033E+03  0.52266229168E+03  0.46545089077E+03 0.  0.
      99925    2    3    3    0    0 -0.12187924298E+02  0.39532465094E+02 -0.27797471173E+03  0.38490948756E+03  0.26300952826E+03 0.  0.
         25    1    4    4    0    0  0.76792885573E+01  0.83631899073E+01 -0.18931797995E+03  0.22719533457E+03  0.12509000000E+03 0.  0.
         25    1    4    4    0    0 -0.19867212855E+02  0.31169275187E+02 -0.88656731779E+02  0.15771415299E+03  0.12509000000E+03 0.  0.
         25    1    3    3    0    0  0.12187924298E+02 -0.39532465094E+02  0.40211511401E+02  0.13775280412E+03  0.12509000000E+03 0.  0.
<mgrwt>
<rscale>  2 0.46545089E+03</rscale>
<asrwt>0</asrwt>
<pdfrwt beam="1">  1       21 0.20948463E-01 0.46545089E+03</pdfrwt>
<pdfrwt beam="2">  1       21 0.55913638E-01 0.46545089E+03</pdfrwt>
<totfact> 0.58686581E+04</totfact>
</mgrwt>
</event>
<event>
 7    0  0.4752811E-002  0.4556291E+03  0.7546771E-02  0.1026057E+00
         21   -1    0    0  502  501  0.00000000000E+00  0.00000000000E+00  0.85894847722E+02  0.85894847722E+02  0.00000000000E+00 0. -1.
         21   -1    0    0  501  502 -0.00000000000E+00 -0.00000000000E+00 -0.60422089551E+03  0.60422089551E+03  0.00000000000E+00 0. -1.
      99926    2    1    2    0    0  0.00000000000E+00  0.00000000000E+00 -0.51832604779E+03  0.69011574323E+03  0.45562906760E+03 0.  0.
      99925    2    3    3    0    0 -0.33009326288E+02  0.10440122384E+03 -0.37185995914E+03  0.46855524498E+03  0.26320136251E+03 0.  0.
         25    1    4    4    0    0 -0.10358127618E+02  0.95240080926E+02 -0.21008781304E+03  0.26260685656E+03  0.12509000000E+03 0.  0.
         25    1    4    4    0    0 -0.22651198671E+02  0.91611429148E+01 -0.16177214610E+03  0.20594838842E+03  0.12509000000E+03 0.  0.
         25    1    3    3    0    0  0.33009326288E+02 -0.10440122384E+03 -0.14646608865E+03  0.22156049825E+03  0.12509000000E+03 0.  0.
<mgrwt>
<rscale>  2 0.45562907E+03</rscale>
<asrwt>0</asrwt>
<pdfrwt beam="1">  1       21 0.12631595E-01 0.45562907E+03</pdfrwt>
<pdfrwt beam="2">  1       21 0.88856018E-01 0.45562907E+03</pdfrwt>
<totfact> 0.53179169E+04</totfact>
</mgrwt>
</event>
<event>
 7    0  0.4752811E-002  0.4677126E+03  0.7546771E-02  0.1022568E+00
         21   -1    0    0  502  501  0.00000000000E+00  0.00000000000E+00  0.20507038951E+04  0.20507038951E+04  0.00000000000E+00 0. -1.
         21   -1    0    0  501  502 -0.00000000000E+00 -0.00000000000E+00 -0.26668296068E+02  0.26668296068E+02  0.00000000000E+00 0. -1.
      99926    2    1    2    0    0  0.00000000000E+00  0.00000000000E+00  0.20240355990E+04  0.20773721911E+04  0.46771264093E+03 0.  0.
      99925    2    3    3    0    0 -0.17798840826E+02 -0.45892938004E+02  0.17686118326E+04  0.17887344094E+04  0.26298291304E+03 0.  0.
         25    1    4    4    0    0 -0.13568125716E+02 -0.11141071885E+02  0.61540178161E+03  0.62823170759E+03  0.12509000000E+03 0.  0.
         25    1    3    3    0    0  0.17798840826E+02  0.45892938004E+02  0.25542376645E+03  0.28863778176E+03  0.12509000000E+03 0.  0.
         25    1    4    4    0    0 -0.42307151104E+01 -0.34751866120E+02  0.11532100509E+04  0.11605027018E+04  0.12509000000E+03 0.  0.
<mgrwt>
<rscale>  2 0.46771264E+03</rscale>
<asrwt>0</asrwt>
<pdfrwt beam="1">  1       21 0.30157399E+00 0.46771264E+03</pdfrwt>
<pdfrwt beam="2">  1       21 0.39218096E-02 0.46771264E+03</pdfrwt>
<totfact> 0.11327666E+04</totfact>
</mgrwt>
</event>
<event>
 7    0  0.4752811E-002  0.4537434E+03  0.7546771E-02  0.1026612E+00
         21   -1    0    0  502  501  0.00000000000E+00  0.00000000000E+00  0.21286396485E+03  0.21286396485E+03  0.00000000000E+00 0. -1.
         21   -1    0    0  501  502 -0.00000000000E+00 -0.00000000000E+00 -0.24180123115E+03  0.24180123115E+03  0.00000000000E+00 0. -1.
      99926    2    1    2    0    0 -0.71054273576E-14  0.35527136788E-14 -0.28937266299E+02  0.45466519600E+03  0.45374340223E+03 0.  0.
      99925    2    3    3    0    0  0.61996537147E+02 -0.14883872570E+02 -0.11042882790E+03  0.29232763721E+03  0.26305098586E+03 0.  0.
         25    1    4    4    0    0  0.66544995273E+02  0.79495942035E+01 -0.42757371823E+02  0.14821313501E+03  0.12509000000E+03 0.  0.
         25    1    3    3    0    0 -0.61996537147E+02  0.14883872570E+02  0.81491561605E+02  0.16233755879E+03  0.12509000000E+03 0.  0.
         25    1    4    4    0    0 -0.45484581264E+01 -0.22833466773E+02 -0.67671456081E+02  0.14411450220E+03  0.12509000000E+03 0.  0.
<mgrwt>
<rscale>  2 0.45374340E+03</rscale>
<asrwt>0</asrwt>
<pdfrwt beam="1">  1       21 0.31303525E-01 0.45374340E+03</pdfrwt>
<pdfrwt beam="2">  1       21 0.35559004E-01 0.45374340E+03</pdfrwt>
<totfact> 0.69262194E+04</totfact>
</mgrwt>
</event>
<event>
 7    0  0.4752811E-002  0.4390471E+03  0.7546771E-02  0.1031040E+00
         21   -1    0    0  502  501  0.00000000000E+00  0.00000000000E+00  0.27844756875E+03  0.27844756875E+03  0.00000000000E+00 0.  1.
         21   -1    0    0  501  502 -0.00000000000E+00 -0.00000000000E+00 -0.17306880194E+03  0.17306880194E+03  0.00000000000E+00 0.  1.
      99926    2    1    2    0    0  0.00000000000E+00 -0.71054273576E-14  0.10537876681E+03  0.45151637070E+03  0.43904709145E+03 0.  0.
      99925    2    3    3    0    0  0.27391576869E+02  0.56391146444E+02  0.14405555722E+03  0.30634866734E+03  0.26299665880E+03 0.  0.
         25    1    3    3    0    0 -0.27391576869E+02 -0.56391146444E+02 -0.38676790402E+02  0.14516770335E+03  0.12509000000E+03 0.  0.
         25    1    4    4    0    0  0.21298916249E+02 -0.10977862533E+02  0.56380414611E+02  0.13928537809E+03  0.12509000000E+03 0.  0.
         25    1    4    4    0    0  0.60926606196E+01  0.67369008977E+02  0.87675142605E+02  0.16706328925E+03  0.12509000000E+03 0.  0.
<mgrwt>
<rscale>  2 0.43904709E+03</rscale>
<asrwt>0</asrwt>
<pdfrwt beam="1">  1       21 0.40948172E-01 0.43904709E+03</pdfrwt>
<pdfrwt beam="2">  1       21 0.25451294E-01 0.43904709E+03</pdfrwt>
<totfact> 0.78281894E+04</totfact>
</mgrwt>
</event>
<event>
 7    0  0.4752811E-002  0.4543069E+03  0.7546771E-02  0.1026445E+00
         21   -1    0    0  502  501  0.00000000000E+00  0.00000000000E+00  0.55574997083E+03  0.55574997083E+03  0.00000000000E+00 0.  1.
         21   -1    0    0  501  502 -0.00000000000E+00 -0.00000000000E+00 -0.92845163232E+02  0.92845163232E+02  0.00000000000E+00 0.  1.
      99926    2    1    2    0    0  0.14210854715E-13  0.00000000000E+00  0.46290480760E+03  0.64859513406E+03  0.45430693042E+03 0.  0.
      99925    2    3    3    0    0  0.82173927236E+02 -0.74196278359E+02  0.31999953960E+03  0.42876095619E+03  0.26301826965E+03 0.  0.
         25    1    4    4    0    0  0.56971660561E+02 -0.42869031132E+02  0.22299698032E+03  0.26544054941E+03  0.12509000000E+03 0.  0.
         25    1    4    4    0    0  0.25202266675E+02 -0.31327247227E+02  0.97002559275E+02  0.16332040678E+03  0.12509000000E+03 0.  0.
         25    1    3    3    0    0 -0.82173927236E+02  0.74196278359E+02  0.14290526800E+03  0.21983417787E+03  0.12509000000E+03 0.  0.
<mgrwt>
<rscale>  2 0.45430693E+03</rscale>
<asrwt>0</asrwt>
<pdfrwt beam="1">  1       21 0.81727935E-01 0.45430693E+03</pdfrwt>
<pdfrwt beam="2">  1       21 0.13653701E-01 0.45430693E+03</pdfrwt>
<totfact> 0.56088550E+04</totfact>
</mgrwt>
</event>
<event>
 7    0  0.4752811E-002  0.4527133E+03  0.7546771E-02  0.1026916E+00
         21   -1    0    0  502  501  0.00000000000E+00  0.00000000000E+00  0.97452236173E+03  0.97452236173E+03  0.00000000000E+00 0.  1.
         21   -1    0    0  501  502 -0.00000000000E+00 -0.00000000000E+00 -0.52576864722E+02  0.52576864722E+02  0.00000000000E+00 0.  1.
      99926    2    1    2    0    0  0.17763568394E-14 -0.14210854715E-13  0.92194549700E+03  0.10270992264E+04  0.45271328844E+03 0.  0.
      99925    2    3    3    0    0 -0.79358529614E+01 -0.10254506389E+03  0.67605441923E+03  0.73267029085E+03  0.26301655735E+03 0.  0.
         25    1    4    4    0    0  0.21413605701E+02 -0.83974211488E+02  0.38447955776E+03  0.41349999896E+03  0.12509000000E+03 0.  0.
         25    1    4    4    0    0 -0.29349458662E+02 -0.18570852402E+02  0.29157486148E+03  0.31917029189E+03  0.12509000000E+03 0.  0.
         25    1    3    3    0    0  0.79358529614E+01  0.10254506389E+03  0.24589107777E+03  0.29442893560E+03  0.12509000000E+03 0.  0.
<mgrwt>
<rscale>  2 0.45271329E+03</rscale>
<asrwt>0</asrwt>
<pdfrwt beam="1">  1       21 0.14331210E+00 0.45271329E+03</pdfrwt>
<pdfrwt beam="2">  1       21 0.77318925E-02 0.45271329E+03</pdfrwt>
<totfact> 0.38817457E+04</totfact>
</mgrwt>
</event>
<event>
 7    0  0.4752811E-002  0.4565583E+03  0.7546771E-02  0.1025784E+00
         21   -1    0    0  502  501  0.00000000000E+00  0.00000000000E+00  0.29682833809E+03  0.29682833809E+03  0.00000000000E+00 0.  1.
         21   -1    0    0  501  502 -0.00000000000E+00 -0.00000000000E+00 -0.17556066595E+03  0.17556066595E+03  0.00000000000E+00 0.  1.
      99926    2    1    2    0    0  0.48849813084E-14  0.00000000000E+00  0.12126767213E+03  0.47238900404E+03  0.45655834549E+03 0.  0.
      99925    2    3    3    0    0 -0.26451851597E+01 -0.65345203463E+02  0.17354194969E+03  0.32186624558E+03  0.26306668190E+03 0.  0.
         25    1    4    4    0    0 -0.36351029852E+02 -0.39455413902E+02  0.64756110335E+02  0.15072819571E+03  0.12509000000E+03 0.  0.
         25    1    3    3    0    0  0.26451851597E+01  0.65345203463E+02 -0.52274277553E+02  0.15052275846E+03  0.12509000000E+03 0.  0.
         25    1    4    4    0    0  0.33705844692E+02 -0.25889789561E+02  0.10878583935E+03  0.17113804987E+03  0.12509000000E+03 0.  0.
<mgrwt>
<rscale>  2 0.45655835E+03</rscale>
<asrwt>0</asrwt>
<pdfrwt beam="1">  1       21 0.43651226E-01 0.45655835E+03</pdfrwt>
<pdfrwt beam="2">  1       21 0.25817745E-01 0.45655835E+03</pdfrwt>
<totfact> 0.66433326E+04</totfact>
</mgrwt>
</event>
<event>
 7    0  0.4752811E-002  0.4658452E+03  0.7546771E-02  0.1023099E+00
         21   -1    0    0  502  501  0.00000000000E+00  0.00000000000E+00  0.17435254566E+04  0.17435254566E+04  0.00000000000E+00 0. -1.
         21   -1    0    0  501  502 -0.00000000000E+00 -0.00000000000E+00 -0.31116806798E+02  0.31116806798E+02  0.00000000000E+00 0. -1.
      99926    2    1    2    0    0  0.00000000000E+00  0.00000000000E+00  0.17124086498E+04  0.17746422634E+04  0.46584523087E+03 0.  0.
      99925    2    3    3    0    0 -0.45777070236E+02 -0.65709806855E+02  0.71318987303E+03  0.76444476250E+03  0.26329200717E+03 0.  0.
         25    1    3    3    0    0  0.45777070236E+02  0.65709806855E+02  0.99921877680E+03  0.10101975009E+04  0.12509000000E+03 0.  0.
         25    1    4    4    0    0 -0.45532614233E+02 -0.23320972941E+02  0.26909707433E+03  0.30112759796E+03  0.12509000000E+03 0.  0.
         25    1    4    4    0    0 -0.24445600329E+00 -0.42388833914E+02  0.44409279870E+03  0.46331716454E+03  0.12509000000E+03 0.  0.
<mgrwt>
<rscale>  2 0.46584523E+03</rscale>
<asrwt>0</asrwt>
<pdfrwt beam="1">  1       21 0.25640074E+00 0.46584523E+03</pdfrwt>
<pdfrwt beam="2">  1       21 0.45760022E-02 0.46584523E+03</pdfrwt>
<totfact> 0.16332784E+04</totfact>
</mgrwt>
</event>
<event>
 6    0  0.4752811E-002  0.4599272E+03  0.7546771E-02  0.1024802E+00
         21   -1    0    0  502  501  0.00000000000E+00  0.00000000000E+00  0.11297580949E+04  0.11297580949E+04  0.00000000000E+00 0.  1.
         21   -1    0    0  501  502 -0.00000000000E+00 -0.00000000000E+00 -0.46809355562E+02  0.46809355562E+02  0.00000000000E+00 0.  1.
      99926    2    1    2    0    0 -0.14210854715E-13  0.00000000000E+00  0.10829487394E+04  0.11765674505E+04  0.45992716103E+03 0.  0.
         25    1    3    3    0    0 -0.76067127990E+02 -0.40880691933E+02  0.37503198864E+03  0.40466521909E+03  0.12509000000E+03 0.  0.
         25    1    3    3    0    0  0.10793719739E+03  0.17691581236E+02  0.49169436048E+03  0.51901279643E+03  0.12509000000E+03 0.  0.
         25    1    3    3    0    0 -0.31870069402E+02  0.23189110697E+02  0.21622239023E+03  0.25288943496E+03  0.12509000000E+03 0.  0.
<mgrwt>
<rscale>  2 0.45992716E+03</rscale>
<asrwt>0</asrwt>
<pdfrwt beam="1">  1       21 0.16614088E+00 0.45992716E+03</pdfrwt>
<pdfrwt beam="2">  1       21 0.68837295E-02 0.45992716E+03</pdfrwt>
<totfact> 0.31674035E+04</totfact>
</mgrwt>
</event>
<event>
 7    0  0.4752811E-002  0.4520164E+03  0.7546771E-02  0.1027122E+00
         21   -1    0    0  502  501  0.00000000000E+00  0.00000000000E+00  0.11785592531E+04  0.11785592531E+04  0.00000000000E+00 0. -1.
         21   -1    0    0  501  502 -0.00000000000E+00 -0.00000000000E+00 -0.43340811298E+02  0.43340811298E+02  0.00000000000E+00 0. -1.
      99926    2    1    2    0    0  0.00000000000E+00  0.00000000000E+00  0.11352184418E+04  0.12219000644E+04  0.45201643418E+03 0.  0.
      99925    2    3    3    0    0  0.35419351405E+02 -0.82324927394E+02  0.54102936687E+03  0.60810849636E+03  0.26277603278E+03 0.  0.
         25    1    4    4    0    0  0.49285165331E+02 -0.26820938595E+02  0.22558383130E+03  0.26397720226E+03  0.12509000000E+03 0.  0.
         25    1    4    4    0    0 -0.13865813926E+02 -0.55503988799E+02  0.31544553557E+03  0.34413129410E+03  0.12509000000E+03 0.  0.
         25    1    3    3    0    0 -0.35419351405E+02  0.82324927394E+02  0.59418907493E+03  0.61379156804E+03  0.12509000000E+03 0.  0.
<mgrwt>
<rscale>  2 0.45201643E+03</rscale>
<asrwt>0</asrwt>
<pdfrwt beam="1">  1       21 0.17331752E+00 0.45201643E+03</pdfrwt>
<pdfrwt beam="2">  1       21 0.63736495E-02 0.45201643E+03</pdfrwt>
<totfact> 0.32211420E+04</totfact>
</mgrwt>
</event>
<event>
 7    0  0.4752811E-002  0.4570022E+03  0.7546771E-02  0.1025654E+00
         21   -1    0    0  502  501  0.00000000000E+00  0.00000000000E+00  0.85340108187E+02  0.85340108187E+02  0.00000000000E+00 0.  1.
         21   -1    0    0  501  502 -0.00000000000E+00 -0.00000000000E+00 -0.61181974100E+03  0.61181974100E+03  0.00000000000E+00 0.  1.
      99926    2    1    2    0    0  0.00000000000E+00  0.71054273576E-14 -0.52647963282E+03  0.69715984919E+03  0.45700224458E+03 0.  0.
      99925    2    3    3    0    0 -0.64289643522E+02 -0.43208558967E+02 -0.20105693155E+03  0.34002180804E+03  0.26304144615E+03 0.  0.
         25    1    4    4    0    0 -0.66923642350E+02 -0.22205048001E+02 -0.13453337259E+03  0.19677035982E+03  0.12509000000E+03 0.  0.
         25    1    4    4    0    0  0.26339988277E+01 -0.21003510966E+02 -0.66523558952E+02  0.14325144822E+03  0.12509000000E+03 0.  0.
         25    1    3    3    0    0  0.64289643522E+02  0.43208558967E+02 -0.32542270127E+03  0.35713804115E+03  0.12509000000E+03 0.  0.
<mgrwt>
<rscale>  2 0.45700224E+03</rscale>
<asrwt>0</asrwt>
<pdfrwt beam="1">  1       21 0.12550016E-01 0.45700224E+03</pdfrwt>
<pdfrwt beam="2">  1       21 0.89973492E-01 0.45700224E+03</pdfrwt>
<totfact> 0.52229501E+04</totfact>
</mgrwt>
</event>
<event>
 7    0  0.4752811E-002  0.4450975E+03  0.7546771E-02  0.1029194E+00
         21   -1    0    0  502  501  0.00000000000E+00  0.00000000000E+00  0.10303398358E+03  0.10303398358E+03  0.00000000000E+00 0.  1.
         21   -1    0    0  501  502 -0.00000000000E+00 -0.00000000000E+00 -0.48069530507E+03  0.48069530507E+03  0.00000000000E+00 0.  1.
      99926    2    1    2    0    0  0.00000000000E+00  0.00000000000E+00 -0.37766132149E+03  0.58372928864E+03  0.44509752714E+03 0.  0.
      99925    2    3    3    0    0  0.71427398784E+02 -0.25410901213E+02 -0.33221769948E+03  0.43056200076E+03  0.26318709970E+03 0.  0.
         25    1    3    3    0    0 -0.71427398784E+02  0.25410901213E+02 -0.45443622010E+02  0.15316728789E+03  0.12509000000E+03 0.  0.
         25    1    4    4    0    0  0.12685784381E+02 -0.10289532446E+02 -0.10473391186E+03  0.16396189800E+03  0.12509000000E+03 0.  0.
         25    1    4    4    0    0  0.58741614402E+02 -0.15121368767E+02 -0.22748378763E+03  0.26660010276E+03  0.12509000000E+03 0.  0.
<mgrwt>
<rscale>  2 0.44509753E+03</rscale>
<asrwt>0</asrwt>
<pdfrwt beam="1">  1       21 0.15152057E-01 0.44509753E+03</pdfrwt>
<pdfrwt beam="2">  1       21 0.70690486E-01 0.44509753E+03</pdfrwt>
<totfact> 0.64601239E+04</totfact>
</mgrwt>
</event>
<event>
 7    0  0.4752811E-002  0.4515120E+03  0.7546771E-02  0.1027272E+00
         21   -1    0    0  502  501  0.00000000000E+00  0.00000000000E+00  0.45655610955E+02  0.45655610955E+02  0.00000000000E+00 0.  1.
         21   -1    0    0  501  502 -0.00000000000E+00 -0.00000000000E+00 -0.11163091803E+04  0.11163091803E+04  0.00000000000E+00 0.  1.
      99926    2    1    2    0    0 -0.14210854715E-13  0.00000000000E+00 -0.10706535693E+04  0.11619647913E+04  0.45151202705E+03 0.  0.
      99925    2    3    3    0    0 -0.92747191526E+02  0.44818662735E+02 -0.77084912051E+03  0.82117017612E+03  0.26363106321E+03 0.  0.
         25    1    3    3    0    0  0.92747191526E+02 -0.44818662735E+02 -0.29980444884E+03  0.34079461514E+03  0.12509000000E+03 0.  0.
         25    1    4    4    0    0 -0.16619791691E+02  0.29421288803E+02 -0.27641896701E+03  0.30528148180E+03  0.12509000000E+03 0.  0.
         25    1    4    4    0    0 -0.76127399834E+02  0.15397373932E+02 -0.49443015351E+03  0.51588869432E+03  0.12509000000E+03 0.  0.
<mgrwt>
<rscale>  2 0.45151203E+03</rscale>
<asrwt>0</asrwt>
<pdfrwt beam="1">  1       21 0.67140603E-02 0.45151203E+03</pdfrwt>
<pdfrwt beam="2">  1       21 0.16416312E+00 0.45151203E+03</pdfrwt>
<totfact> 0.34308480E+04</totfact>
</mgrwt>
</event>
<event>
 7    0  0.4752811E-002  0.4533816E+03  0.7546771E-02  0.1026718E+00
         21   -1    0    0  502  501  0.00000000000E+00  0.00000000000E+00  0.71815935124E+02  0.71815935124E+02  0.00000000000E+00 0.  1.
         21   -1    0    0  501  502 -0.00000000000E+00 -0.00000000000E+00 -0.71556154947E+03  0.71556154947E+03  0.00000000000E+00 0.  1.
      99926    2    1    2    0    0  0.00000000000E+00  0.88817841970E-15 -0.64374561434E+03  0.78737748459E+03  0.45338161327E+03 0.  0.
      99925    2    3    3    0    0 -0.22893027209E+00  0.51240680587E+01 -0.21269104571E+03  0.33851017934E+03  0.26329707957E+03 0.  0.
         25    1    3    3    0    0  0.22893027209E+00 -0.51240680587E+01 -0.43105456863E+03  0.44886730525E+03  0.12509000000E+03 0.  0.
         25    1    4    4    0    0  0.20835921973E+02 -0.62233789627E+01 -0.15011866144E+03  0.19661125783E+03  0.12509000000E+03 0.  0.
         25    1    4    4    0    0 -0.21064852245E+02  0.11347447021E+02 -0.62572384263E+02  0.14189892151E+03  0.12509000000E+03 0.  0.
<mgrwt>
<rscale>  2 0.45338161E+03</rscale>
<asrwt>0</asrwt>
<pdfrwt beam="1">  1       21 0.10561167E-01 0.45338161E+03</pdfrwt>
<pdfrwt beam="2">  1       21 0.10522964E+00 0.45338161E+03</pdfrwt>
<totfact> 0.49000891E+04</totfact>
</mgrwt>
</event>
<event>
 7    0  0.4752811E-002  0.4672121E+03  0.7546771E-02  0.1022710E+00
         21   -1    0    0  502  501  0.00000000000E+00  0.00000000000E+00  0.13232382280E+03  0.13232382280E+03  0.00000000000E+00 0.  1.
         21   -1    0    0  501  502 -0.00000000000E+00 -0.00000000000E+00 -0.41241082317E+03  0.41241082317E+03  0.00000000000E+00 0.  1.
      99926    2    1    2    0    0 -0.14210854715E-13  0.00000000000E+00 -0.28008700037E+03  0.54473464597E+03  0.46721205758E+03 0.  0.
      99925    2    3    3    0    0 -0.74805208245E+02 -0.23551795165E+01 -0.29015359720E+03  0.39861753362E+03  0.26287917774E+03 0.  0.
         25    1    4    4    0    0 -0.34328526264E+02  0.32636290995E+02 -0.11201204433E+03  0.17446426964E+03  0.12509000000E+03 0.  0.
         25    1    4    4    0    0 -0.40476681980E+02 -0.34991470512E+02 -0.17814155287E+03  0.22415326398E+03  0.12509000000E+03 0.  0.
         25    1    3    3    0    0  0.74805208245E+02  0.23551795165E+01  0.10066596837E+02  0.14611711235E+03  0.12509000000E+03 0.  0.
<mgrwt>
<rscale>  2 0.46721206E+03</rscale>
<asrwt>0</asrwt>
<pdfrwt beam="1">  1       21 0.19459386E-01 0.46721206E+03</pdfrwt>
<pdfrwt beam="2">  1       21 0.60648651E-01 0.46721206E+03</pdfrwt>
<totfact> 0.56546305E+04</totfact>
</mgrwt>
</event>
<event>
 7    0  0.4752811E-002  0.4529050E+03  0.7546771E-02  0.1026859E+00
         21   -1    0    0  502  501  0.00000000000E+00  0.00000000000E+00  0.68021186396E+02  0.68021186396E+02  0.00000000000E+00 0. -1.
         21   -1    0    0  501  502 -0.00000000000E+00 -0.00000000000E+00 -0.75389365229E+03  0.75389365229E+03  0.00000000000E+00 0. -1.
      99926    2    1    2    0    0  0.00000000000E+00  0.00000000000E+00 -0.68587246589E+03  0.82191483868E+03  0.45290502600E+03 0.  0.
      99925    2    3    3    0    0 -0.10794828096E+03  0.50665471227E+01 -0.38348170914E+03  0.47729014553E+03  0.26281012254E+03 0.  0.
         25    1    4    4    0    0 -0.74794007737E+02 -0.27189554200E+02 -0.16994899166E+03  0.22552956196E+03  0.12509000000E+03 0.  0.
         25    1    3    3    0    0  0.10794828096E+03 -0.50665471227E+01 -0.30239075675E+03  0.34462469315E+03  0.12509000000E+03 0.  0.
         25    1    4    4    0    0 -0.33154273227E+02  0.32256101323E+02 -0.21353271748E+03  0.25176058357E+03  0.12509000000E+03 0.  0.
<mgrwt>
<rscale>  2 0.45290503E+03</rscale>
<asrwt>0</asrwt>
<pdfrwt beam="1">  1       21 0.10003115E-01 0.45290503E+03</pdfrwt>
<pdfrwt beam="2">  1       21 0.11086672E+00 0.45290503E+03</pdfrwt>
<totfact> 0.47499022E+04</totfact>
</mgrwt>
</event>
<event>
 7    0  0.4752811E-002  0.4617913E+03  0.7546771E-02  0.1024263E+00
         21   -1    0    0  502  501  0.00000000000E+00  0.00000000000E+00  0.22646639504E+03  0.22646639504E+03  0.00000000000E+00 0. -1.
         21   -1    0    0  501  502 -0.00000000000E+00 -0.00000000000E+00 -0.23541148665E+03  0.23541148665E+03  0.00000000000E+00 0. -1.
      99926    2    1    2    0    0  0.71054273576E-14  0.00000000000E+00 -0.89450916103E+01  0.46187788169E+03  0.46179125472E+03 0.  0.
      99925    2    3    3    0    0 -0.32505882235E+02  0.47011679563E+02  0.99304667430E+02  0.28685717198E+03  0.26298077829E+03 0.  0.
         25    1    3    3    0    0  0.32505882235E+02 -0.47011679563E+02 -0.10824975904E+03  0.17502070971E+03  0.12509000000E+03 0.  0.
         25    1    4    4    0    0 -0.35363909432E+02  0.30358029928E+02  0.13376208482E+02  0.13415903669E+03  0.12509000000E+03 0.  0.
         25    1    4    4    0    0  0.28580271973E+01  0.16653649636E+02  0.85928458949E+02  0.15269813530E+03  0.12509000000E+03 0.  0.
<mgrwt>
<rscale>  2 0.46179125E+03</rscale>
<asrwt>0</asrwt>
<pdfrwt beam="1">  1       21 0.33303882E-01 0.46179125E+03</pdfrwt>
<pdfrwt beam="2">  1       21 0.34619336E-01 0.46179125E+03</pdfrwt>
<totfact> 0.64479412E+04</totfact>
</mgrwt>
</event>
<event>
 7    0  0.4752811E-002  0.4576153E+03  0.7546771E-02  0.1025475E+00
         21   -1    0    0  502  501  0.00000000000E+00  0.00000000000E+00  0.14559401380E+03  0.14559401380E+03  0.00000000000E+00 0. -1.
         21   -1    0    0  501  502 -0.00000000000E+00 -0.00000000000E+00 -0.35958174102E+03  0.35958174102E+03  0.00000000000E+00 0. -1.
      99926    2    1    2    0    0  0.00000000000E+00  0.17763568394E-14 -0.21398772722E+03  0.50517575482E+03  0.45761533613E+03 0.  0.
      99925    2    3    3    0    0  0.43619333910E+02 -0.50506125818E+01 -0.15618432030E+02  0.26658396881E+03  0.26247842203E+03 0.  0.
         25    1    4    4    0    0  0.15775683668E+02 -0.37677308781E+02  0.96825593671E+01  0.13194586711E+03  0.12509000000E+03 0.  0.
         25    1    3    3    0    0 -0.43619333910E+02  0.50506125818E+01 -0.19836929519E+03  0.23859178601E+03  0.12509000000E+03 0.  0.
         25    1    4    4    0    0  0.27843650242E+02  0.32626696199E+02 -0.25300991397E+02  0.13463810170E+03  0.12509000000E+03 0.  0.
<mgrwt>
<rscale>  2 0.45761534E+03</rscale>
<asrwt>0</asrwt>
<pdfrwt beam="1">  1       21 0.21410884E-01 0.45761534E+03</pdfrwt>
<pdfrwt beam="2">  1       21 0.52879668E-01 0.45761534E+03</pdfrwt>
<totfact> 0.63578430E+04</totfact>
</mgrwt>
</event>
<event>
 7    0  0.4752811E-002  0.4031475E+03  0.7546771E-02  0.1042695E+00
         21   -1    0    0  502  501  0.00000000000E+00  0.00000000000E+00  0.40160861404E+02  0.40160861404E+02  0.00000000000E+00 0. -1.
         21   -1    0    0  501  502 -0.00000000000E+00 -0.00000000000E+00 -0.10117306941E+04  0.10117306941E+04  0.00000000000E+00 0. -1.
      99926    2    1    2    0    0 -0.44408920985E-15 -0.17763568394E-14 -0.97156983270E+03  0.10518915555E+04  0.40314749750E+03 0.  0.
      99925    2    3    3    0    0 -0.25735378637E+01 -0.11588348319E+02 -0.51536791317E+03  0.57870172849E+03  0.26296519107E+03 0.  0.
         25    1    4    4    0    0 -0.63860907550E+01 -0.27133707635E+02 -0.18475227372E+03  0.22485090836E+03  0.12509000000E+03 0.  0.
         25    1    3    3    0    0  0.25735378637E+01  0.11588348319E+02 -0.45620191953E+03  0.47318982702E+03  0.12509000000E+03 0.  0.
         25    1    4    4    0    0  0.38125528913E+01  0.15545359316E+02 -0.33061563946E+03  0.35385082014E+03  0.12509000000E+03 0.  0.
<mgrwt>
<rscale>  2 0.40314750E+03</rscale>
<asrwt>0</asrwt>
<pdfrwt beam="1">  1       21 0.59060096E-02 0.40314750E+03</pdfrwt>
<pdfrwt beam="2">  1       21 0.14878391E+00 0.40314750E+03</pdfrwt>
<totfact> 0.57021162E+04</totfact>
</mgrwt>
</event>
<event>
 7    0  0.4752811E-002  0.4363775E+03  0.7546771E-02  0.1031864E+00
         21   -1    0    0  502  501  0.00000000000E+00  0.00000000000E+00  0.85534508498E+03  0.85534508498E+03  0.00000000000E+00 0.  1.
         21   -1    0    0  501  502 -0.00000000000E+00 -0.00000000000E+00 -0.55657448390E+02  0.55657448390E+02  0.00000000000E+00 0.  1.
      99926    2    1    2    0    0  0.00000000000E+00 -0.71054273576E-14  0.79968763659E+03  0.91100253337E+03  0.43637747386E+03 0.  0.
      99925    2    3    3    0    0 -0.52700935569E+02  0.51490988335E+02  0.63592873284E+03  0.69215738915E+03  0.26314974372E+03 0.  0.
         25    1    4    4    0    0 -0.35307144866E+02 -0.45670841368E+01  0.37480171422E+03  0.39672570602E+03  0.12509000000E+03 0.  0.
         25    1    3    3    0    0  0.52700935569E+02 -0.51490988335E+02  0.16375890375E+03  0.21884514421E+03  0.12509000000E+03 0.  0.
         25    1    4    4    0    0 -0.17393790703E+02  0.56058072472E+02  0.26112701862E+03  0.29543168313E+03  0.12509000000E+03 0.  0.
<mgrwt>
<rscale>  2 0.43637747E+03</rscale>
<asrwt>0</asrwt>
<pdfrwt beam="1">  1       21 0.12578603E+00 0.43637747E+03</pdfrwt>
<pdfrwt beam="2">  1       21 0.81849194E-02 0.43637747E+03</pdfrwt>
<totfact> 0.49603420E+04</totfact>
</mgrwt>
</event>
<event>
 7    0  0.4752811E-002  0.4532763E+03  0.7546771E-02  0.1026750E+00
         21   -1    0    0  502  501  0.00000000000E+00  0.00000000000E+00  0.13210223576E+03  0.13210223576E+03  0.00000000000E+00 0.  1.
         21   -1    0    0  501  502 -0.00000000000E+00 -0.00000000000E+00 -0.38882649655E+03  0.38882649655E+03  0.00000000000E+00 0.  1.
      99926    2    1    2    0    0  0.00000000000E+00  0.14210854715E-13 -0.25672426079E+03  0.52092873230E+03  0.45327629329E+03 0.  0.
      99925    2    3    3    0    0  0.34430737038E+02  0.77441829778E+02 -0.24520371865E+03  0.36939344386E+03  0.26295235325E+03 0.  0.
         25    1    4    4    0    0  0.35151436300E+02  0.59930973168E+02 -0.89003783114E+02  0.16851268951E+03  0.12509000000E+03 0.  0.
         25    1    4    4    0    0 -0.72069926240E+00  0.17510856610E+02 -0.15619993553E+03  0.20088075435E+03  0.12509000000E+03 0.  0.
         25    1    3    3    0    0 -0.34430737038E+02 -0.77441829778E+02 -0.11520542144E+02  0.15153528844E+03  0.12509000000E+03 0.  0.
<mgrwt>
<rscale>  2 0.45327629E+03</rscale>
<asrwt>0</asrwt>
<pdfrwt beam="1">  1       21 0.19426800E-01 0.45327629E+03</pdfrwt>
<pdfrwt beam="2">  1       21 0.57180366E-01 0.45327629E+03</pdfrwt>
<totfact> 0.64704306E+04</totfact>
</mgrwt>
</event>
<event>
 7    0  0.4752811E-002  0.4490802E+03  0.7546771E-02  0.1027997E+00
         21   -1    0    0  502  501  0.00000000000E+00  0.00000000000E+00  0.22572131994E+03  0.22572131994E+03  0.00000000000E+00 0.  1.
         21   -1    0    0  501  502 -0.00000000000E+00 -0.00000000000E+00 -0.22336502187E+03  0.22336502187E+03  0.00000000000E+00 0.  1.
      99926    2    1    2    0    0 -0.35527136788E-14 -0.14210854715E-13  0.23562980787E+01  0.44908634181E+03  0.44908016017E+03 0.  0.
      99925    2    3    3    0    0 -0.10052647398E+02 -0.10705610309E+03  0.49003000687E+01  0.28411348048E+03  0.26293419694E+03 0.  0.
         25    1    3    3    0    0  0.10052647398E+02  0.10705610309E+03 -0.25440019900E+01  0.16497286133E+03  0.12509000000E+03 0.  0.
         25    1    4    4    0    0  0.13184305574E+02 -0.80557667800E+02  0.28404502410E+02  0.15204501837E+03  0.12509000000E+03 0.  0.
         25    1    4    4    0    0 -0.23236952972E+02 -0.26498435289E+02 -0.23504202341E+02  0.13206846211E+03  0.12509000000E+03 0.  0.
<mgrwt>
<rscale>  2 0.44908016E+03</rscale>
<asrwt>0</asrwt>
<pdfrwt beam="1">  1       21 0.33194312E-01 0.44908016E+03</pdfrwt>
<pdfrwt beam="2">  1       21 0.32847797E-01 0.44908016E+03</pdfrwt>
<totfact> 0.72338133E+04</totfact>
</mgrwt>
</event>
<event>
 7    0  0.4752811E-002  0.4579487E+03  0.7546771E-02  0.1025378E+00
         21   -1    0    0  502  501  0.00000000000E+00  0.00000000000E+00  0.30328673657E+03  0.30328673657E+03  0.00000000000E+00 0.  1.
         21   -1    0    0  501  502 -0.00000000000E+00 -0.00000000000E+00 -0.17287028163E+03  0.17287028163E+03  0.00000000000E+00 0.  1.
      99926    2    1    2    0    0  0.00000000000E+00  0.35527136788E-14  0.13041645494E+03  0.47615701820E+03  0.45794874633E+03 0.  0.
      99925    2    3    3    0    0 -0.10201039180E+03 -0.26948293563E+02  0.13138378013E+03  0.31250869288E+03  0.26318748998E+03 0.  0.
         25    1    4    4    0    0 -0.61303979055E+02  0.24100377731E+02  0.52187748187E+02  0.15069862380E+03  0.12509000000E+03 0.  0.
         25    1    4    4    0    0 -0.40706412748E+02 -0.51048671294E+02  0.79196031946E+02  0.16181006908E+03  0.12509000000E+03 0.  0.
         25    1    3    3    0    0  0.10201039180E+03  0.26948293563E+02 -0.96732519211E+00  0.16364832532E+03  0.12509000000E+03 0.  0.
<mgrwt>
<rscale>  2 0.45794875E+03</rscale>
<asrwt>0</asrwt>
<pdfrwt beam="1">  1       21 0.44600991E-01 0.45794875E+03</pdfrwt>
<pdfrwt beam="2">  1       21 0.25422100E-01 0.45794875E+03</pdfrwt>
<totfact> 0.65436270E+04</totfact>
</mgrwt>
</event>
<event>
 7    0  0.4752811E-002  0.4560519E+03  0.7546771E-02  0.1025933E+00
         21   -1    0    0  502  501  0.00000000000E+00  0.00000000000E+00  0.78198655436E+02  0.78198655436E+02  0.00000000000E+00 0. -1.
         21   -1    0    0  501  502 -0.00000000000E+00 -0.00000000000E+00 -0.66491989006E+03  0.66491989006E+03  0.00000000000E+00 0. -1.
      99926    2    1    2    0    0  0.00000000000E+00  0.00000000000E+00 -0.58672123462E+03  0.74311854550E+03  0.45605193290E+03 0.  0.
      99925    2    3    3    0    0  0.20032359623E+02 -0.47359932570E+02 -0.53490632483E+03  0.59828570522E+03  0.26301473358E+03 0.  0.
         25    1    4    4    0    0  0.14213888800E+01 -0.39733266773E+02 -0.35293984143E+03  0.37655649324E+03  0.12509000000E+03 0.  0.
         25    1    4    4    0    0  0.18610970743E+02 -0.76266657972E+01 -0.18196648340E+03  0.22172921198E+03  0.12509000000E+03 0.  0.
         25    1    3    3    0    0 -0.20032359623E+02  0.47359932570E+02 -0.51814909791E+02  0.14483284027E+03  0.12509000000E+03 0.  0.
<mgrwt>
<rscale>  2 0.45605193E+03</rscale>
<asrwt>0</asrwt>
<pdfrwt beam="1">  1       21 0.11499802E-01 0.45605193E+03</pdfrwt>
<pdfrwt beam="2">  1       21 0.97782342E-01 0.45605193E+03</pdfrwt>
<totfact> 0.50207169E+04</totfact>
</mgrwt>
</event>
<event>
 7    0  0.4752811E-002  0.4556796E+03  0.7546771E-02  0.1026042E+00
         21   -1    0    0  502  501  0.00000000000E+00  0.00000000000E+00  0.25711667379E+03  0.25711667379E+03  0.00000000000E+00 0.  1.
         21   -1    0    0  501  502 -0.00000000000E+00 -0.00000000000E+00 -0.20189658293E+03  0.20189658293E+03  0.00000000000E+00 0.  1.
      99926    2    1    2    0    0  0.00000000000E+00  0.17763568394E-14  0.55220090855E+02  0.45901325672E+03  0.45567961487E+03 0.  0.
      99925    2    3    3    0    0  0.11317675446E+03  0.90139879391E+01  0.42713208610E+02  0.28961975055E+03  0.26299230406E+03 0.  0.
         25    1    4    4    0    0  0.42101114855E+02 -0.32740409208E+02  0.30132687862E+02  0.13928361442E+03  0.12509000000E+03 0.  0.
         25    1    3    3    0    0 -0.11317675446E+03 -0.90139879391E+01  0.12506882245E+02  0.16939350617E+03  0.12509000000E+03 0.  0.
         25    1    4    4    0    0  0.71075639603E+02  0.41754397147E+02  0.12580520748E+02  0.15033613614E+03  0.12509000000E+03 0.  0.
<mgrwt>
<rscale>  2 0.45567961E+03</rscale>
<asrwt>0</asrwt>
<pdfrwt beam="1">  1       21 0.37811275E-01 0.45567961E+03</pdfrwt>
<pdfrwt beam="2">  1       21 0.29690674E-01 0.45567961E+03</pdfrwt>
<totfact> 0.67883822E+04</totfact>
</mgrwt>
</event>
<event>
 7    0  0.4752811E-002  0.4527856E+03  0.7546771E-02  0.1026895E+00
         21   -1    0    0  502  501  0.00000000000E+00  0.00000000000E+00  0.13499489672E+04  0.13499489672E+04  0.00000000000E+00 0. -1.
         21   -1    0    0  501  502 -0.00000000000E+00 -0.00000000000E+00 -0.37967131493E+02  0.37967131493E+02  0.00000000000E+00 0. -1.
      99926    2    1    2    0    0  0.00000000000E+00  0.00000000000E+00  0.13119818357E+04  0.13879160987E+04  0.45278555606E+03 0.  0.
      99925    2    3    3    0    0  0.48918856056E+02  0.35230006784E+02  0.11132606136E+04  0.11454870574E+04  0.26297755980E+03 0.  0.
         25    1    4    4    0    0  0.46523240359E+02  0.36540366551E+02  0.70629114678E+03  0.71971821042E+03  0.12509000000E+03 0.  0.
         25    1    4    4    0    0  0.23956156974E+01 -0.13103597667E+01  0.40696946682E+03  0.42576884696E+03  0.12509000000E+03 0.  0.
         25    1    3    3    0    0 -0.48918856056E+02 -0.35230006784E+02  0.19872122206E+03  0.24242904128E+03  0.12509000000E+03 0.  0.
<mgrwt>
<rscale>  2 0.45278556E+03</rscale>
<asrwt>0</asrwt>
<pdfrwt beam="1">  1       21 0.19852188E+00 0.45278556E+03</pdfrwt>
<pdfrwt beam="2">  1       21 0.55834026E-02 0.45278556E+03</pdfrwt>
<totfact> 0.27119538E+04</totfact>
</mgrwt>
</event>
<event>
 7    0  0.4752811E-002  0.4672399E+03  0.7546771E-02  0.1022702E+00
         21   -1    0    0  502  501  0.00000000000E+00  0.00000000000E+00  0.31439201109E+02  0.31439201109E+02  0.00000000000E+00 0. -1.
         21   -1    0    0  501  502 -0.00000000000E+00 -0.00000000000E+00 -0.17359947766E+04  0.17359947766E+04  0.00000000000E+00 0. -1.
      99926    2    1    2    0    0 -0.14210854715E-13  0.00000000000E+00 -0.17045555754E+04  0.17674339777E+04  0.46723993367E+03 0.  0.
      99925    2    3    3    0    0 -0.66555042846E+02 -0.75110227641E+02 -0.78345616913E+03  0.83247796563E+03  0.26295412962E+03 0.  0.
         25    1    4    4    0    0 -0.40983464573E+02 -0.14044718047E+02 -0.28365662006E+03  0.31302633224E+03  0.12509000000E+03 0.  0.
         25    1    3    3    0    0  0.66555042846E+02  0.75110227641E+02 -0.92109940631E+03  0.93495601203E+03  0.12509000000E+03 0.  0.
         25    1    4    4    0    0 -0.25571578273E+02 -0.61065509594E+02 -0.49979954907E+03  0.51945163339E+03  0.12509000000E+03 0.  0.
<mgrwt>
<rscale>  2 0.46723993E+03</rscale>
<asrwt>0</asrwt>
<pdfrwt beam="1">  1       21 0.46234105E-02 0.46723993E+03</pdfrwt>
<pdfrwt beam="2">  1       21 0.25529343E+00 0.46723993E+03</pdfrwt>
<totfact> 0.16289893E+04</totfact>
</mgrwt>
</event>
<event>
 6    0  0.4752811E-002  0.4551090E+03  0.7546771E-02  0.1026209E+00
         21   -1    0    0  502  501  0.00000000000E+00  0.00000000000E+00  0.76578548959E+02  0.76578548959E+02  0.00000000000E+00 0. -1.
         21   -1    0    0  501  502 -0.00000000000E+00 -0.00000000000E+00 -0.67618225443E+03  0.67618225443E+03  0.00000000000E+00 0. -1.
      99926    2    1    2    0    0  0.00000000000E+00 -0.35527136788E-14 -0.59960370547E+03  0.75276080339E+03  0.45510902376E+03 0.  0.
         25    1    3    3    0    0 -0.56127872705E+02 -0.26234644120E+01 -0.85938017550E+02  0.16183346879E+03  0.12509000000E+03 0.  0.
         25    1    3    3    0    0 -0.25221483639E+02 -0.26351901125E+02 -0.16259542017E+03  0.20836344374E+03  0.12509000000E+03 0.  0.
         25    1    3    3    0    0  0.81349356344E+02  0.28975365537E+02 -0.35107026776E+03  0.38256389086E+03  0.12509000000E+03 0.  0.
<mgrwt>
<rscale>  2 0.45510902E+03</rscale>
<asrwt>0</asrwt>
<pdfrwt beam="1">  1       21 0.11261552E-01 0.45510902E+03</pdfrwt>
<pdfrwt beam="2">  1       21 0.99438559E-01 0.45510902E+03</pdfrwt>
<totfact> 0.50087325E+04</totfact>
</mgrwt>
</event>
<event>
 7    0  0.4752811E-002  0.4526528E+03  0.7546771E-02  0.1026934E+00
         21   -1    0    0  502  501  0.00000000000E+00  0.00000000000E+00  0.26949373687E+02  0.26949373687E+02  0.00000000000E+00 0. -1.
         21   -1    0    0  501  502 -0.00000000000E+00 -0.00000000000E+00 -0.19007357413E+04  0.19007357413E+04  0.00000000000E+00 0. -1.
      99926    2    1    2    0    0  0.35527136788E-14  0.00000000000E+00 -0.18737863676E+04  0.19276851150E+04  0.45265279308E+03 0.  0.
      99925    2    3    3    0    0  0.20410019891E+02  0.62138117143E+02 -0.80127834689E+03  0.84592789771E+03  0.26319062372E+03 0.  0.
         25    1    3    3    0    0 -0.20410019891E+02 -0.62138117143E+02 -0.10725080207E+04  0.10817572172E+04  0.12509000000E+03 0.  0.
         25    1    4    4    0    0  0.30038491426E+02  0.39880015181E+02 -0.51956916942E+03  0.53674235578E+03  0.12509000000E+03 0.  0.
         25    1    4    4    0    0 -0.96284715350E+01  0.22258101962E+02 -0.28170917747E+03  0.30918554193E+03  0.12509000000E+03 0.  0.
<mgrwt>
<rscale>  2 0.45265279E+03</rscale>
<asrwt>0</asrwt>
<pdfrwt beam="1">  1       21 0.39631430E-02 0.45265279E+03</pdfrwt>
<pdfrwt beam="2">  1       21 0.27951998E+00 0.45265279E+03</pdfrwt>
<totfact> 0.15201622E+04</totfact>
</mgrwt>
</event>
<event>
 7    0  0.4752811E-002  0.4438385E+03  0.7546771E-02  0.1029576E+00
         21   -1    0    0  502  501  0.00000000000E+00  0.00000000000E+00  0.15621245818E+03  0.15621245818E+03  0.00000000000E+00 0. -1.
         21   -1    0    0  501  502 -0.00000000000E+00 -0.00000000000E+00 -0.31526392397E+03  0.31526392397E+03  0.00000000000E+00 0. -1.
      99926    2    1    2    0    0  0.17763568394E-14 -0.17763568394E-14 -0.15905146579E+03  0.47147638215E+03  0.44383849558E+03 0.  0.
      99925    2    3    3    0    0 -0.12822183840E+02  0.14305154643E+02 -0.20771006473E+03  0.33588798590E+03  0.26326454800E+03 0.  0.
         25    1    4    4    0    0  0.19975330779E+02  0.75461354078E+00 -0.14169101238E+03  0.19006165939E+03  0.12509000000E+03 0.  0.
         25    1    3    3    0    0  0.12822183840E+02 -0.14305154643E+02  0.48658598940E+02  0.13558839625E+03  0.12509000000E+03 0.  0.
         25    1    4    4    0    0 -0.32797514618E+02  0.13550541102E+02 -0.66019052353E+02  0.14582632651E+03  0.12509000000E+03 0.  0.
<mgrwt>
<rscale>  2 0.44383850E+03</rscale>
<asrwt>0</asrwt>
<pdfrwt beam="1">  1       21 0.22972421E-01 0.44383850E+03</pdfrwt>
<pdfrwt beam="2">  1       21 0.46362341E-01 0.44383850E+03</pdfrwt>
<totfact> 0.73636116E+04</totfact>
</mgrwt>
</event>
<event>
 7    0  0.4752811E-002  0.4530189E+03  0.7546771E-02  0.1026826E+00
         21   -1    0    0  502  501  0.00000000000E+00  0.00000000000E+00  0.17776048952E+03  0.17776048952E+03  0.00000000000E+00 0. -1.
         21   -1    0    0  501  502 -0.00000000000E+00 -0.00000000000E+00 -0.28862733897E+03  0.28862733897E+03  0.00000000000E+00 0. -1.
      99926    2    1    2    0    0  0.00000000000E+00  0.35527136788E-14 -0.11086684945E+03  0.46638782850E+03  0.45301892705E+03 0.  0.
      99925    2    3    3    0    0  0.93503278202E+02 -0.29238691567E+02 -0.12424425558E+03  0.30693806458E+03  0.26301440326E+03 0.  0.
         25    1    4    4    0    0  0.86783366983E+01  0.20116300191E+01 -0.68127758565E+02  0.14271741229E+03  0.12509000000E+03 0.  0.
         25    1    4    4    0    0  0.84824941504E+02 -0.31250321586E+02 -0.56116497020E+02  0.16422065229E+03  0.12509000000E+03 0.  0.
         25    1    3    3    0    0 -0.93503278202E+02  0.29238691567E+02  0.13377406133E+02  0.15944976392E+03  0.12509000000E+03 0.  0.
<mgrwt>
<rscale>  2 0.45301893E+03</rscale>
<asrwt>0</asrwt>
<pdfrwt beam="1">  1       21 0.26141249E-01 0.45301893E+03</pdfrwt>
<pdfrwt beam="2">  1       21 0.42445197E-01 0.45301893E+03</pdfrwt>
<totfact> 0.68779943E+04</totfact>
</mgrwt>
</event>
<event>
 7    0  0.4752811E-002  0.4705926E+03  0.7546771E-02  0.1021753E+00
         21   -1    0    0  502  501  0.00000000000E+00  0.00000000000E+00  0.15782100056E+03  0.15782100056E+03  0.00000000000E+00 0.  1.
         21   -1    0    0  501  502 -0.00000000000E+00 -0.00000000000E+00 -0.35080462762E+03  0.35080462762E+03  0.00000000000E+00 0.  1.
      99926    2    1    2    0    0 -0.71054273576E-14  0.00000000000E+00 -0.19298362707E+03  0.50862562818E+03  0.47059255129E+03 0.  0.
      99925    2    3    3    0    0  0.32875125233E+02 -0.64601638385E+02 -0.23277051320E+03  0.35867680375E+03  0.26308324194E+03 0.  0.
         25    1    4    4    0    0  0.37383854423E+02 -0.60990347628E+02 -0.15314658864E+03  0.21028257366E+03  0.12509000000E+03 0.  0.
         25    1    4    4    0    0 -0.45087291897E+01 -0.36112907566E+01 -0.79623924561E+02  0.14839423008E+03  0.12509000000E+03 0.  0.
         25    1    3    3    0    0 -0.32875125233E+02  0.64601638385E+02  0.39786886131E+02  0.14994882443E+03  0.12509000000E+03 0.  0.
<mgrwt>
<rscale>  2 0.47059255E+03</rscale>
<asrwt>0</asrwt>
<pdfrwt beam="1">  1       21 0.23208971E-01 0.47059255E+03</pdfrwt>
<pdfrwt beam="2">  1       21 0.51588916E-01 0.47059255E+03</pdfrwt>
<totfact> 0.57248091E+04</totfact>
</mgrwt>
</event>
<event>
 7    0  0.4752811E-002  0.4351014E+03  0.7546771E-02  0.1032260E+00
         21   -1    0    0  502  501  0.00000000000E+00  0.00000000000E+00  0.36060882803E+03  0.36060882803E+03  0.00000000000E+00 0.  1.
         21   -1    0    0  501  502 -0.00000000000E+00 -0.00000000000E+00 -0.13124558382E+03  0.13124558382E+03  0.00000000000E+00 0.  1.
      99926    2    1    2    0    0  0.00000000000E+00  0.17763568394E-14  0.22936324421E+03  0.49185441185E+03  0.43510144181E+03 0.  0.
      99925    2    3    3    0    0  0.59319532809E+02 -0.44297298363E+01  0.22837074381E+03  0.35333754416E+03  0.26297489234E+03 0.  0.
         25    1    4    4    0    0  0.49222677329E+02 -0.25624953407E+02  0.15362981020E+03  0.20574046000E+03  0.12509000000E+03 0.  0.
         25    1    3    3    0    0 -0.59319532809E+02  0.44297298363E+01  0.99250039634E+00  0.13851686770E+03  0.12509000000E+03 0.  0.
         25    1    4    4    0    0  0.10096855480E+02  0.21195223571E+02  0.74740933618E+02  0.14759708415E+03  0.12509000000E+03 0.  0.
<mgrwt>
<rscale>  2 0.43510144E+03</rscale>
<asrwt>0</asrwt>
<pdfrwt beam="1">  1       21 0.53030710E-01 0.43510144E+03</pdfrwt>
<pdfrwt beam="2">  1       21 0.19300821E-01 0.43510144E+03</pdfrwt>
<totfact> 0.77362418E+04</totfact>
</mgrwt>
</event>
<event>
 7    0  0.4752811E-002  0.4570610E+03  0.7546771E-02  0.1025637E+00
         21   -1    0    0  502  501  0.00000000000E+00  0.00000000000E+00  0.12660653399E+03  0.12660653399E+03  0.00000000000E+00 0.  1.
         21   -1    0    0  501  502 -0.00000000000E+00 -0.00000000000E+00 -0.41250778055E+03  0.41250778055E+03  0.00000000000E+00 0.  1.
      99926    2    1    2    0    0 -0.71054273576E-14 -0.44408920985E-15 -0.28590124656E+03  0.53911431454E+03  0.45706096022E+03 0.  0.
      99925    2    3    3    0    0  0.61565534055E+02  0.27127306793E+01 -0.29419668946E+03  0.39942180807E+03  0.26303690764E+03 0.  0.
         25    1    4    4    0    0  0.38539450854E+02 -0.25740155387E+02 -0.19201968034E+03  0.23380956056E+03  0.12509000000E+03 0.  0.
         25    1    3    3    0    0 -0.61565534055E+02 -0.27127306793E+01  0.82954429027E+01  0.13969250647E+03  0.12509000000E+03 0.  0.
         25    1    4    4    0    0  0.23026083201E+02  0.28452886067E+02 -0.10217700913E+03  0.16561224752E+03  0.12509000000E+03 0.  0.
<mgrwt>
<rscale>  2 0.45706096E+03</rscale>
<asrwt>0</asrwt>
<pdfrwt beam="1">  1       21 0.18618608E-01 0.45706096E+03</pdfrwt>
<pdfrwt beam="2">  1       21 0.60662908E-01 0.45706096E+03</pdfrwt>
<totfact> 0.61581033E+04</totfact>
</mgrwt>
</event>
<event>
 7    0  0.4752811E-002  0.4003291E+03  0.7546771E-02  0.1043666E+00
         21   -1    0    0  502  501  0.00000000000E+00  0.00000000000E+00  0.23303517780E+03  0.23303517780E+03  0.00000000000E+00 0. -1.
         21   -1    0    0  501  502 -0.00000000000E+00 -0.00000000000E+00 -0.17193043146E+03  0.17193043146E+03  0.00000000000E+00 0. -1.
      99926    2    1    2    0    0 -0.35527136788E-14  0.71054273576E-14  0.61104746343E+02  0.40496560926E+03  0.40032905797E+03 0.  0.
      99925    2    3    3    0    0  0.22914821394E+02 -0.40172053506E+02  0.40973929474E+02  0.27008921840E+03  0.26292668195E+03 0.  0.
         25    1    3    3    0    0 -0.22914821394E+02  0.40172053506E+02  0.20130816869E+02  0.13487639086E+03  0.12509000000E+03 0.  0.
         25    1    4    4    0    0  0.44747289667E+01  0.26126334644E+01  0.53230092769E+02  0.13604337518E+03  0.12509000000E+03 0.  0.
         25    1    4    4    0    0  0.18440092428E+02 -0.42784686971E+02 -0.12256163295E+02  0.13404584323E+03  0.12509000000E+03 0.  0.
<mgrwt>
<rscale>  2 0.40032906E+03</rscale>
<asrwt>0</asrwt>
<pdfrwt beam="1">  1       21 0.34269879E-01 0.40032906E+03</pdfrwt>
<pdfrwt beam="2">  1       21 0.25283887E-01 0.40032906E+03</pdfrwt>
<totfact> 0.11487692E+05</totfact>
</mgrwt>
</event>
<event>
 7    0  0.4752811E-002  0.4467181E+03  0.7546771E-02  0.1028705E+00
         21   -1    0    0  502  501  0.00000000000E+00  0.00000000000E+00  0.48851964298E+02  0.48851964298E+02  0.00000000000E+00 0.  1.
         21   -1    0    0  501  502 -0.00000000000E+00 -0.00000000000E+00 -0.10212336809E+04  0.10212336809E+04  0.00000000000E+00 0.  1.
      99926    2    1    2    0    0 -0.14210854715E-13 -0.71054273576E-14 -0.97238171665E+03  0.10700856452E+04  0.44671812733E+03 0.  0.
      99925    2    3    3    0    0  0.68518820422E+02  0.63634836323E+02 -0.50139709636E+03  0.57388181435E+03  0.26305335477E+03 0.  0.
         25    1    3    3    0    0 -0.68518820422E+02 -0.63634836323E+02 -0.47098462029E+03  0.49620383089E+03  0.12509000000E+03 0.  0.
         25    1    4    4    0    0  0.10304842621E+01  0.49784292324E+02 -0.27533636496E+03  0.30649169585E+03  0.12509000000E+03 0.  0.
         25    1    4    4    0    0  0.67488336160E+02  0.13850543999E+02 -0.22606073141E+03  0.26739011850E+03  0.12509000000E+03 0.  0.
<mgrwt>
<rscale>  2 0.44671813E+03</rscale>
<asrwt>0</asrwt>
<pdfrwt beam="1">  1       21 0.71841126E-02 0.44671813E+03</pdfrwt>
<pdfrwt beam="2">  1       21 0.15018142E+00 0.44671813E+03</pdfrwt>
<totfact> 0.39009704E+04</totfact>
</mgrwt>
</event>
<event>
 7    0  0.4752811E-002  0.4629160E+03  0.7546771E-02  0.1023939E+00
         21   -1    0    0  502  501  0.00000000000E+00  0.00000000000E+00  0.11681656046E+03  0.11681656046E+03  0.00000000000E+00 0. -1.
         21   -1    0    0  501  502 -0.00000000000E+00 -0.00000000000E+00 -0.45860628410E+03  0.45860628410E+03  0.00000000000E+00 0. -1.
      99926    2    1    2    0    0  0.00000000000E+00  0.14210854715E-13 -0.34178972364E+03  0.57542284455E+03  0.46291601274E+03 0.  0.
      99925    2    3    3    0    0 -0.12503712710E+02 -0.10978911657E+03 -0.27309851945E+03  0.39493466605E+03  0.26302204502E+03 0.  0.
         25    1    4    4    0    0 -0.19930006704E+02 -0.30463146039E+02 -0.17059124136E+03  0.21464875532E+03  0.12509000000E+03 0.  0.
         25    1    4    4    0    0  0.74262939939E+01 -0.79325970529E+02 -0.10250727810E+03  0.18028591072E+03  0.12509000000E+03 0.  0.
         25    1    3    3    0    0  0.12503712710E+02  0.10978911657E+03 -0.68691204189E+02  0.18048817851E+03  0.12509000000E+03 0.  0.
<mgrwt>
<rscale>  2 0.46291601E+03</rscale>
<asrwt>0</asrwt>
<pdfrwt beam="1">  1       21 0.17178906E-01 0.46291601E+03</pdfrwt>
<pdfrwt beam="2">  1       21 0.67442101E-01 0.46291601E+03</pdfrwt>
<totfact> 0.56591003E+04</totfact>
</mgrwt>
</event>
<event>
 7    0  0.4752811E-002  0.4471338E+03  0.7546771E-02  0.1028580E+00
         21   -1    0    0  502  501  0.00000000000E+00  0.00000000000E+00  0.51084738593E+02  0.51084738593E+02  0.00000000000E+00 0. -1.
         21   -1    0    0  501  502 -0.00000000000E+00 -0.00000000000E+00 -0.97841684273E+03  0.97841684273E+03  0.00000000000E+00 0. -1.
      99926    2    1    2    0    0 -0.17763568394E-14 -0.14210854715E-13 -0.92733210414E+03  0.10295015813E+04  0.44713384415E+03 0.  0.
      99925    2    3    3    0    0  0.11034304362E+02 -0.68691701778E+02 -0.77066003111E+03  0.81728953564E+03  0.26306842409E+03 0.  0.
         25    1    4    4    0    0  0.42675327225E+02 -0.25011005049E+02 -0.42395110954E+03  0.44477947941E+03  0.12509000000E+03 0.  0.
         25    1    4    4    0    0 -0.31641022864E+02 -0.43680696729E+02 -0.34670892157E+03  0.37251005623E+03  0.12509000000E+03 0.  0.
         25    1    3    3    0    0 -0.11034304362E+02  0.68691701778E+02 -0.15667207302E+03  0.21221204568E+03  0.12509000000E+03 0.  0.
<mgrwt>
<rscale>  2 0.44713384E+03</rscale>
<asrwt>0</asrwt>
<pdfrwt beam="1">  1       21 0.75124618E-02 0.44713384E+03</pdfrwt>
<pdfrwt beam="2">  1       21 0.14388483E+00 0.44713384E+03</pdfrwt>
<totfact> 0.40467228E+04</totfact>
</mgrwt>
</event>
<event>
 7    0  0.4752811E-002  0.4234512E+03  0.7546771E-02  0.1035949E+00
         21   -1    0    0  502  501  0.00000000000E+00  0.00000000000E+00  0.16894920000E+03  0.16894920000E+03  0.00000000000E+00 0.  1.
         21   -1    0    0  501  502 -0.00000000000E+00 -0.00000000000E+00 -0.26533265671E+03  0.26533265671E+03  0.00000000000E+00 0.  1.
      99926    2    1    2    0    0  0.00000000000E+00  0.00000000000E+00 -0.96383456709E+02  0.43428185670E+03  0.42345124907E+03 0.  0.
      99925    2    3    3    0    0  0.68152152028E+02  0.21737547508E+02 -0.99491584688E+02  0.29014856646E+03  0.26300262051E+03 0.  0.
         25    1    4    4    0    0  0.24299862938E+01  0.34418239521E+02 -0.35619401580E+02  0.13456139831E+03  0.12509000000E+03 0.  0.
         25    1    4    4    0    0  0.65722165734E+02 -0.12680692013E+02 -0.63872183108E+02  0.15558716815E+03  0.12509000000E+03 0.  0.
         25    1    3    3    0    0 -0.68152152028E+02 -0.21737547508E+02  0.31081279793E+01  0.14413329025E+03  0.12509000000E+03 0.  0.
<mgrwt>
<rscale>  2 0.42345125E+03</rscale>
<asrwt>0</asrwt>
<pdfrwt beam="1">  1       21 0.24845471E-01 0.42345125E+03</pdfrwt>
<pdfrwt beam="2">  1       21 0.39019508E-01 0.42345125E+03</pdfrwt>
<totfact> 0.90885575E+04</totfact>
</mgrwt>
</event>
<event>
 7    0  0.4752811E-002  0.4504517E+03  0.7546771E-02  0.1027587E+00
         21   -1    0    0  502  501  0.00000000000E+00  0.00000000000E+00  0.10537402814E+04  0.10537402814E+04  0.00000000000E+00 0.  1.
         21   -1    0    0  501  502 -0.00000000000E+00 -0.00000000000E+00 -0.48139635099E+02  0.48139635099E+02  0.00000000000E+00 0.  1.
      99926    2    1    2    0    0 -0.26645352591E-14  0.00000000000E+00  0.10056006463E+04  0.11018799165E+04  0.45045165172E+03 0.  0.
      99925    2    3    3    0    0  0.44182738066E+01  0.44582851027E+02  0.87805633218E+03  0.91770008070E+03  0.26302730633E+03 0.  0.
         25    1    4    4    0    0  0.28006455243E+02  0.54056274932E+02  0.44898867264E+03  0.47004763445E+03  0.12509000000E+03 0.  0.
         25    1    4    4    0    0 -0.23588181436E+02 -0.94734239058E+01  0.42906765954E+03  0.44765244625E+03  0.12509000000E+03 0.  0.
         25    1    3    3    0    0 -0.44182738066E+01 -0.44582851027E+02  0.12754431409E+03  0.18417983577E+03  0.12509000000E+03 0.  0.
<mgrwt>
<rscale>  2 0.45045165E+03</rscale>
<asrwt>0</asrwt>
<pdfrwt beam="1">  1       21 0.15496179E+00 0.45045165E+03</pdfrwt>
<pdfrwt beam="2">  1       21 0.70793587E-02 0.45045165E+03</pdfrwt>
<totfact> 0.36714552E+04</totfact>
</mgrwt>
</event>
<event>
 7    0  0.4752811E-002  0.4546358E+03  0.7546771E-02  0.1026349E+00
         21   -1    0    0  502  501  0.00000000000E+00  0.00000000000E+00  0.20385539540E+03  0.20385539540E+03  0.00000000000E+00 0.  1.
         21   -1    0    0  501  502 -0.00000000000E+00 -0.00000000000E+00 -0.25348074427E+03  0.25348074427E+03  0.00000000000E+00 0.  1.
      99926    2    1    2    0    0  0.35527136788E-14  0.00000000000E+00 -0.49625348872E+02  0.45733613967E+03  0.45463575464E+03 0.  0.
      99925    2    3    3    0    0  0.27736445923E+02  0.20069884834E+02  0.76929178202E+02  0.27612999426E+03  0.26297825872E+03 0.  0.
         25    1    4    4    0    0  0.88036445175E+01  0.25331839976E+02 -0.69888039474E-01  0.12793247929E+03  0.12509000000E+03 0.  0.
         25    1    4    4    0    0  0.18932801406E+02 -0.52619551415E+01  0.76999066242E+02  0.14819751497E+03  0.12509000000E+03 0.  0.
         25    1    3    3    0    0 -0.27736445923E+02 -0.20069884834E+02 -0.12655452707E+03  0.18120614541E+03  0.12509000000E+03 0.  0.
<mgrwt>
<rscale>  2 0.45463575E+03</rscale>
<asrwt>0</asrwt>
<pdfrwt beam="1">  1       21 0.29978735E-01 0.45463575E+03</pdfrwt>
<pdfrwt beam="2">  1       21 0.37276580E-01 0.45463575E+03</pdfrwt>
<totfact> 0.68574006E+04</totfact>
</mgrwt>
</event>
<event>
 7    0  0.4752811E-002  0.4625525E+03  0.7546771E-02  0.1024044E+00
         21   -1    0    0  502  501  0.00000000000E+00  0.00000000000E+00  0.20750436988E+02  0.20750436988E+02  0.00000000000E+00 0.  1.
         21   -1    0    0  501  502 -0.00000000000E+00 -0.00000000000E+00 -0.25777150353E+04  0.25777150353E+04  0.00000000000E+00 0.  1.
      99926    2    1    2    0    0  0.00000000000E+00  0.14210854715E-13 -0.25569645983E+04  0.25984654722E+04  0.46255254150E+03 0.  0.
      99925    2    3    3    0    0  0.29606291079E+02 -0.64293245981E+02 -0.10455619597E+04  0.10802442769E+04  0.26214067274E+03 0.  0.
         25    1    4    4    0    0 -0.40255401820E+01 -0.41816090387E+02 -0.65467441096E+03  0.66784046213E+03  0.12509000000E+03 0.  0.
         25    1    3    3    0    0 -0.29606291079E+02  0.64293245981E+02 -0.15114026386E+04  0.15182211953E+04  0.12509000000E+03 0.  0.
         25    1    4    4    0    0  0.33631831261E+02 -0.22477155594E+02 -0.39088754873E+03  0.41240381479E+03  0.12509000000E+03 0.  0.
<mgrwt>
<rscale>  2 0.46255254E+03</rscale>
<asrwt>0</asrwt>
<pdfrwt beam="1">  1       21 0.30515368E-02 0.46255254E+03</pdfrwt>
<pdfrwt beam="2">  1       21 0.37907549E+00 0.46255254E+03</pdfrwt>
<totfact> 0.58262257E+03</totfact>
</mgrwt>
</event>
<event>
 7    0  0.4752811E-002  0.4531086E+03  0.7546771E-02  0.1026799E+00
         21   -1    0    0  502  501  0.00000000000E+00  0.00000000000E+00  0.14249474884E+04  0.14249474884E+04  0.00000000000E+00 0. -1.
         21   -1    0    0  501  502 -0.00000000000E+00 -0.00000000000E+00 -0.36020166619E+02  0.36020166619E+02  0.00000000000E+00 0. -1.
      99926    2    1    2    0    0  0.00000000000E+00 -0.14210854715E-13  0.13889273217E+04  0.14609676550E+04  0.45310857840E+03 0.  0.
      99925    2    3    3    0    0  0.36807417050E+02 -0.10328550153E+03  0.82609098156E+03  0.87406482256E+03  0.26370499321E+03 0.  0.
         25    1    4    4    0    0  0.44690838493E+01 -0.14712413224E+02  0.30731261919E+03  0.33215204625E+03  0.12509000000E+03 0.  0.
         25    1    4    4    0    0  0.32338333201E+02 -0.88573088303E+02  0.51877836236E+03  0.54191277631E+03  0.12509000000E+03 0.  0.
         25    1    3    3    0    0 -0.36807417050E+02  0.10328550153E+03  0.56283634018E+03  0.58690283242E+03  0.12509000000E+03 0.  0.
<mgrwt>
<rscale>  2 0.45310858E+03</rscale>
<asrwt>0</asrwt>
<pdfrwt beam="1">  1       21 0.20955106E+00 0.45310858E+03</pdfrwt>
<pdfrwt beam="2">  1       21 0.52970843E-02 0.45310858E+03</pdfrwt>
<totfact> 0.25118618E+04</totfact>
</mgrwt>
</event>
<event>
 7    0  0.4752811E-002  0.4648262E+03  0.7546771E-02  0.1023391E+00
         21   -1    0    0  502  501  0.00000000000E+00  0.00000000000E+00  0.79749717886E+02  0.79749717886E+02  0.00000000000E+00 0. -1.
         21   -1    0    0  501  502 -0.00000000000E+00 -0.00000000000E+00 -0.67731725802E+03  0.67731725802E+03  0.00000000000E+00 0. -1.
      99926    2    1    2    0    0  0.00000000000E+00  0.71054273576E-14 -0.59756754013E+03  0.75706697591E+03  0.46482624817E+03 0.  0.
      99925    2    3    3    0    0 -0.22038244867E+02  0.44802604467E+02 -0.19125158967E+03  0.32900959972E+03  0.26301556713E+03 0.  0.
         25    1    4    4    0    0  0.83163552276E+00  0.55849420682E+02 -0.74075455298E+02  0.15573866118E+03  0.12509000000E+03 0.  0.
         25    1    4    4    0    0 -0.22869880390E+02 -0.11046816215E+02 -0.11717613437E+03  0.17327093854E+03  0.12509000000E+03 0.  0.
         25    1    3    3    0    0  0.22038244867E+02 -0.44802604467E+02 -0.40631595046E+03  0.42805737618E+03  0.12509000000E+03 0.  0.
<mgrwt>
<rscale>  2 0.46482625E+03</rscale>
<asrwt>0</asrwt>
<pdfrwt beam="1">  1       21 0.11727900E-01 0.46482625E+03</pdfrwt>
<pdfrwt beam="2">  1       21 0.99605475E-01 0.46482625E+03</pdfrwt>
<totfact> 0.46236741E+04</totfact>
</mgrwt>
</event>
<event>
 7    0  0.4752811E-002  0.4553998E+03  0.7546771E-02  0.1026124E+00
         21   -1    0    0  502  501  0.00000000000E+00  0.00000000000E+00  0.42640475791E+03  0.42640475791E+03  0.00000000000E+00 0. -1.
         21   -1    0    0  501  502 -0.00000000000E+00 -0.00000000000E+00 -0.12159159997E+03  0.12159159997E+03  0.00000000000E+00 0. -1.
      99926    2    1    2    0    0 -0.71054273576E-14  0.00000000000E+00  0.30481315793E+03  0.54799635788E+03  0.45539976614E+03 0.  0.
      99925    2    3    3    0    0  0.46802417226E+02 -0.72754269475E+02  0.28024876560E+03  0.39393608573E+03  0.26298786860E+03 0.  0.
         25    1    3    3    0    0 -0.46802417226E+02  0.72754269475E+02  0.24564392327E+02  0.15406027215E+03  0.12509000000E+03 0.  0.
         25    1    4    4    0    0  0.49722989260E+02 -0.69249435178E+02  0.14425918605E+03  0.20910782098E+03  0.12509000000E+03 0.  0.
         25    1    4    4    0    0 -0.29205720334E+01 -0.35048342975E+01  0.13598957955E+03  0.18482826475E+03  0.12509000000E+03 0.  0.
<mgrwt>
<rscale>  2 0.45539977E+03</rscale>
<asrwt>0</asrwt>
<pdfrwt beam="1">  1       21 0.62706582E-01 0.45539977E+03</pdfrwt>
<pdfrwt beam="2">  1       21 0.17881118E-01 0.45539977E+03</pdfrwt>
<totfact> 0.61803388E+04</totfact>
</mgrwt>
</event>
<event>
 7    0  0.4752811E-002  0.4593626E+03  0.7546771E-02  0.1024966E+00
         21   -1    0    0  502  501  0.00000000000E+00  0.00000000000E+00  0.25376701832E+04  0.25376701832E+04  0.00000000000E+00 0.  1.
         21   -1    0    0  501  502 -0.00000000000E+00 -0.00000000000E+00 -0.20788158659E+02  0.20788158659E+02  0.00000000000E+00 0.  1.
      99926    2    1    2    0    0  0.00000000000E+00  0.00000000000E+00  0.25168820245E+04  0.25584583418E+04  0.45936256004E+03 0.  0.
      99925    2    3    3    0    0 -0.27114189757E+02  0.15062624604E+02  0.94812726179E+03  0.98441861056E+03  0.26300690928E+03 0.  0.
         25    1    4    4    0    0 -0.45771664864E+02  0.27768400847E+02  0.54489221258E+03  0.56162368257E+03  0.12509000000E+03 0.  0.
         25    1    4    4    0    0  0.18657475107E+02 -0.12705776243E+02  0.40323504920E+03  0.42279492799E+03  0.12509000000E+03 0.  0.
         25    1    3    3    0    0  0.27114189757E+02 -0.15062624604E+02  0.15687547627E+04  0.15740397313E+04  0.12509000000E+03 0.  0.
<mgrwt>
<rscale>  2 0.45936256E+03</rscale>
<asrwt>0</asrwt>
<pdfrwt beam="1">  1       21 0.37318658E+00 0.45936256E+03</pdfrwt>
<pdfrwt beam="2">  1       21 0.30570839E-02 0.45936256E+03</pdfrwt>
<totfact> 0.63344500E+03</totfact>
</mgrwt>
</event>
<event>
 7    0  0.4752811E-002  0.4482865E+03  0.7546771E-02  0.1028234E+00
         21   -1    0    0  502  501  0.00000000000E+00  0.00000000000E+00  0.92064197360E+02  0.92064197360E+02  0.00000000000E+00 0.  1.
         21   -1    0    0  501  502 -0.00000000000E+00 -0.00000000000E+00 -0.54570837951E+03  0.54570837951E+03  0.00000000000E+00 0.  1.
      99926    2    1    2    0    0 -0.17763568394E-14  0.00000000000E+00 -0.45364418215E+03  0.63777257687E+03  0.44828653316E+03 0.  0.
      99925    2    3    3    0    0 -0.83668751096E+01 -0.64425565985E+02 -0.16790082210E+03  0.31915457038E+03  0.26353044526E+03 0.  0.
         25    1    4    4    0    0 -0.17639385002E+02 -0.44585744439E+02 -0.12988930366E+03  0.18659521917E+03  0.12509000000E+03 0.  0.
         25    1    4    4    0    0  0.92725098923E+01 -0.19839821547E+02 -0.38011518443E+02  0.13255935121E+03  0.12509000000E+03 0.  0.
         25    1    3    3    0    0  0.83668751096E+01  0.64425565985E+02 -0.28574336004E+03  0.31861800649E+03  0.12509000000E+03 0.  0.
<mgrwt>
<rscale>  2 0.44828653E+03</rscale>
<asrwt>0</asrwt>
<pdfrwt beam="1">  1       21 0.13538852E-01 0.44828653E+03</pdfrwt>
<pdfrwt beam="2">  1       21 0.80251235E-01 0.44828653E+03</pdfrwt>
<totfact> 0.59501796E+04</totfact>
</mgrwt>
</event>
<event>
 7    0  0.4752811E-002  0.4083564E+03  0.7546771E-02  0.1040924E+00
         21   -1    0    0  502  501  0.00000000000E+00  0.00000000000E+00  0.17664840584E+03  0.17664840584E+03  0.00000000000E+00 0. -1.
         21   -1    0    0  501  502 -0.00000000000E+00 -0.00000000000E+00 -0.23599835866E+03  0.23599835866E+03  0.00000000000E+00 0. -1.
      99926    2    1    2    0    0  0.00000000000E+00  0.00000000000E+00 -0.59349952822E+02  0.41264676451E+03  0.40835638278E+03 0.  0.
      99925    2    3    3    0    0  0.46611805884E+02  0.36342305511E+02 -0.30624011478E+02  0.27134527328E+03  0.26305323346E+03 0.  0.
         25    1    4    4    0    0  0.29305019252E+02  0.22680117286E+02  0.24734808165E+02  0.13278738912E+03  0.12509000000E+03 0.  0.
         25    1    3    3    0    0 -0.46611805884E+02 -0.36342305511E+02 -0.28725941344E+02  0.14130149123E+03  0.12509000000E+03 0.  0.
         25    1    4    4    0    0  0.17306786631E+02  0.13662188225E+02 -0.55358819643E+02  0.13855788416E+03  0.12509000000E+03 0.  0.
<mgrwt>
<rscale>  2 0.40835638E+03</rscale>
<asrwt>0</asrwt>
<pdfrwt beam="1">  1       21 0.25977707E-01 0.40835638E+03</pdfrwt>
<pdfrwt beam="2">  1       21 0.34705641E-01 0.40835638E+03</pdfrwt>
<totfact> 0.10607024E+05</totfact>
</mgrwt>
</event>
<event>
 7    0  0.4752811E-002  0.4849155E+03  0.7546771E-02  0.1017793E+00
         21   -1    0    0  502  501  0.00000000000E+00  0.00000000000E+00  0.53359196032E+03  0.53359196032E+03  0.00000000000E+00 0. -1.
         21   -1    0    0  501  502 -0.00000000000E+00 -0.00000000000E+00 -0.11016986711E+03  0.11016986711E+03  0.00000000000E+00 0. -1.
      99926    2    1    2    0    0  0.14210854715E-13  0.00000000000E+00  0.42342209321E+03  0.64376182743E+03  0.48491547864E+03 0.  0.
      99925    2    3    3    0    0  0.10346438016E+03  0.78310856208E+01  0.13648689581E+03  0.31399597190E+03  0.26305625592E+03 0.  0.
         25    1    4    4    0    0  0.68633952013E+02 -0.18087578111E+02  0.10449304741E+03  0.17777537768E+03  0.12509000000E+03 0.  0.
         25    1    3    3    0    0 -0.10346438016E+03 -0.78310856208E+01  0.28693519740E+03  0.32976585553E+03  0.12509000000E+03 0.  0.
         25    1    4    4    0    0  0.34830428146E+02  0.25918663732E+02  0.31993848399E+02  0.13622059422E+03  0.12509000000E+03 0.  0.
<mgrwt>
<rscale>  2 0.48491548E+03</rscale>
<asrwt>0</asrwt>
<pdfrwt beam="1">  1       21 0.78469405E-01 0.48491548E+03</pdfrwt>
<pdfrwt beam="2">  1       21 0.16201451E-01 0.48491548E+03</pdfrwt>
<totfact> 0.44569464E+04</totfact>
</mgrwt>
</event>
<event>
 7    0  0.4752811E-002  0.4552196E+03  0.7546771E-02  0.1026177E+00
         21   -1    0    0  502  501  0.00000000000E+00  0.00000000000E+00  0.59102004075E+03  0.59102004075E+03  0.00000000000E+00 0. -1.
         21   -1    0    0  501  502 -0.00000000000E+00 -0.00000000000E+00 -0.87655614985E+02  0.87655614985E+02  0.00000000000E+00 0. -1.
      99926    2    1    2    0    0  0.00000000000E+00  0.00000000000E+00  0.50336442576E+03  0.67867565573E+03  0.45521961794E+03 0.  0.
      99925    2    3    3    0    0  0.44097337950E+02 -0.10052511435E+03  0.35895250330E+03  0.45833005156E+03  0.26300125990E+03 0.  0.
         25    1    4    4    0    0  0.60728996861E+02 -0.38012147531E+02  0.18349942907E+03  0.23335055815E+03  0.12509000000E+03 0.  0.
         25    1    4    4    0    0 -0.16631658911E+02 -0.62512966814E+02  0.17545307423E+03  0.22497949341E+03  0.12509000000E+03 0.  0.
         25    1    3    3    0    0 -0.44097337950E+02  0.10052511435E+03  0.14441192246E+03  0.22034560417E+03  0.12509000000E+03 0.  0.
<mgrwt>
<rscale>  2 0.45521962E+03</rscale>
<asrwt>0</asrwt>
<pdfrwt beam="1">  1       21 0.86914710E-01 0.45521962E+03</pdfrwt>
<pdfrwt beam="2">  1       21 0.12890532E-01 0.45521962E+03</pdfrwt>
<totfact> 0.53983162E+04</totfact>
</mgrwt>
</event>
<event>
 7    0  0.4752811E-002  0.4559438E+03  0.7546771E-02  0.1025964E+00
         21   -1    0    0  502  501  0.00000000000E+00  0.00000000000E+00  0.21197522371E+04  0.21197522371E+04  0.00000000000E+00 0.  1.
         21   -1    0    0  501  502 -0.00000000000E+00 -0.00000000000E+00 -0.24517575873E+02  0.24517575873E+02  0.00000000000E+00 0.  1.
      99926    2    1    2    0    0  0.00000000000E+00  0.00000000000E+00  0.20952346612E+04  0.21442698130E+04  0.45594379612E+03 0.  0.
      99925    2    3    3    0    0 -0.11241748934E+03 -0.12544148823E+02  0.12460374262E+04  0.12784877967E+04  0.26291962898E+03 0.  0.
         25    1    4    4    0    0 -0.94705601804E+02 -0.88828941605E+01  0.60256089959E+03  0.62271598874E+03  0.12509000000E+03 0.  0.
         25    1    4    4    0    0 -0.17711887536E+02 -0.36612546623E+01  0.64347652664E+03  0.65577180801E+03  0.12509000000E+03 0.  0.
         25    1    3    3    0    0  0.11241748934E+03  0.12544148823E+02  0.84919723501E+03  0.86578201623E+03  0.12509000000E+03 0.  0.
<mgrwt>
<rscale>  2 0.45594380E+03</rscale>
<asrwt>0</asrwt>
<pdfrwt beam="1">  1       21 0.31172814E+00 0.45594380E+03</pdfrwt>
<pdfrwt beam="2">  1       21 0.36055273E-02 0.45594380E+03</pdfrwt>
<totfact> 0.11410279E+04</totfact>
</mgrwt>
</event>
<event>
 7    0  0.4752811E-002  0.4506114E+03  0.7546771E-02  0.1027540E+00
         21   -1    0    0  502  501  0.00000000000E+00  0.00000000000E+00  0.30648155703E+03  0.30648155703E+03  0.00000000000E+00 0. -1.
         21   -1    0    0  501  502 -0.00000000000E+00 -0.00000000000E+00 -0.16563041032E+03  0.16563041032E+03  0.00000000000E+00 0. -1.
      99926    2    1    2    0    0  0.00000000000E+00  0.00000000000E+00  0.14085114671E+03  0.47211196735E+03  0.45061143370E+03 0.  0.
      99925    2    3    3    0    0 -0.50668819249E+02 -0.94010613951E+02  0.11132418563E+03  0.30500519217E+03  0.26311550347E+03 0.  0.
         25    1    4    4    0    0 -0.31850634403E+02 -0.65365501029E+01  0.63086200874E+02  0.14382129967E+03  0.12509000000E+03 0.  0.
         25    1    3    3    0    0  0.50668819249E+02  0.94010613951E+02  0.29526961082E+02  0.16710677518E+03  0.12509000000E+03 0.  0.
         25    1    4    4    0    0 -0.18818184845E+02 -0.87474063848E+02  0.48237984753E+02  0.16118389250E+03  0.12509000000E+03 0.  0.
<mgrwt>
<rscale>  2 0.45061143E+03</rscale>
<asrwt>0</asrwt>
<pdfrwt beam="1">  1       21 0.45070817E-01 0.45061143E+03</pdfrwt>
<pdfrwt beam="2">  1       21 0.24357413E-01 0.45061143E+03</pdfrwt>
<totfact> 0.69673994E+04</totfact>
</mgrwt>
</event>
<event>
 7    0  0.4752811E-002  0.4709189E+03  0.7546771E-02  0.1021661E+00
         21   -1    0    0  502  501  0.00000000000E+00  0.00000000000E+00  0.45334157856E+02  0.45334157856E+02  0.00000000000E+00 0. -1.
         21   -1    0    0  501  502 -0.00000000000E+00 -0.00000000000E+00 -0.12229445103E+04  0.12229445103E+04  0.00000000000E+00 0. -1.
      99926    2    1    2    0    0 -0.14210854715E-13  0.71054273576E-14 -0.11776103524E+04  0.12682786682E+04  0.47091892924E+03 0.  0.
      99925    2    3    3    0    0  0.76997246854E+02 -0.47896899724E+02 -0.48950303963E+03  0.56303979297E+03  0.26301690750E+03 0.  0.
         25    1    3    3    0    0 -0.76997246854E+02  0.47896899724E+02 -0.68810731282E+03  0.70523887519E+03  0.12509000000E+03 0.  0.
         25    1    4    4    0    0  0.71351017338E+02 -0.80678019849E+01 -0.29411908874E+03  0.32758144570E+03  0.12509000000E+03 0.  0.
         25    1    4    4    0    0  0.56462295159E+01 -0.39829097739E+02 -0.19538395089E+03  0.23545834727E+03  0.12509000000E+03 0.  0.
<mgrwt>
<rscale>  2 0.47091893E+03</rscale>
<asrwt>0</asrwt>
<pdfrwt beam="1">  1       21 0.66667876E-02 0.47091893E+03</pdfrwt>
<pdfrwt beam="2">  1       21 0.17984479E+00 0.47091893E+03</pdfrwt>
<totfact> 0.26598479E+04</totfact>
</mgrwt>
</event>
<event>
 6    0  0.4752811E-002  0.4352727E+03  0.7546771E-02  0.1032207E+00
         21   -1    0    0  502  501  0.00000000000E+00  0.00000000000E+00  0.52835698590E+03  0.52835698590E+03  0.00000000000E+00 0. -1.
         21   -1    0    0  501  502 -0.00000000000E+00 -0.00000000000E+00 -0.89646927103E+02  0.89646927103E+02  0.00000000000E+00 0. -1.
      99926    2    1    2    0    0  0.00000000000E+00 -0.14210854715E-13  0.43871005880E+03  0.61800391300E+03  0.43527269705E+03 0.  0.
         25    1    3    3    0    0 -0.20010359325E+02 -0.19973349840E+02  0.16204972257E+03  0.20665664729E+03  0.12509000000E+03 0.  0.
         25    1    3    3    0    0 -0.13474156353E+02  0.89263715259E+02  0.17175921105E+03  0.23086424243E+03  0.12509000000E+03 0.  0.
         25    1    3    3    0    0  0.33484515678E+02 -0.69290365419E+02  0.10490112517E+03  0.18048302328E+03  0.12509000000E+03 0.  0.
<mgrwt>
<rscale>  2 0.43527270E+03</rscale>
<asrwt>0</asrwt>
<pdfrwt beam="1">  1       21 0.77699555E-01 0.43527270E+03</pdfrwt>
<pdfrwt beam="2">  1       21 0.13183372E-01 0.43527270E+03</pdfrwt>
<totfact> 0.67499106E+04</totfact>
</mgrwt>
</event>
<event>
 7    0  0.4752811E-002  0.4589922E+03  0.7546771E-02  0.1025074E+00
         21   -1    0    0  502  501  0.00000000000E+00  0.00000000000E+00  0.98304883867E+02  0.98304883867E+02  0.00000000000E+00 0.  1.
         21   -1    0    0  501  502 -0.00000000000E+00 -0.00000000000E+00 -0.53576642269E+03  0.53576642269E+03  0.00000000000E+00 0.  1.
      99926    2    1    2    0    0  0.00000000000E+00  0.00000000000E+00 -0.43746153882E+03  0.63407130656E+03  0.45899218278E+03 0.  0.
      99925    2    3    3    0    0  0.64763008159E+02 -0.88502117473E+02 -0.21741384623E+03  0.35821741926E+03  0.26272431731E+03 0.  0.
         25    1    3    3    0    0 -0.64763008159E+02  0.88502117473E+02 -0.22004769259E+03  0.27585388730E+03  0.12509000000E+03 0.  0.
         25    1    4    4    0    0  0.53418350290E+02 -0.51089296296E+02 -0.15696787601E+03  0.21389263322E+03  0.12509000000E+03 0.  0.
         25    1    4    4    0    0  0.11344657869E+02 -0.37412821177E+02 -0.60445970217E+02  0.14432478604E+03  0.12509000000E+03 0.  0.
<mgrwt>
<rscale>  2 0.45899218E+03</rscale>
<asrwt>0</asrwt>
<pdfrwt beam="1">  1       21 0.14456601E-01 0.45899218E+03</pdfrwt>
<pdfrwt beam="2">  1       21 0.78789180E-01 0.45899218E+03</pdfrwt>
<totfact> 0.54878742E+04</totfact>
</mgrwt>
</event>
<event>
 7    0  0.4752811E-002  0.4639442E+03  0.7546771E-02  0.1023643E+00
         21   -1    0    0  502  501  0.00000000000E+00  0.00000000000E+00  0.64126715991E+02  0.64126715991E+02  0.00000000000E+00 0. -1.
         21   -1    0    0  501  502 -0.00000000000E+00 -0.00000000000E+00 -0.83913623715E+03  0.83913623715E+03  0.00000000000E+00 0. -1.
      99926    2    1    2    0    0  0.00000000000E+00  0.00000000000E+00 -0.77500952115E+03  0.90326295314E+03  0.46394418267E+03 0.  0.
      99925    2    3    3    0    0  0.35191318373E+02  0.77055266559E+01 -0.25803043845E+03  0.37014693942E+03  0.26292821371E+03 0.  0.
         25    1    3    3    0    0 -0.35191318373E+02 -0.77055266559E+01 -0.51697908271E+03  0.53311601372E+03  0.12509000000E+03 0.  0.
         25    1    4    4    0    0  0.34351736724E+02 -0.40811019332E+01 -0.18115424608E+03  0.22284762997E+03  0.12509000000E+03 0.  0.
         25    1    4    4    0    0  0.83958164913E+00  0.11786628589E+02 -0.76876192364E+02  0.14729930945E+03  0.12509000000E+03 0.  0.
<mgrwt>
<rscale>  2 0.46394418E+03</rscale>
<asrwt>0</asrwt>
<pdfrwt beam="1">  1       21 0.94304001E-02 0.46394418E+03</pdfrwt>
<pdfrwt beam="2">  1       21 0.12340238E+00 0.46394418E+03</pdfrwt>
<totfact> 0.40202866E+04</totfact>
</mgrwt>
</event>
<event>
 7    0  0.4752811E-002  0.4549422E+03  0.7546771E-02  0.1026258E+00
         21   -1    0    0  502  501  0.00000000000E+00  0.00000000000E+00  0.52414301140E+03  0.52414301140E+03  0.00000000000E+00 0.  1.
         21   -1    0    0  501  502 -0.00000000000E+00 -0.00000000000E+00 -0.98719428733E+02  0.98719428733E+02  0.00000000000E+00 0.  1.
      99926    2    1    2    0    0 -0.66613381478E-15  0.00000000000E+00  0.42542358266E+03  0.62286244013E+03  0.45494218824E+03 0.  0.
      99925    2    3    3    0    0 -0.53087425285E+00  0.34689907518E+02  0.41531521981E+03  0.49265737644E+03  0.26271826590E+03 0.  0.
         25    1    4    4    0    0 -0.14090788533E+02  0.25861211034E+01  0.26913761883E+03  0.29713263758E+03  0.12509000000E+03 0.  0.
         25    1    4    4    0    0  0.13559914281E+02  0.32103786415E+02  0.14617760098E+03  0.19552473886E+03  0.12509000000E+03 0.  0.
         25    1    3    3    0    0  0.53087425285E+00 -0.34689907518E+02  0.10108362850E+02  0.13020506369E+03  0.12509000000E+03 0.  0.
<mgrwt>
<rscale>  2 0.45494219E+03</rscale>
<asrwt>0</asrwt>
<pdfrwt beam="1">  1       21 0.77079854E-01 0.45494219E+03</pdfrwt>
<pdfrwt beam="2">  1       21 0.14517563E-01 0.45494219E+03</pdfrwt>
<totfact> 0.57318800E+04</totfact>
</mgrwt>
</event>
<event>
 7    0  0.4752811E-002  0.4598051E+03  0.7546771E-02  0.1024838E+00
         21   -1    0    0  502  501  0.00000000000E+00  0.00000000000E+00  0.53518785714E+02  0.53518785714E+02  0.00000000000E+00 0.  1.
         21   -1    0    0  501  502 -0.00000000000E+00 -0.00000000000E+00 -0.98760059273E+03  0.98760059273E+03  0.00000000000E+00 0.  1.
      99926    2    1    2    0    0  0.00000000000E+00  0.00000000000E+00 -0.93408180702E+03  0.10411193784E+04  0.45980510869E+03 0.  0.
      99925    2    3    3    0    0  0.54753622485E+02  0.74969532372E+02 -0.42230935084E+03  0.50616429158E+03  0.26313249953E+03 0.  0.
         25    1    4    4    0    0  0.58322384849E+02  0.65653395665E+02 -0.21392097022E+03  0.26290979163E+03  0.12509000000E+03 0.  0.
         25    1    4    4    0    0 -0.35687623637E+01  0.93161367068E+01 -0.20838838063E+03  0.24325449995E+03  0.12509000000E+03 0.  0.
         25    1    3    3    0    0 -0.54753622485E+02 -0.74969532372E+02 -0.51177245618E+03  0.53495508686E+03  0.12509000000E+03 0.  0.
<mgrwt>
<rscale>  2 0.45980511E+03</rscale>
<asrwt>0</asrwt>
<pdfrwt beam="1">  1       21 0.78704095E-02 0.45980511E+03</pdfrwt>
<pdfrwt beam="2">  1       21 0.14523538E+00 0.45980511E+03</pdfrwt>
<totfact> 0.36226920E+04</totfact>
</mgrwt>
</event>
<event>
 7    0  0.4752811E-002  0.4483451E+03  0.7546771E-02  0.1028217E+00
         21   -1    0    0  502  501  0.00000000000E+00  0.00000000000E+00  0.15517352091E+03  0.15517352091E+03  0.00000000000E+00 0. -1.
         21   -1    0    0  501  502 -0.00000000000E+00 -0.00000000000E+00 -0.32385252662E+03  0.32385252662E+03  0.00000000000E+00 0. -1.
      99926    2    1    2    0    0  0.00000000000E+00 -0.71054273576E-14 -0.16867900570E+03  0.47902604753E+03  0.44834512069E+03 0.  0.
      99925    2    3    3    0    0 -0.29725662317E+02 -0.58346549476E+02 -0.19698174911E+03  0.33502435233E+03  0.26296686548E+03 0.  0.
         25    1    3    3    0    0  0.29725662317E+02  0.58346549476E+02  0.28302743404E+02  0.14400169520E+03  0.12509000000E+03 0.  0.
         25    1    4    4    0    0  0.14105861647E+02 -0.21046019433E+02 -0.12897787484E+03  0.18145167557E+03  0.12509000000E+03 0.  0.
         25    1    4    4    0    0 -0.43831523964E+02 -0.37300530042E+02 -0.68003874264E+02  0.15357267677E+03  0.12509000000E+03 0.  0.
<mgrwt>
<rscale>  2 0.44834512E+03</rscale>
<asrwt>0</asrwt>
<pdfrwt beam="1">  1       21 0.22819636E-01 0.44834512E+03</pdfrwt>
<pdfrwt beam="2">  1       21 0.47625371E-01 0.44834512E+03</pdfrwt>
<totfact> 0.70418134E+04</totfact>
</mgrwt>
</event>
<event>
 7    0  0.4752811E-002  0.4185132E+03  0.7546771E-02  0.1037551E+00
         21   -1    0    0  502  501  0.00000000000E+00  0.00000000000E+00  0.79212960850E+03  0.79212960850E+03  0.00000000000E+00 0. -1.
         21   -1    0    0  501  502 -0.00000000000E+00 -0.00000000000E+00 -0.55279245126E+02  0.55279245126E+02  0.00000000000E+00 0. -1.
      99926    2    1    2    0    0  0.00000000000E+00  0.00000000000E+00  0.73685036337E+03  0.84740885362E+03  0.41851321030E+03 0.  0.
      99925    2    3    3    0    0  0.20004879545E+02 -0.53107186525E+02  0.38509662959E+03  0.46978633603E+03  0.26301942691E+03 0.  0.
         25    1    3    3    0    0 -0.20004879545E+02  0.53107186525E+02  0.35175373378E+03  0.37762251760E+03  0.12509000000E+03 0.  0.
         25    1    4    4    0    0  0.17955077144E+02  0.13808620923E+02  0.18732775284E+03  0.22638961524E+03  0.12509000000E+03 0.  0.
         25    1    4    4    0    0  0.20498024011E+01 -0.66915807447E+02  0.19776887675E+03  0.24339672078E+03  0.12509000000E+03 0.  0.
<mgrwt>
<rscale>  2 0.41851321E+03</rscale>
<asrwt>0</asrwt>
<pdfrwt beam="1">  1       21 0.11648964E+00 0.41851321E+03</pdfrwt>
<pdfrwt beam="2">  1       21 0.81293012E-02 0.41851321E+03</pdfrwt>
<totfact> 0.61302330E+04</totfact>
</mgrwt>
</event>
<event>
 7    0  0.4752811E-002  0.4488939E+03  0.7546771E-02  0.1028052E+00
         21   -1    0    0  502  501  0.00000000000E+00  0.00000000000E+00  0.25771858031E+03  0.25771858031E+03  0.00000000000E+00 0.  1.
         21   -1    0    0  501  502 -0.00000000000E+00 -0.00000000000E+00 -0.19547075036E+03  0.19547075036E+03  0.00000000000E+00 0.  1.
      99926    2    1    2    0    0  0.00000000000E+00  0.35527136788E-14  0.62247829948E+02  0.45318933066E+03  0.44889394860E+03 0.  0.
      99925    2    3    3    0    0 -0.10655592240E+03 -0.92519778816E+01  0.48771347560E+02  0.28805639219E+03  0.26297923310E+03 0.  0.
         25    1    4    4    0    0 -0.72438671553E+02  0.31053344316E+02  0.19149342353E+02  0.14908345563E+03  0.12509000000E+03 0.  0.
         25    1    3    3    0    0  0.10655592240E+03  0.92519778816E+01  0.13476482388E+02  0.16513293848E+03  0.12509000000E+03 0.  0.
         25    1    4    4    0    0 -0.34117250845E+02 -0.40305322198E+02  0.29622005207E+02  0.13897293656E+03  0.12509000000E+03 0.  0.
<mgrwt>
<rscale>  2 0.44889395E+03</rscale>
<asrwt>0</asrwt>
<pdfrwt beam="1">  1       21 0.37899791E-01 0.44889395E+03</pdfrwt>
<pdfrwt beam="2">  1       21 0.28745698E-01 0.44889395E+03</pdfrwt>
<totfact> 0.72128568E+04</totfact>
</mgrwt>
</event>
<event>
 7    0  0.4752811E-002  0.4297652E+03  0.7546771E-02  0.1033934E+00
         21   -1    0    0  502  501  0.00000000000E+00  0.00000000000E+00  0.16066334818E+04  0.16066334818E+04  0.00000000000E+00 0.  1.
         21   -1    0    0  501  502 -0.00000000000E+00 -0.00000000000E+00 -0.28739929939E+02  0.28739929939E+02  0.00000000000E+00 0.  1.
      99926    2    1    2    0    0  0.17763568394E-14  0.00000000000E+00  0.15778935518E+04  0.16353734117E+04  0.42976520894E+03 0.  0.
      99925    2    3    3    0    0  0.11985962978E+02 -0.71713149965E+02  0.12022152038E+04  0.12327965017E+04  0.26301973156E+03 0.  0.
         25    1    3    3    0    0 -0.11985962978E+02  0.71713149965E+02  0.37567834805E+03  0.40257691002E+03  0.12509000000E+03 0.  0.
         25    1    4    4    0    0 -0.85072100885E+01 -0.38868836089E+02  0.43107025292E+03  0.45061317124E+03  0.12509000000E+03 0.  0.
         25    1    4    4    0    0  0.20493173067E+02 -0.32844313876E+02  0.77114495086E+03  0.78218333045E+03  0.12509000000E+03 0.  0.
<mgrwt>
<rscale>  2 0.42976521E+03</rscale>
<asrwt>0</asrwt>
<pdfrwt beam="1">  1       21 0.23626957E+00 0.42976521E+03</pdfrwt>
<pdfrwt beam="2">  1       21 0.42264614E-02 0.42976521E+03</pdfrwt>
<totfact> 0.25236683E+04</totfact>
</mgrwt>
</event>
<event>
 7    0  0.4752811E-002  0.4626945E+03  0.7546771E-02  0.1024003E+00
         21   -1    0    0  502  501  0.00000000000E+00  0.00000000000E+00  0.96621189182E+02  0.96621189182E+02  0.00000000000E+00 0. -1.
         21   -1    0    0  501  502 -0.00000000000E+00 -0.00000000000E+00 -0.55393184008E+03  0.55393184008E+03  0.00000000000E+00 0. -1.
      99926    2    1    2    0    0  0.00000000000E+00  0.00000000000E+00 -0.45731065089E+03  0.65055302926E+03  0.46269451310E+03 0.  0.
      99925    2    3    3    0    0  0.24674949717E+02 -0.94084553922E+02 -0.18564227818E+03  0.33605029594E+03  0.26268991135E+03 0.  0.
         25    1    4    4    0    0  0.15372742642E+02 -0.85339733075E+02 -0.80727187458E+02  0.17228922820E+03  0.12509000000E+03 0.  0.
         25    1    3    3    0    0 -0.24674949717E+02  0.94084553922E+02 -0.27166837271E+03  0.31450273332E+03  0.12509000000E+03 0.  0.
         25    1    4    4    0    0  0.93022070749E+01 -0.87448208468E+01 -0.10491509072E+03  0.16376106775E+03  0.12509000000E+03 0.  0.
<mgrwt>
<rscale>  2 0.46269451E+03</rscale>
<asrwt>0</asrwt>
<pdfrwt beam="1">  1       21 0.14208998E-01 0.46269451E+03</pdfrwt>
<pdfrwt beam="2">  1       21 0.81460566E-01 0.46269451E+03</pdfrwt>
<totfact> 0.52414624E+04</totfact>
</mgrwt>
</event>
<event>
 7    0  0.4752811E-002  0.4571008E+03  0.7546771E-02  0.1025625E+00
         21   -1    0    0  502  501  0.00000000000E+00  0.00000000000E+00  0.17253248014E+03  0.17253248014E+03  0.00000000000E+00 0.  1.
         21   -1    0    0  501  502 -0.00000000000E+00 -0.00000000000E+00 -0.30275622148E+03  0.30275622148E+03  0.00000000000E+00 0.  1.
      99926    2    1    2    0    0  0.00000000000E+00  0.00000000000E+00 -0.13022374134E+03  0.47528870163E+03  0.45710078439E+03 0.  0.
      99925    2    3    3    0    0 -0.10826978685E+03 -0.31934119430E+02 -0.58169232878E+02  0.29203615726E+03  0.26298160157E+03 0.  0.
         25    1    4    4    0    0 -0.74327702742E+02  0.16328250867E+02 -0.15192297562E+02  0.14720575117E+03  0.12509000000E+03 0.  0.
         25    1    3    3    0    0  0.10826978685E+03  0.31934119430E+02 -0.72054508458E+02  0.18325254437E+03  0.12509000000E+03 0.  0.
         25    1    4    4    0    0 -0.33942084103E+02 -0.48262370297E+02 -0.42976935316E+02  0.14483040609E+03  0.12509000000E+03 0.  0.
<mgrwt>
<rscale>  2 0.45710078E+03</rscale>
<asrwt>0</asrwt>
<pdfrwt beam="1">  1       21 0.25372424E-01 0.45710078E+03</pdfrwt>
<pdfrwt beam="2">  1       21 0.44522973E-01 0.45710078E+03</pdfrwt>
<totfact> 0.65938587E+04</totfact>
</mgrwt>
</event>
<event>
 7    0  0.4752811E-002  0.4609509E+03  0.7546771E-02  0.1024506E+00
         21   -1    0    0  502  501  0.00000000000E+00  0.00000000000E+00  0.10716471195E+03  0.10716471195E+03  0.00000000000E+00 0. -1.
         21   -1    0    0  501  502 -0.00000000000E+00 -0.00000000000E+00 -0.49567551709E+03  0.49567551709E+03  0.00000000000E+00 0. -1.
      99926    2    1    2    0    0  0.00000000000E+00  0.35527136788E-14 -0.38851080513E+03  0.60284022904E+03  0.46095086077E+03 0.  0.
      99925    2    3    3    0    0  0.36703112203E+02 -0.30661785002E+02 -0.38520826793E+03  0.46887874817E+03  0.26301066004E+03 0.  0.
         25    1    4    4    0    0 -0.19223579900E+02 -0.25835527303E+02 -0.20762553780E+03  0.24452585250E+03  0.12509000000E+03 0.  0.
         25    1    3    3    0    0 -0.36703112203E+02  0.30661785002E+02 -0.33025371993E+01  0.13396148087E+03  0.12509000000E+03 0.  0.
         25    1    4    4    0    0  0.55926692103E+02 -0.48262576986E+01 -0.17758273013E+03  0.22435289567E+03  0.12509000000E+03 0.  0.
<mgrwt>
<rscale>  2 0.46095086E+03</rscale>
<asrwt>0</asrwt>
<pdfrwt beam="1">  1       21 0.15759516E-01 0.46095086E+03</pdfrwt>
<pdfrwt beam="2">  1       21 0.72893460E-01 0.46095086E+03</pdfrwt>
<totfact> 0.55832067E+04</totfact>
</mgrwt>
</event>
<event>
 7    0  0.4752811E-002  0.4584430E+03  0.7546771E-02  0.1025234E+00
         21   -1    0    0  502  501  0.00000000000E+00  0.00000000000E+00  0.22971071279E+03  0.22971071279E+03  0.00000000000E+00 0.  1.
         21   -1    0    0  501  502 -0.00000000000E+00 -0.00000000000E+00 -0.22873330574E+03  0.22873330574E+03  0.00000000000E+00 0.  1.
      99926    2    1    2    0    0  0.14210854715E-13  0.88817841970E-15  0.97740705414E+00  0.45844401853E+03  0.45844297661E+03 0.  0.
      99925    2    3    3    0    0  0.80793372644E+02  0.33564880985E+01  0.84344612774E+02  0.28775004041E+03  0.26295862218E+03 0.  0.
         25    1    4    4    0    0  0.21405368564E+01  0.16578587720E+02  0.47897050717E+02  0.13498543268E+03  0.12509000000E+03 0.  0.
         25    1    4    4    0    0  0.78652835788E+02 -0.13222099622E+02  0.36447562057E+02  0.15276460773E+03  0.12509000000E+03 0.  0.
         25    1    3    3    0    0 -0.80793372644E+02 -0.33564880985E+01 -0.83367205720E+02  0.17069397812E+03  0.12509000000E+03 0.  0.
<mgrwt>
<rscale>  2 0.45844298E+03</rscale>
<asrwt>0</asrwt>
<pdfrwt beam="1">  1       21 0.33780987E-01 0.45844298E+03</pdfrwt>
<pdfrwt beam="2">  1       21 0.33637251E-01 0.45844298E+03</pdfrwt>
<totfact> 0.66449898E+04</totfact>
</mgrwt>
</event>
<event>
 7    0  0.4752811E-002  0.4522572E+03  0.7546771E-02  0.1027051E+00
         21   -1    0    0  502  501  0.00000000000E+00  0.00000000000E+00  0.65631818478E+03  0.65631818478E+03  0.00000000000E+00 0. -1.
         21   -1    0    0  501  502 -0.00000000000E+00 -0.00000000000E+00 -0.77910595539E+02  0.77910595539E+02  0.00000000000E+00 0. -1.
      99926    2    1    2    0    0  0.00000000000E+00  0.88817841970E-15  0.57840758924E+03  0.73422878032E+03  0.45225718630E+03 0.  0.
      99925    2    3    3    0    0 -0.10674632545E+03 -0.57074417500E+01  0.31929795918E+03  0.42728796945E+03  0.26305221765E+03 0.  0.
         25    1    4    4    0    0 -0.64666212693E+02  0.27291001383E+02  0.20147140155E+03  0.24731508559E+03  0.12509000000E+03 0.  0.
         25    1    3    3    0    0  0.10674632545E+03  0.57074417500E+01  0.25910963006E+03  0.30694081087E+03  0.12509000000E+03 0.  0.
         25    1    4    4    0    0 -0.42080112758E+02 -0.32998443133E+02  0.11782655763E+03  0.17997288385E+03  0.12509000000E+03 0.  0.
<mgrwt>
<rscale>  2 0.45225719E+03</rscale>
<asrwt>0</asrwt>
<pdfrwt beam="1">  1       21 0.96517377E-01 0.45225719E+03</pdfrwt>
<pdfrwt beam="2">  1       21 0.11457441E-01 0.45225719E+03</pdfrwt>
<totfact> 0.52200330E+04</totfact>
</mgrwt>
</event>
<event>
 7    0  0.4752811E-002  0.4597572E+03  0.7546771E-02  0.1024852E+00
         21   -1    0    0  502  501  0.00000000000E+00  0.00000000000E+00  0.40699384646E+03  0.40699384646E+03  0.00000000000E+00 0.  1.
         21   -1    0    0  501  502 -0.00000000000E+00 -0.00000000000E+00 -0.12984023837E+03  0.12984023837E+03  0.00000000000E+00 0.  1.
      99926    2    1    2    0    0  0.00000000000E+00  0.35527136788E-14  0.27715360809E+03  0.53683408483E+03  0.45975723176E+03 0.  0.
      99925    2    3    3    0    0  0.69227900585E+02 -0.20725127876E+02  0.65384564529E+02  0.28048340888E+03  0.26300906493E+03 0.  0.
         25    1    3    3    0    0 -0.69227900585E+02  0.20725127876E+02  0.21176904356E+03  0.25635067594E+03  0.12509000000E+03 0.  0.
         25    1    4    4    0    0  0.55919568524E+02 -0.38650201829E+02  0.56291875436E+02  0.15309186649E+03  0.12509000000E+03 0.  0.
         25    1    4    4    0    0  0.13308332061E+02  0.17925073953E+02  0.90926890929E+01  0.12739154239E+03  0.12509000000E+03 0.  0.
<mgrwt>
<rscale>  2 0.45975723E+03</rscale>
<asrwt>0</asrwt>
<pdfrwt beam="1">  1       21 0.59852036E-01 0.45975723E+03</pdfrwt>
<pdfrwt beam="2">  1       21 0.19094153E-01 0.45975723E+03</pdfrwt>
<totfact> 0.60435342E+04</totfact>
</mgrwt>
</event>
<event>
 7    0  0.4752811E-002  0.4575257E+03  0.7546771E-02  0.1025501E+00
         21   -1    0    0  502  501  0.00000000000E+00  0.00000000000E+00  0.65988720215E+02  0.65988720215E+02  0.00000000000E+00 0. -1.
         21   -1    0    0  501  502 -0.00000000000E+00 -0.00000000000E+00 -0.79305119620E+03  0.79305119620E+03  0.00000000000E+00 0. -1.
      99926    2    1    2    0    0 -0.71054273576E-14  0.71054273576E-14 -0.72706247598E+03  0.85903991641E+03  0.45752566486E+03 0.  0.
      99925    2    3    3    0    0 -0.50386523329E+02  0.49521837348E+02 -0.28519043309E+03  0.39440067518E+03  0.26311042424E+03 0.  0.
         25    1    4    4    0    0 -0.26211073016E+02  0.23991390255E+02 -0.20158816448E+03  0.23989144068E+03  0.12509000000E+03 0.  0.
         25    1    4    4    0    0 -0.24175450313E+02  0.25530447093E+02 -0.83602268612E+02  0.15450923449E+03  0.12509000000E+03 0.  0.
         25    1    3    3    0    0  0.50386523329E+02 -0.49521837348E+02 -0.44187204289E+03  0.46463924124E+03  0.12509000000E+03 0.  0.
<mgrwt>
<rscale>  2 0.45752566E+03</rscale>
<asrwt>0</asrwt>
<pdfrwt beam="1">  1       21 0.97042243E-02 0.45752566E+03</pdfrwt>
<pdfrwt beam="2">  1       21 0.11662517E+00 0.45752566E+03</pdfrwt>
<totfact> 0.44156353E+04</totfact>
</mgrwt>
</event>
<event>
 7    0  0.4752811E-002  0.4526447E+03  0.7546771E-02  0.1026936E+00
         21   -1    0    0  502  501  0.00000000000E+00  0.00000000000E+00  0.22700851734E+03  0.22700851734E+03  0.00000000000E+00 0. -1.
         21   -1    0    0  501  502 -0.00000000000E+00 -0.00000000000E+00 -0.22563824472E+03  0.22563824472E+03  0.00000000000E+00 0. -1.
      99926    2    1    2    0    0  0.14210854715E-13 -0.71054273576E-14  0.13702726209E+01  0.45264676205E+03  0.45264468797E+03 0.  0.
      99925    2    3    3    0    0  0.83175253276E+02 -0.62723456792E+02  0.38803725592E+02  0.28561045974E+03  0.26308791459E+03 0.  0.
         25    1    4    4    0    0  0.78088071959E+02 -0.12957283005E+02  0.25797222695E+02  0.15026191455E+03  0.12509000000E+03 0.  0.
         25    1    4    4    0    0  0.50871813168E+01 -0.49766173787E+02  0.13006502897E+02  0.13534854519E+03  0.12509000000E+03 0.  0.
         25    1    3    3    0    0 -0.83175253276E+02  0.62723456792E+02 -0.37433452971E+02  0.16703630231E+03  0.12509000000E+03 0.  0.
<mgrwt>
<rscale>  2 0.45264469E+03</rscale>
<asrwt>0</asrwt>
<pdfrwt beam="1">  1       21 0.33383606E-01 0.45264469E+03</pdfrwt>
<pdfrwt beam="2">  1       21 0.33182095E-01 0.45264469E+03</pdfrwt>
<totfact> 0.70025288E+04</totfact>
</mgrwt>
</event>
<event>
 7    0  0.4752811E-002  0.4432036E+03  0.7546771E-02  0.1029768E+00
         21   -1    0    0  502  501  0.00000000000E+00  0.00000000000E+00  0.73143654623E+03  0.73143654623E+03  0.00000000000E+00 0.  1.
         21   -1    0    0  501  502 -0.00000000000E+00 -0.00000000000E+00 -0.67138247889E+02  0.67138247889E+02  0.00000000000E+00 0.  1.
      99926    2    1    2    0    0  0.71054273576E-14  0.00000000000E+00  0.66429829834E+03  0.79857479412E+03  0.44320364690E+03 0.  0.
      99925    2    3    3    0    0 -0.52089063139E+02  0.50575110573E+02  0.55119072068E+03  0.61496666649E+03  0.26287198028E+03 0.  0.
         25    1    4    4    0    0 -0.14824788306E+02 -0.30344083076E+01  0.19870442179E+03  0.23528692552E+03  0.12509000000E+03 0.  0.
         25    1    3    3    0    0  0.52089063139E+02 -0.50575110573E+02  0.11310757765E+03  0.18360812763E+03  0.12509000000E+03 0.  0.
         25    1    4    4    0    0 -0.37264274833E+02  0.53609518880E+02  0.35248629889E+03  0.37967974097E+03  0.12509000000E+03 0.  0.
<mgrwt>
<rscale>  2 0.44320365E+03</rscale>
<asrwt>0</asrwt>
<pdfrwt beam="1">  1       21 0.10756419E+00 0.44320365E+03</pdfrwt>
<pdfrwt beam="2">  1       21 0.98732721E-02 0.44320365E+03</pdfrwt>
<totfact> 0.52530770E+04</totfact>
</mgrwt>
</event>
<event>
 7    0  0.4752811E-002  0.4560292E+03  0.7546771E-02  0.1025939E+00
         21   -1    0    0  502  501  0.00000000000E+00  0.00000000000E+00  0.36974012755E+03  0.36974012755E+03  0.00000000000E+00 0.  1.
         21   -1    0    0  501  502 -0.00000000000E+00 -0.00000000000E+00 -0.14061408068E+03  0.14061408068E+03  0.00000000000E+00 0.  1.
      99926    2    1    2    0    0 -0.14210854715E-13  0.00000000000E+00  0.22912604686E+03  0.51035420823E+03  0.45602924523E+03 0.  0.
      99925    2    3    3    0    0  0.71591368627E+02 -0.88415094109E+02  0.13401229159E+03  0.31635243641E+03  0.26301524062E+03 0.  0.
         25    1    3    3    0    0 -0.71591368627E+02  0.88415094109E+02  0.95113755271E+02  0.19400177182E+03  0.12509000000E+03 0.  0.
         25    1    4    4    0    0  0.71369880438E+02 -0.37548555390E+02  0.91822185365E+02  0.17487817380E+03  0.12509000000E+03 0.  0.
         25    1    4    4    0    0  0.22148818881E+00 -0.50866538719E+02  0.42190106227E+02  0.14147426261E+03  0.12509000000E+03 0.  0.
<mgrwt>
<rscale>  2 0.45602925E+03</rscale>
<asrwt>0</asrwt>
<pdfrwt beam="1">  1       21 0.54373548E-01 0.45602925E+03</pdfrwt>
<pdfrwt beam="2">  1       21 0.20678541E-01 0.45602925E+03</pdfrwt>
<totfact> 0.64024615E+04</totfact>
</mgrwt>
</event>
<event>
 7    0  0.4752811E-002  0.4563999E+03  0.7546771E-02  0.1025831E+00
         21   -1    0    0  502  501  0.00000000000E+00  0.00000000000E+00  0.38010524801E+03  0.38010524801E+03  0.00000000000E+00 0.  1.
         21   -1    0    0  501  502 -0.00000000000E+00 -0.00000000000E+00 -0.13700210351E+03  0.13700210351E+03  0.00000000000E+00 0.  1.
      99926    2    1    2    0    0  0.00000000000E+00 -0.66613381478E-15  0.24310314450E+03  0.51710735152E+03  0.45639990593E+03 0.  0.
      99925    2    3    3    0    0 -0.65657225894E+02  0.10679356179E+01  0.25910577952E+03  0.37492576261E+03  0.26290970063E+03 0.  0.
         25    1    4    4    0    0 -0.33167034503E+02 -0.13146387006E+02  0.18218422150E+03  0.22385593209E+03  0.12509000000E+03 0.  0.
         25    1    3    3    0    0  0.65657225894E+02 -0.10679356179E+01 -0.16002635024E+02  0.14218158891E+03  0.12509000000E+03 0.  0.
         25    1    4    4    0    0 -0.32490191391E+02  0.14214322624E+02  0.76921558023E+02  0.15106983052E+03  0.12509000000E+03 0.  0.
<mgrwt>
<rscale>  2 0.45639991E+03</rscale>
<asrwt>0</asrwt>
<pdfrwt beam="1">  1       21 0.55897830E-01 0.45639991E+03</pdfrwt>
<pdfrwt beam="2">  1       21 0.20147368E-01 0.45639991E+03</pdfrwt>
<totfact> 0.63377854E+04</totfact>
</mgrwt>
</event>
<event>
 7    0  0.4752811E-002  0.4618624E+03  0.7546771E-02  0.1024242E+00
         21   -1    0    0  502  501  0.00000000000E+00  0.00000000000E+00  0.77278767231E+03  0.77278767231E+03  0.00000000000E+00 0. -1.
         21   -1    0    0  501  502 -0.00000000000E+00 -0.00000000000E+00 -0.69008877682E+02  0.69008877682E+02  0.00000000000E+00 0. -1.
      99926    2    1    2    0    0  0.00000000000E+00 -0.14210854715E-13  0.70377879463E+03  0.84179655000E+03  0.46186236025E+03 0.  0.
      99925    2    3    3    0    0 -0.14913670944E+02 -0.96138972214E+02  0.31345887704E+03  0.42053384606E+03  0.26292038439E+03 0.  0.
         25    1    4    4    0    0 -0.75312591670E+01 -0.74251212125E+02  0.11864278045E+03  0.18786585592E+03  0.12509000000E+03 0.  0.
         25    1    3    3    0    0  0.14913670944E+02  0.96138972214E+02  0.39031991759E+03  0.42126270394E+03  0.12509000000E+03 0.  0.
         25    1    4    4    0    0 -0.73824117769E+01 -0.21887760089E+02  0.19481609659E+03  0.23266799014E+03  0.12509000000E+03 0.  0.
<mgrwt>
<rscale>  2 0.46186236E+03</rscale>
<asrwt>0</asrwt>
<pdfrwt beam="1">  1       21 0.11364524E+00 0.46186236E+03</pdfrwt>
<pdfrwt beam="2">  1       21 0.10148365E-01 0.46186236E+03</pdfrwt>
<totfact> 0.43423176E+04</totfact>
</mgrwt>
</event>
<event>
 7    0  0.4752811E-002  0.4368372E+03  0.7546771E-02  0.1031722E+00
         21   -1    0    0  502  501  0.00000000000E+00  0.00000000000E+00  0.31480870980E+03  0.31480870980E+03  0.00000000000E+00 0. -1.
         21   -1    0    0  501  502 -0.00000000000E+00 -0.00000000000E+00 -0.15154179558E+03  0.15154179558E+03  0.00000000000E+00 0. -1.
      99926    2    1    2    0    0  0.35527136788E-14  0.00000000000E+00  0.16326691421E+03  0.46635050538E+03  0.43683716485E+03 0.  0.
      99925    2    3    3    0    0  0.21650831870E+02 -0.24747372125E+02  0.91123650284E+01  0.26512345928E+03  0.26291866141E+03 0.  0.
         25    1    4    4    0    0 -0.90255096386E+01 -0.44455085848E+02  0.19194958480E+02  0.13443834651E+03  0.12509000000E+03 0.  0.
         25    1    4    4    0    0  0.30676341508E+02  0.19707713723E+02 -0.10082593452E+02  0.13068511277E+03  0.12509000000E+03 0.  0.
         25    1    3    3    0    0 -0.21650831870E+02  0.24747372125E+02  0.15415454918E+03  0.20122704610E+03  0.12509000000E+03 0.  0.
<mgrwt>
<rscale>  2 0.43683716E+03</rscale>
<asrwt>0</asrwt>
<pdfrwt beam="1">  1       21 0.46295399E-01 0.43683716E+03</pdfrwt>
<pdfrwt beam="2">  1       21 0.22285558E-01 0.43683716E+03</pdfrwt>
<totfact> 0.78416189E+04</totfact>
</mgrwt>
</event>
<event>
 7    0  0.4752811E-002  0.4641760E+03  0.7546771E-02  0.1023577E+00
         21   -1    0    0  502  501  0.00000000000E+00  0.00000000000E+00  0.99760545264E+02  0.99760545264E+02  0.00000000000E+00 0.  1.
         21   -1    0    0  501  502 -0.00000000000E+00 -0.00000000000E+00 -0.53994142487E+03  0.53994142487E+03  0.00000000000E+00 0.  1.
      99926    2    1    2    0    0  0.71054273576E-14  0.00000000000E+00 -0.44018087960E+03  0.63970197013E+03  0.46417604831E+03 0.  0.
      99925    2    3    3    0    0 -0.42489513728E+02 -0.32103096335E+02 -0.42548139206E+03  0.50295566998E+03  0.26285742029E+03 0.  0.
         25    1    4    4    0    0 -0.87732163119E+01 -0.52598216603E+02 -0.19431337454E+03  0.23716816257E+03  0.12509000000E+03 0.  0.
         25    1    3    3    0    0  0.42489513728E+02  0.32103096335E+02 -0.14699487539E+02  0.13674630015E+03  0.12509000000E+03 0.  0.
         25    1    4    4    0    0 -0.33716297416E+02  0.20495120267E+02 -0.23116801753E+03  0.26578750741E+03  0.12509000000E+03 0.  0.
<mgrwt>
<rscale>  2 0.46417605E+03</rscale>
<asrwt>0</asrwt>
<pdfrwt beam="1">  1       21 0.14670669E-01 0.46417605E+03</pdfrwt>
<pdfrwt beam="2">  1       21 0.79403150E-01 0.46417605E+03</pdfrwt>
<totfact> 0.52399599E+04</totfact>
</mgrwt>
</event>
<event>
 6    0  0.4752811E-002  0.4551976E+03  0.7546771E-02  0.1026183E+00
         21   -1    0    0  502  501  0.00000000000E+00  0.00000000000E+00  0.23470346962E+03  0.23470346962E+03  0.00000000000E+00 0. -1.
         21   -1    0    0  501  502 -0.00000000000E+00 -0.00000000000E+00 -0.22070923702E+03  0.22070923702E+03  0.00000000000E+00 0. -1.
      99926    2    1    2    0    0  0.00000000000E+00 -0.88817841970E-15  0.13994232601E+02  0.45541270664E+03  0.45519764370E+03 0.  0.
         25    1    3    3    0    0 -0.53519102510E+02  0.11899591343E+02  0.44506186490E+02  0.14364610452E+03  0.12509000000E+03 0.  0.
         25    1    3    3    0    0 -0.61650408869E+02 -0.73109347521E+01 -0.22786774696E+02  0.14149546947E+03  0.12509000000E+03 0.  0.
         25    1    3    3    0    0  0.11516951138E+03 -0.45886565913E+01 -0.77251791926E+01  0.17027113265E+03  0.12509000000E+03 0.  0.
<mgrwt>
<rscale>  2 0.45519764E+03</rscale>
<asrwt>0</asrwt>
<pdfrwt beam="1">  1       21 0.34515216E-01 0.45519764E+03</pdfrwt>
<pdfrwt beam="2">  1       21 0.32457241E-01 0.45519764E+03</pdfrwt>
<totfact> 0.68407638E+04</totfact>
</mgrwt>
</event>
<event>
 7    0  0.4752811E-002  0.4495229E+03  0.7546771E-02  0.1027864E+00
         21   -1    0    0  502  501  0.00000000000E+00  0.00000000000E+00  0.14813301138E+04  0.14813301138E+04  0.00000000000E+00 0.  1.
         21   -1    0    0  501  502 -0.00000000000E+00 -0.00000000000E+00 -0.34102934899E+02  0.34102934899E+02  0.00000000000E+00 0.  1.
      99926    2    1    2    0    0  0.00000000000E+00 -0.14210854715E-13  0.14472271789E+04  0.15154330487E+04  0.44952287789E+03 0.  0.
      99925    2    3    3    0    0  0.42423002045E+02 -0.95543875114E+02  0.10080216585E+04  0.10469489610E+04  0.26280433742E+03 0.  0.
         25    1    3    3    0    0 -0.42423002045E+02  0.95543875114E+02  0.43920552037E+03  0.46848408766E+03  0.12509000000E+03 0.  0.
         25    1    4    4    0    0  0.35297325362E+02 -0.66661215538E+02  0.40952280119E+03  0.43479426357E+03  0.12509000000E+03 0.  0.
         25    1    4    4    0    0  0.71256766827E+01 -0.28882659576E+02  0.59849885735E+03  0.61215469747E+03  0.12509000000E+03 0.  0.
<mgrwt>
<rscale>  2 0.44952288E+03</rscale>
<asrwt>0</asrwt>
<pdfrwt beam="1">  1       21 0.21784262E+00 0.44952288E+03</pdfrwt>
<pdfrwt beam="2">  1       21 0.50151385E-02 0.44952288E+03</pdfrwt>
<totfact> 0.24426116E+04</totfact>
</mgrwt>
</event>
<event>
 7    0  0.4752811E-002  0.4579522E+03  0.7546771E-02  0.1025377E+00
         21   -1    0    0  502  501  0.00000000000E+00  0.00000000000E+00  0.68562743315E+02  0.68562743315E+02  0.00000000000E+00 0. -1.
         21   -1    0    0  501  502 -0.00000000000E+00 -0.00000000000E+00 -0.76470189874E+03  0.76470189874E+03  0.00000000000E+00 0. -1.
      99926    2    1    2    0    0  0.00000000000E+00  0.00000000000E+00 -0.69613915543E+03  0.83326464206E+03  0.45795222456E+03 0.  0.
      99925    2    3    3    0    0 -0.89456785796E+02  0.44906367368E+02 -0.54323919774E+03  0.61180357659E+03  0.26301272216E+03 0.  0.
         25    1    4    4    0    0 -0.48556776506E+02 -0.16137047909E+02 -0.29017327380E+03  0.32010342358E+03  0.12509000000E+03 0.  0.
         25    1    4    4    0    0 -0.40900009290E+02  0.61043415277E+02 -0.25306592394E+03  0.29170015302E+03  0.12509000000E+03 0.  0.
         25    1    3    3    0    0  0.89456785796E+02 -0.44906367368E+02 -0.15289995769E+03  0.22146106546E+03  0.12509000000E+03 0.  0.
<mgrwt>
<rscale>  2 0.45795222E+03</rscale>
<asrwt>0</asrwt>
<pdfrwt beam="1">  1       21 0.10082756E-01 0.45795222E+03</pdfrwt>
<pdfrwt beam="2">  1       21 0.11245616E+00 0.45795222E+03</pdfrwt>
<totfact> 0.45142787E+04</totfact>
</mgrwt>
</event>
<event>
 7    0  0.4752811E-002  0.4523577E+03  0.7546771E-02  0.1027021E+00
         21   -1    0    0  502  501  0.00000000000E+00  0.00000000000E+00  0.21391014470E+03  0.21391014470E+03  0.00000000000E+00 0.  1.
         21   -1    0    0  501  502 -0.00000000000E+00 -0.00000000000E+00 -0.23915127047E+03  0.23915127047E+03  0.00000000000E+00 0.  1.
      99926    2    1    2    0    0  0.71054273576E-14  0.00000000000E+00 -0.25241125769E+02  0.45306141517E+03  0.45235774723E+03 0.  0.
      99925    2    3    3    0    0  0.44043990694E+02  0.93058925810E+02  0.24516183204E+02  0.28358240559E+03  0.26309333084E+03 0.  0.
         25    1    4    4    0    0  0.37752375376E+02  0.85171853483E+02  0.25736642704E+02  0.15808026237E+03  0.12509000000E+03 0.  0.
         25    1    4    4    0    0  0.62916153176E+01  0.78870723264E+01 -0.12204595000E+01  0.12550214323E+03  0.12509000000E+03 0.  0.
         25    1    3    3    0    0 -0.44043990694E+02 -0.93058925810E+02 -0.49757308972E+02  0.16947900957E+03  0.12509000000E+03 0.  0.
<mgrwt>
<rscale>  2 0.45235775E+03</rscale>
<asrwt>0</asrwt>
<pdfrwt beam="1">  1       21 0.31457374E-01 0.45235775E+03</pdfrwt>
<pdfrwt beam="2">  1       21 0.35169304E-01 0.45235775E+03</pdfrwt>
<totfact> 0.70155476E+04</totfact>
</mgrwt>
</event>
<event>
 7    0  0.4752811E-002  0.4547088E+03  0.7546771E-02  0.1026327E+00
         21   -1    0    0  502  501  0.00000000000E+00  0.00000000000E+00  0.18078857563E+03  0.18078857563E+03  0.00000000000E+00 0.  1.
         21   -1    0    0  501  502 -0.00000000000E+00 -0.00000000000E+00 -0.28591417723E+03  0.28591417723E+03  0.00000000000E+00 0.  1.
      99926    2    1    2    0    0  0.00000000000E+00  0.00000000000E+00 -0.10512560159E+03  0.46670275286E+03  0.45470877209E+03 0.  0.
      99925    2    3    3    0    0 -0.99652499009E+02 -0.20607166049E+02 -0.15810464641E+02  0.28236616495E+03  0.26291710569E+03 0.  0.
         25    1    4    4    0    0 -0.84009659064E+02  0.78161483965E+01 -0.24431916362E+02  0.15285006257E+03  0.12509000000E+03 0.  0.
         25    1    3    3    0    0  0.99652499009E+02  0.20607166049E+02 -0.89315136953E+02  0.18433658790E+03  0.12509000000E+03 0.  0.
         25    1    4    4    0    0 -0.15642839945E+02 -0.28423314445E+02  0.86214517204E+01  0.12951610238E+03  0.12509000000E+03 0.  0.
<mgrwt>
<rscale>  2 0.45470877E+03</rscale>
<asrwt>0</asrwt>
<pdfrwt beam="1">  1       21 0.26586556E-01 0.45470877E+03</pdfrwt>
<pdfrwt beam="2">  1       21 0.42046202E-01 0.45470877E+03</pdfrwt>
<totfact> 0.67838571E+04</totfact>
</mgrwt>
</event>
<event>
 7    0  0.4752811E-002  0.4688653E+03  0.7546771E-02  0.1022241E+00
         21   -1    0    0  502  501  0.00000000000E+00  0.00000000000E+00  0.10194856542E+03  0.10194856542E+03  0.00000000000E+00 0.  1.
         21   -1    0    0  501  502 -0.00000000000E+00 -0.00000000000E+00 -0.53908230610E+03  0.53908230610E+03  0.00000000000E+00 0.  1.
      99926    2    1    2    0    0  0.00000000000E+00  0.00000000000E+00 -0.43713374068E+03  0.64103087152E+03  0.46886530155E+03 0.  0.
      99925    2    3    3    0    0 -0.25947199738E+02 -0.10880042398E+03 -0.35029408573E+03  0.45208796161E+03  0.26299579674E+03 0.  0.
         25    1    4    4    0    0 -0.86435949137E+01 -0.21631254761E+02 -0.20173886980E+03  0.23851352708E+03  0.12509000000E+03 0.  0.
         25    1    4    4    0    0 -0.17303604825E+02 -0.87169169217E+02 -0.14855521594E+03  0.21357443453E+03  0.12509000000E+03 0.  0.
         25    1    3    3    0    0  0.25947199738E+02  0.10880042398E+03 -0.86839654945E+02  0.18894290990E+03  0.12509000000E+03 0.  0.
<mgrwt>
<rscale>  2 0.46886530E+03</rscale>
<asrwt>0</asrwt>
<pdfrwt beam="1">  1       21 0.14992436E-01 0.46886530E+03</pdfrwt>
<pdfrwt beam="2">  1       21 0.79276810E-01 0.46886530E+03</pdfrwt>
<totfact> 0.50467732E+04</totfact>
</mgrwt>
</event>
<event>
 7    0  0.4752811E-002  0.4713913E+03  0.7546771E-02  0.1021528E+00
         21   -1    0    0  502  501  0.00000000000E+00  0.00000000000E+00  0.38468241767E+02  0.38468241767E+02  0.00000000000E+00 0. -1.
         21   -1    0    0  501  502 -0.00000000000E+00 -0.00000000000E+00 -0.14441120344E+04  0.14441120344E+04  0.00000000000E+00 0. -1.
      99926    2    1    2    0    0 -0.26645352591E-14 -0.28421709430E-13 -0.14056437927E+04  0.14825802762E+04  0.47139134858E+03 0.  0.
      99925    2    3    3    0    0  0.49680855403E+01 -0.94904519922E+02 -0.11423498363E+04  0.11759815722E+04  0.26256039253E+03 0.  0.
         25    1    3    3    0    0 -0.49680855403E+01  0.94904519922E+02 -0.26329395635E+03  0.30659870405E+03  0.12509000000E+03 0.  0.
         25    1    4    4    0    0 -0.32194220393E+02 -0.67895434346E+02 -0.60786367070E+03  0.62513359219E+03  0.12509000000E+03 0.  0.
         25    1    4    4    0    0  0.37162305933E+02 -0.27009085577E+02 -0.53448616562E+03  0.55084797996E+03  0.12509000000E+03 0.  0.
<mgrwt>
<rscale>  2 0.47139135E+03</rscale>
<asrwt>0</asrwt>
<pdfrwt beam="1">  1       21 0.56570947E-02 0.47139135E+03</pdfrwt>
<pdfrwt beam="2">  1       21 0.21236940E+00 0.47139135E+03</pdfrwt>
<totfact> 0.21357812E+04</totfact>
</mgrwt>
</event>
<event>
 7    0  0.4752811E-002  0.4585110E+03  0.7546771E-02  0.1025214E+00
         21   -1    0    0  502  501  0.00000000000E+00  0.00000000000E+00  0.13364975147E+04  0.13364975147E+04  0.00000000000E+00 0.  1.
         21   -1    0    0  501  502 -0.00000000000E+00 -0.00000000000E+00 -0.39325240817E+02  0.39325240817E+02  0.00000000000E+00 0.  1.
      99926    2    1    2    0    0  0.00000000000E+00  0.00000000000E+00  0.12971722739E+04  0.13758227556E+04  0.45851101020E+03 0.  0.
      99925    2    3    3    0    0 -0.17197776558E+02 -0.54339806766E+02  0.11182105242E+04  0.11501606319E+04  0.26310857921E+03 0.  0.
         25    1    3    3    0    0  0.17197776558E+02  0.54339806766E+02  0.17896174967E+03  0.22566212368E+03  0.12509000000E+03 0.  0.
         25    1    4    4    0    0  0.83709513832E+01 -0.13843540502E+01  0.41631660525E+03  0.43478616948E+03  0.12509000000E+03 0.  0.
         25    1    4    4    0    0 -0.25568727941E+02 -0.52955452716E+02  0.70189391900E+03  0.71537446240E+03  0.12509000000E+03 0.  0.
<mgrwt>
<rscale>  2 0.45851101E+03</rscale>
<asrwt>0</asrwt>
<pdfrwt beam="1">  1       21 0.19654372E+00 0.45851101E+03</pdfrwt>
<pdfrwt beam="2">  1       21 0.57831245E-02 0.45851101E+03</pdfrwt>
<totfact> 0.26259567E+04</totfact>
</mgrwt>
</event>
<event>
 7    0  0.4752811E-002  0.4666011E+03  0.7546771E-02  0.1022884E+00
         21   -1    0    0  502  501  0.00000000000E+00  0.00000000000E+00  0.22350634800E+03  0.22350634800E+03  0.00000000000E+00 0. -1.
         21   -1    0    0  501  502 -0.00000000000E+00 -0.00000000000E+00 -0.24352392803E+03  0.24352392803E+03  0.00000000000E+00 0. -1.
      99926    2    1    2    0    0  0.00000000000E+00  0.00000000000E+00 -0.20017580031E+02  0.46703027603E+03  0.46660108789E+03 0.  0.
      99925    2    3    3    0    0 -0.80797218757E+02  0.90885505715E+02 -0.34224492869E+02  0.29199396499E+03  0.26325043965E+03 0.  0.
         25    1    4    4    0    0 -0.18539936313E+02  0.34437055107E+02 -0.50425639286E+02  0.14042753719E+03  0.12509000000E+03 0.  0.
         25    1    4    4    0    0 -0.62257282444E+02  0.56448450608E+02  0.16201146417E+02  0.15156642781E+03  0.12509000000E+03 0.  0.
         25    1    3    3    0    0  0.80797218757E+02 -0.90885505715E+02  0.14206912838E+02  0.17503631103E+03  0.12509000000E+03 0.  0.
<mgrwt>
<rscale>  2 0.46660109E+03</rscale>
<asrwt>0</asrwt>
<pdfrwt beam="1">  1       21 0.32868581E-01 0.46660109E+03</pdfrwt>
<pdfrwt beam="2">  1       21 0.35812342E-01 0.46660109E+03</pdfrwt>
<totfact> 0.61755923E+04</totfact>
</mgrwt>
</event>
<event>
 7    0  0.4752811E-002  0.4522139E+03  0.7546771E-02  0.1027064E+00
         21   -1    0    0  502  501  0.00000000000E+00  0.00000000000E+00  0.28396905727E+03  0.28396905727E+03  0.00000000000E+00 0.  1.
         21   -1    0    0  501  502 -0.00000000000E+00 -0.00000000000E+00 -0.18003497961E+03  0.18003497961E+03  0.00000000000E+00 0.  1.
      99926    2    1    2    0    0  0.00000000000E+00  0.00000000000E+00  0.10393407766E+03  0.46400403689E+03  0.45221394687E+03 0.  0.
      99925    2    3    3    0    0 -0.50566793496E+02  0.98209817923E+02  0.62544159698E+02  0.29206566900E+03  0.26303690645E+03 0.  0.
         25    1    4    4    0    0 -0.55512766638E+00  0.56820100720E+02 -0.11805669299E+01  0.13739626578E+03  0.12509000000E+03 0.  0.
         25    1    4    4    0    0 -0.50011665829E+02  0.41389717204E+02  0.63724726628E+02  0.15466940322E+03  0.12509000000E+03 0.  0.
         25    1    3    3    0    0  0.50566793496E+02 -0.98209817923E+02  0.41389917962E+02  0.17193836788E+03  0.12509000000E+03 0.  0.
<mgrwt>
<rscale>  2 0.45221395E+03</rscale>
<asrwt>0</asrwt>
<pdfrwt beam="1">  1       21 0.41760156E-01 0.45221395E+03</pdfrwt>
<pdfrwt beam="2">  1       21 0.26475732E-01 0.45221395E+03</pdfrwt>
<totfact> 0.69405766E+04</totfact>
</mgrwt>
</event>
<event>
 7    0  0.4752811E-002  0.4571087E+03  0.7546771E-02  0.1025623E+00
         21   -1    0    0  502  501  0.00000000000E+00  0.00000000000E+00  0.30542646147E+03  0.30542646147E+03  0.00000000000E+00 0. -1.
         21   -1    0    0  501  502 -0.00000000000E+00 -0.00000000000E+00 -0.17102999719E+03  0.17102999719E+03  0.00000000000E+00 0. -1.
      99926    2    1    2    0    0  0.00000000000E+00  0.00000000000E+00  0.13439646428E+03  0.47645645866E+03  0.45710868225E+03 0.  0.
      99925    2    3    3    0    0  0.40330126777E+02  0.64675911777E+02  0.17509399547E+03  0.32442590306E+03  0.26226850104E+03 0.  0.
         25    1    3    3    0    0 -0.40330126777E+02 -0.64675911777E+02 -0.40697531197E+02  0.15203055560E+03  0.12509000000E+03 0.  0.
         25    1    4    4    0    0  0.41230981635E+02  0.44263032446E+01  0.10714529516E+03  0.16984465956E+03  0.12509000000E+03 0.  0.
         25    1    4    4    0    0 -0.90085485791E+00  0.60249608533E+02  0.67948700313E+02  0.15458124350E+03  0.12509000000E+03 0.  0.
<mgrwt>
<rscale>  2 0.45710868E+03</rscale>
<asrwt>0</asrwt>
<pdfrwt beam="1">  1       21 0.44915656E-01 0.45710868E+03</pdfrwt>
<pdfrwt beam="2">  1       21 0.25151470E-01 0.45710868E+03</pdfrwt>
<totfact> 0.65850092E+04</totfact>
</mgrwt>
</event>
<event>
 7    0  0.4752811E-002  0.4458197E+03  0.7546771E-02  0.1028976E+00
         21   -1    0    0  502  501  0.00000000000E+00  0.00000000000E+00  0.47197260716E+03  0.47197260716E+03  0.00000000000E+00 0. -1.
         21   -1    0    0  501  502 -0.00000000000E+00 -0.00000000000E+00 -0.10527897413E+03  0.10527897413E+03  0.00000000000E+00 0. -1.
      99926    2    1    2    0    0  0.00000000000E+00  0.00000000000E+00  0.36669363303E+03  0.57725158129E+03  0.44581965815E+03 0.  0.
      99925    2    3    3    0    0 -0.34980559412E+02  0.40029360194E+02  0.11644358133E+03  0.29247344714E+03  0.26297456233E+03 0.  0.
         25    1    3    3    0    0  0.34980559412E+02 -0.40029360194E+02  0.25025005170E+03  0.28477813415E+03  0.12509000000E+03 0.  0.
         25    1    4    4    0    0  0.18015406342E+02  0.24589399847E+02  0.35387668794E+02  0.13352523602E+03  0.12509000000E+03 0.  0.
         25    1    4    4    0    0 -0.52995965753E+02  0.15439960347E+02  0.81055912536E+02  0.15894821112E+03  0.12509000000E+03 0.  0.
<mgrwt>
<rscale>  2 0.44581966E+03</rscale>
<asrwt>0</asrwt>
<pdfrwt beam="1">  1       21 0.69407736E-01 0.44581966E+03</pdfrwt>
<pdfrwt beam="2">  1       21 0.15482202E-01 0.44581966E+03</pdfrwt>
<totfact> 0.64668193E+04</totfact>
</mgrwt>
</event>
<event>
 7    0  0.4752811E-002  0.4508282E+03  0.7546771E-02  0.1027475E+00
         21   -1    0    0  502  501  0.00000000000E+00  0.00000000000E+00  0.97218287036E+03  0.97218287036E+03  0.00000000000E+00 0. -1.
         21   -1    0    0  501  502 -0.00000000000E+00 -0.00000000000E+00 -0.52265399023E+02  0.52265399023E+02  0.00000000000E+00 0. -1.
      99926    2    1    2    0    0  0.35527136788E-14  0.00000000000E+00  0.91991747134E+03  0.10244482694E+04  0.45082824066E+03 0.  0.
      99925    2    3    3    0    0  0.27329494827E+02 -0.14265054043E+02  0.81900952695E+03  0.86080134948E+03  0.26315768081E+03 0.  0.
         25    1    4    4    0    0  0.29072115178E+02  0.38040943539E+00  0.29278222899E+03  0.31970967189E+03  0.12509000000E+03 0.  0.
         25    1    3    3    0    0 -0.27329494827E+02  0.14265054043E+02  0.10090794438E+03  0.16364691990E+03  0.12509000000E+03 0.  0.
         25    1    4    4    0    0 -0.17426203509E+01 -0.14645463479E+02  0.52622729797E+03  0.54109167759E+03  0.12509000000E+03 0.  0.
<mgrwt>
<rscale>  2 0.45082824E+03</rscale>
<asrwt>0</asrwt>
<pdfrwt beam="1">  1       21 0.14296806E+00 0.45082824E+03</pdfrwt>
<pdfrwt beam="2">  1       21 0.76860887E-02 0.45082824E+03</pdfrwt>
<totfact> 0.39500094E+04</totfact>
</mgrwt>
</event>
<event>
 7    0  0.4752811E-002  0.4547526E+03  0.7546771E-02  0.1026314E+00
         21   -1    0    0  502  501  0.00000000000E+00  0.00000000000E+00  0.13682678992E+03  0.13682678992E+03  0.00000000000E+00 0. -1.
         21   -1    0    0  501  502 -0.00000000000E+00 -0.00000000000E+00 -0.37784983424E+03  0.37784983424E+03  0.00000000000E+00 0. -1.
      99926    2    1    2    0    0  0.00000000000E+00  0.00000000000E+00 -0.24102304432E+03  0.51467662417E+03  0.45475259160E+03 0.  0.
      99925    2    3    3    0    0  0.65038013492E+02 -0.10933199079E+02 -0.47794302941E+02  0.27523073751E+03  0.26290337662E+03 0.  0.
         25    1    3    3    0    0 -0.65038013492E+02  0.10933199079E+02 -0.19322874138E+03  0.23944588665E+03  0.12509000000E+03 0.  0.
         25    1    4    4    0    0  0.37677253513E+02 -0.40768382969E+02 -0.49322762907E+01  0.13694331649E+03  0.12509000000E+03 0.  0.
         25    1    4    4    0    0  0.27360759979E+02  0.29835183890E+02 -0.42862026651E+02  0.13828742102E+03  0.12509000000E+03 0.  0.
<mgrwt>
<rscale>  2 0.45475259E+03</rscale>
<asrwt>0</asrwt>
<pdfrwt beam="1">  1       21 0.20121587E-01 0.45475259E+03</pdfrwt>
<pdfrwt beam="2">  1       21 0.55566151E-01 0.45475259E+03</pdfrwt>
<totfact> 0.64377699E+04</totfact>
</mgrwt>
</event>
<event>
 7    0  0.4752811E-002  0.4549254E+03  0.7546771E-02  0.1026263E+00
         21   -1    0    0  502  501  0.00000000000E+00  0.00000000000E+00  0.19453350293E+03  0.19453350293E+03  0.00000000000E+00 0.  1.
         21   -1    0    0  501  502 -0.00000000000E+00 -0.00000000000E+00 -0.26596589504E+03  0.26596589504E+03  0.00000000000E+00 0.  1.
      99926    2    1    2    0    0  0.00000000000E+00 -0.35527136788E-14 -0.71432392117E+02  0.46049939797E+03  0.45492538827E+03 0.  0.
      99925    2    3    3    0    0  0.10968197129E+03  0.18445230455E+02 -0.23949698167E+02  0.28650952563E+03  0.26295200871E+03 0.  0.
         25    1    3    3    0    0 -0.10968197129E+03 -0.18445230455E+02 -0.47482693950E+02  0.17398987234E+03  0.12509000000E+03 0.  0.
         25    1    4    4    0    0  0.28425523507E+02  0.35340181872E+02  0.69675875524E+01  0.13324036257E+03  0.12509000000E+03 0.  0.
         25    1    4    4    0    0  0.81256447781E+02 -0.16894951417E+02 -0.30917285719E+02  0.15326916306E+03  0.12509000000E+03 0.  0.
<mgrwt>
<rscale>  2 0.45492539E+03</rscale>
<asrwt>0</asrwt>
<pdfrwt beam="1">  1       21 0.28607868E-01 0.45492539E+03</pdfrwt>
<pdfrwt beam="2">  1       21 0.39112632E-01 0.45492539E+03</pdfrwt>
<totfact> 0.68184727E+04</totfact>
</mgrwt>
</event>
<event>
 7    0  0.4752811E-002  0.4566958E+03  0.7546771E-02  0.1025744E+00
         21   -1    0    0  502  501  0.00000000000E+00  0.00000000000E+00  0.65865238735E+02  0.65865238735E+02  0.00000000000E+00 0. -1.
         21   -1    0    0  501  502 -0.00000000000E+00 -0.00000000000E+00 -0.79165815613E+03  0.79165815613E+03  0.00000000000E+00 0. -1.
      99926    2    1    2    0    0  0.71054273576E-14  0.00000000000E+00 -0.72579291740E+03  0.85752339487E+03  0.45669575628E+03 0.  0.
      99925    2    3    3    0    0 -0.55743652100E+02  0.96969512794E+02 -0.50460306248E+03  0.57988531898E+03  0.26293020243E+03 0.  0.
         25    1    4    4    0    0 -0.47317176992E+02  0.66678828308E+02 -0.20490567056E+03  0.25361155989E+03  0.12509000000E+03 0.  0.
         25    1    3    3    0    0  0.55743652100E+02 -0.96969512794E+02 -0.22118985492E+03  0.27763807589E+03  0.12509000000E+03 0.  0.
         25    1    4    4    0    0 -0.84264751083E+01  0.30290684486E+02 -0.29969739192E+03  0.32627375910E+03  0.12509000000E+03 0.  0.
<mgrwt>
<rscale>  2 0.45669576E+03</rscale>
<asrwt>0</asrwt>
<pdfrwt beam="1">  1       21 0.96860648E-02 0.45669576E+03</pdfrwt>
<pdfrwt beam="2">  1       21 0.11642031E+00 0.45669576E+03</pdfrwt>
<totfact> 0.44509673E+04</totfact>
</mgrwt>
</event>
<event>
 7    0  0.4752811E-002  0.4542631E+03  0.7546771E-02  0.1026458E+00
         21   -1    0    0  502  501  0.00000000000E+00  0.00000000000E+00  0.25858923316E+03  0.25858923316E+03  0.00000000000E+00 0. -1.
         21   -1    0    0  501  502 -0.00000000000E+00 -0.00000000000E+00 -0.19950076669E+03  0.19950076669E+03  0.00000000000E+00 0. -1.
      99926    2    1    2    0    0  0.00000000000E+00 -0.14210854715E-13  0.59088466465E+02  0.45808999985E+03  0.45426314080E+03 0.  0.
      99925    2    3    3    0    0  0.22504743407E+02  0.87121206146E+02  0.10527924448E+03  0.29722463965E+03  0.26298707014E+03 0.  0.
         25    1    4    4    0    0  0.25870576558E+02  0.26574544033E+02  0.87459426844E+02  0.15707371698E+03  0.12509000000E+03 0.  0.
         25    1    3    3    0    0 -0.22504743407E+02 -0.87121206146E+02 -0.46190778016E+02  0.16086536019E+03  0.12509000000E+03 0.  0.
         25    1    4    4    0    0 -0.33658331509E+01  0.60546662113E+02  0.17819817637E+02  0.14015092267E+03  0.12509000000E+03 0.  0.
<mgrwt>
<rscale>  2 0.45426314E+03</rscale>
<asrwt>0</asrwt>
<pdfrwt beam="1">  1       21 0.38027828E-01 0.45426314E+03</pdfrwt>
<pdfrwt beam="2">  1       21 0.29338348E-01 0.45426314E+03</pdfrwt>
<totfact> 0.68722927E+04</totfact>
</mgrwt>
</event>
<event>
 6    0  0.4752811E-002  0.4483052E+03  0.7546771E-02  0.1028229E+00
         21   -1    0    0  502  501  0.00000000000E+00  0.00000000000E+00  0.36438078571E+03  0.36438078571E+03  0.00000000000E+00 0. -1.
         21   -1    0    0  501  502 -0.00000000000E+00 -0.00000000000E+00 -0.13788979466E+03  0.13788979466E+03  0.00000000000E+00 0. -1.
      99926    2    1    2    0    0 -0.17763568394E-14  0.00000000000E+00  0.22649099105E+03  0.50227058037E+03  0.44830521621E+03 0.  0.
         25    1    3    3    0    0 -0.13038054392E+02  0.20995860561E+02  0.90110787080E+02  0.15613545104E+03  0.12509000000E+03 0.  0.
         25    1    3    3    0    0 -0.87618766307E+01  0.19196793999E+02 -0.32599016725E+02  0.13097897302E+03  0.12509000000E+03 0.  0.
         25    1    3    3    0    0  0.21799931023E+02 -0.40192654560E+02  0.16897922069E+03  0.21515615631E+03  0.12509000000E+03 0.  0.
<mgrwt>
<rscale>  2 0.44830522E+03</rscale>
<asrwt>0</asrwt>
<pdfrwt beam="1">  1       21 0.53585409E-01 0.44830522E+03</pdfrwt>
<pdfrwt beam="2">  1       21 0.20277911E-01 0.44830522E+03</pdfrwt>
<totfact> 0.68689464E+04</totfact>
</mgrwt>
</event>
<event>
 6    0  0.4752811E-002  0.4100760E+03  0.7546771E-02  0.1040346E+00
         21   -1    0    0  502  501  0.00000000000E+00  0.00000000000E+00  0.13806270712E+04  0.13806270712E+04  0.00000000000E+00 0.  1.
         21   -1    0    0  501  502 -0.00000000000E+00 -0.00000000000E+00 -0.30450347330E+02  0.30450347330E+02  0.00000000000E+00 0.  1.
      99926    2    1    2    0    0  0.99920072216E-15  0.00000000000E+00  0.13501767239E+04  0.14110774185E+04  0.41007596297E+03 0.  0.
         25    1    3    3    0    0  0.99028798856E+01 -0.65139880585E+02  0.50416287748E+03  0.52361148402E+03  0.12509000000E+03 0.  0.
         25    1    3    3    0    0 -0.10679931744E+02  0.70714692245E+01  0.48413192545E+03  0.50019525783E+03  0.12509000000E+03 0.  0.
         25    1    3    3    0    0  0.77705185794E+00  0.58068411361E+02  0.36188192093E+03  0.38727067667E+03  0.12509000000E+03 0.  0.
<mgrwt>
<rscale>  2 0.41007596E+03</rscale>
<asrwt>0</asrwt>
<pdfrwt beam="1">  1       21 0.20303335E+00 0.41007596E+03</pdfrwt>
<pdfrwt beam="2">  1       21 0.44779932E-02 0.41007596E+03</pdfrwt>
<totfact> 0.37528327E+04</totfact>
</mgrwt>
</event>
<event>
 7    0  0.4752811E-002  0.4479155E+03  0.7546771E-02  0.1028346E+00
         21   -1    0    0  502  501  0.00000000000E+00  0.00000000000E+00  0.10097820322E+04  0.10097820322E+04  0.00000000000E+00 0.  1.
         21   -1    0    0  501  502 -0.00000000000E+00 -0.00000000000E+00 -0.49671178527E+02  0.49671178527E+02  0.00000000000E+00 0.  1.
      99926    2    1    2    0    0  0.00000000000E+00  0.00000000000E+00  0.96011085365E+03  0.10594532107E+04  0.44791545450E+03 0.  0.
      99925    2    3    3    0    0 -0.68607113462E+02  0.81091496056E+02  0.61530145823E+03  0.67758439289E+03  0.26313866732E+03 0.  0.
         25    1    3    3    0    0  0.68607113462E+02 -0.81091496056E+02  0.34480939542E+03  0.38186881782E+03  0.12509000000E+03 0.  0.
         25    1    4    4    0    0 -0.24417691834E+02  0.77623802078E+02  0.36378188605E+03  0.39320026328E+03  0.12509000000E+03 0.  0.
         25    1    4    4    0    0 -0.44189421628E+02  0.34676939782E+01  0.25151957219E+03  0.28438412962E+03  0.12509000000E+03 0.  0.
<mgrwt>
<rscale>  2 0.44791545E+03</rscale>
<asrwt>0</asrwt>
<pdfrwt beam="1">  1       21 0.14849734E+00 0.44791545E+03</pdfrwt>
<pdfrwt beam="2">  1       21 0.73045857E-02 0.44791545E+03</pdfrwt>
<totfact> 0.39047103E+04</totfact>
</mgrwt>
</event>
<event>
 7    0  0.4752811E-002  0.4599235E+03  0.7546771E-02  0.1024803E+00
         21   -1    0    0  502  501  0.00000000000E+00  0.00000000000E+00  0.49211548364E+03  0.49211548364E+03  0.00000000000E+00 0.  1.
         21   -1    0    0  501  502 -0.00000000000E+00 -0.00000000000E+00 -0.10745933505E+03  0.10745933505E+03  0.00000000000E+00 0.  1.
      99926    2    1    2    0    0  0.00000000000E+00  0.00000000000E+00  0.38465614859E+03  0.59957481868E+03  0.45992348337E+03 0.  0.
      99925    2    3    3    0    0 -0.80354981419E+02 -0.12120011167E+02  0.13062721790E+03  0.30498693123E+03  0.26334338885E+03 0.  0.
         25    1    3    3    0    0  0.80354981419E+02  0.12120011167E+02  0.25402893069E+03  0.29458788745E+03  0.12509000000E+03 0.  0.
         25    1    4    4    0    0 -0.56528173394E+02 -0.41971084862E+02  0.82888130100E+02  0.16575571352E+03  0.12509000000E+03 0.  0.
         25    1    4    4    0    0 -0.23826808024E+02  0.29851073694E+02  0.47739087804E+02  0.13923121771E+03  0.12509000000E+03 0.  0.
<mgrwt>
<rscale>  2 0.45992348E+03</rscale>
<asrwt>0</asrwt>
<pdfrwt beam="1">  1       21 0.72369923E-01 0.45992348E+03</pdfrwt>
<pdfrwt beam="2">  1       21 0.15802844E-01 0.45992348E+03</pdfrwt>
<totfact> 0.56475111E+04</totfact>
</mgrwt>
</event>
<event>
 7    0  0.4752811E-002  0.3996297E+03  0.7546771E-02  0.1043908E+00
         21   -1    0    0  502  501  0.00000000000E+00  0.00000000000E+00  0.27878743763E+02  0.27878743763E+02  0.00000000000E+00 0.  1.
         21   -1    0    0  501  502 -0.00000000000E+00 -0.00000000000E+00 -0.14321295066E+04  0.14321295066E+04  0.00000000000E+00 0.  1.
      99926    2    1    2    0    0 -0.71054273576E-14  0.35527136788E-14 -0.14042507629E+04  0.14600082504E+04  0.39962968634E+03 0.  0.
      99925    2    3    3    0    0  0.36368394424E+02 -0.25742929040E+02 -0.92803431124E+03  0.96562482085E+03  0.26305560874E+03 0.  0.
         25    1    3    3    0    0 -0.36368394424E+02  0.25742929040E+02 -0.47621645163E+03  0.49438342955E+03  0.12509000000E+03 0.  0.
         25    1    4    4    0    0 -0.23164926775E+01  0.22686963749E+02 -0.45132441762E+03  0.46889370065E+03  0.12509000000E+03 0.  0.
         25    1    4    4    0    0  0.38684887101E+02 -0.48429892789E+02 -0.47670989362E+03  0.49673112020E+03  0.12509000000E+03 0.  0.
<mgrwt>
<rscale>  2 0.39962969E+03</rscale>
<asrwt>0</asrwt>
<pdfrwt beam="1">  1       21 0.40998148E-02 0.39962969E+03</pdfrwt>
<pdfrwt beam="2">  1       21 0.21060730E+00 0.39962969E+03</pdfrwt>
<totfact> 0.39076413E+04</totfact>
</mgrwt>
</event>
<event>
 7    0  0.4752811E-002  0.4613505E+03  0.7546771E-02  0.1024390E+00
         21   -1    0    0  502  501  0.00000000000E+00  0.00000000000E+00  0.47962611590E+02  0.47962611590E+02  0.00000000000E+00 0. -1.
         21   -1    0    0  501  502 -0.00000000000E+00 -0.00000000000E+00 -0.11094281970E+04  0.11094281970E+04  0.00000000000E+00 0. -1.
      99926    2    1    2    0    0  0.00000000000E+00  0.00000000000E+00 -0.10614655854E+04  0.11573908086E+04  0.46135051186E+03 0.  0.
      99925    2    3    3    0    0 -0.75232919255E+02 -0.64577712400E+02 -0.49953564357E+03  0.57323069294E+03  0.26311080375E+03 0.  0.
         25    1    4    4    0    0 -0.63180980590E+02 -0.28502600510E+02 -0.32571268260E+03  0.35572530730E+03  0.12509000000E+03 0.  0.
         25    1    3    3    0    0  0.75232919255E+02  0.64577712400E+02 -0.56192994181E+03  0.58416011562E+03  0.12509000000E+03 0.  0.
         25    1    4    4    0    0 -0.12051938665E+02 -0.36075111891E+02 -0.17382296097E+03  0.21750538564E+03  0.12509000000E+03 0.  0.
<mgrwt>
<rscale>  2 0.46135051E+03</rscale>
<asrwt>0</asrwt>
<pdfrwt beam="1">  1       21 0.70533253E-02 0.46135051E+03</pdfrwt>
<pdfrwt beam="2">  1       21 0.16315120E+00 0.46135051E+03</pdfrwt>
<totfact> 0.31926972E+04</totfact>
</mgrwt>
</event>
<event>
 7    0  0.4752811E-002  0.4624701E+03  0.7546771E-02  0.1024067E+00
         21   -1    0    0  502  501  0.00000000000E+00  0.00000000000E+00  0.91779807256E+02  0.91779807256E+02  0.00000000000E+00 0.  1.
         21   -1    0    0  501  502 -0.00000000000E+00 -0.00000000000E+00 -0.58258611189E+03  0.58258611189E+03  0.00000000000E+00 0.  1.
      99926    2    1    2    0    0  0.14210854715E-13 -0.88817841970E-15 -0.49080630463E+03  0.67436591915E+03  0.46247006848E+03 0.  0.
      99925    2    3    3    0    0 -0.10330645146E+03  0.34605622548E+01 -0.39574222349E+03  0.48629974455E+03  0.26304245986E+03 0.  0.
         25    1    4    4    0    0 -0.91629968621E+02  0.89174389915E+01 -0.19312972665E+03  0.24783496784E+03  0.12509000000E+03 0.  0.
         25    1    3    3    0    0  0.10330645146E+03 -0.34605622548E+01 -0.95064081144E+02  0.18806617460E+03  0.12509000000E+03 0.  0.
         25    1    4    4    0    0 -0.11676482839E+02 -0.54568767367E+01 -0.20261249684E+03  0.23846477671E+03  0.12509000000E+03 0.  0.
<mgrwt>
<rscale>  2 0.46247007E+03</rscale>
<asrwt>0</asrwt>
<pdfrwt beam="1">  1       21 0.13497031E-01 0.46247007E+03</pdfrwt>
<pdfrwt beam="2">  1       21 0.85674425E-01 0.46247007E+03</pdfrwt>
<totfact> 0.51233257E+04</totfact>
</mgrwt>
</event>
<event>
 7    0  0.4752811E-002  0.4530623E+03  0.7546771E-02  0.1026813E+00
         21   -1    0    0  502  501  0.00000000000E+00  0.00000000000E+00  0.48546015652E+02  0.48546015652E+02  0.00000000000E+00 0. -1.
         21   -1    0    0  501  502 -0.00000000000E+00 -0.00000000000E+00 -0.10570661687E+04  0.10570661687E+04  0.00000000000E+00 0. -1.
      99926    2    1    2    0    0 -0.14210854715E-13  0.14210854715E-13 -0.10085201531E+04  0.11056121844E+04  0.45306225079E+03 0.  0.
      99925    2    3    3    0    0 -0.69494939795E+02  0.68564100534E+02 -0.76161076379E+03  0.81211203590E+03  0.26447007543E+03 0.  0.
         25    1    4    4    0    0 -0.44839963656E+02  0.40107390136E+02 -0.51075818590E+03  0.52928315451E+03  0.12509000000E+03 0.  0.
         25    1    3    3    0    0  0.69494939795E+02 -0.68564100534E+02 -0.24690938929E+03  0.29350014848E+03  0.12509000000E+03 0.  0.
         25    1    4    4    0    0 -0.24654976139E+02  0.28456710398E+02 -0.25085257789E+03  0.28282888139E+03  0.12509000000E+03 0.  0.
<mgrwt>
<rscale>  2 0.45306225E+03</rscale>
<asrwt>0</asrwt>
<pdfrwt beam="1">  1       21 0.71391209E-02 0.45306225E+03</pdfrwt>
<pdfrwt beam="2">  1       21 0.15545089E+00 0.45306225E+03</pdfrwt>
<totfact> 0.35837708E+04</totfact>
</mgrwt>
</event>
<event>
 7    0  0.4752811E-002  0.4210657E+03  0.7546771E-02  0.1036720E+00
         21   -1    0    0  502  501  0.00000000000E+00  0.00000000000E+00  0.35442972269E+03  0.35442972269E+03  0.00000000000E+00 0. -1.
         21   -1    0    0  501  502 -0.00000000000E+00 -0.00000000000E+00 -0.12505745563E+03  0.12505745563E+03  0.00000000000E+00 0. -1.
      99926    2    1    2    0    0 -0.26645352591E-14  0.00000000000E+00  0.22937226705E+03  0.47948717832E+03  0.42106569236E+03 0.  0.
      99925    2    3    3    0    0  0.40354801473E+01 -0.55350361364E+02  0.21043065672E+03  0.34133421851E+03  0.26296014876E+03 0.  0.
         25    1    3    3    0    0 -0.40354801473E+01  0.55350361364E+02  0.18941610335E+02  0.13815295981E+03  0.12509000000E+03 0.  0.
         25    1    4    4    0    0 -0.21854439218E+02 -0.41229508855E+02  0.69191895853E+02  0.15037458384E+03  0.12509000000E+03 0.  0.
         25    1    4    4    0    0  0.25889919365E+02 -0.14120852509E+02  0.14123876087E+03  0.19095963466E+03  0.12509000000E+03 0.  0.
<mgrwt>
<rscale>  2 0.42106569E+03</rscale>
<asrwt>0</asrwt>
<pdfrwt beam="1">  1       21 0.52122018E-01 0.42106569E+03</pdfrwt>
<pdfrwt beam="2">  1       21 0.18390802E-01 0.42106569E+03</pdfrwt>
<totfact> 0.88205888E+04</totfact>
</mgrwt>
</event>
<event>
 7    0  0.4752811E-002  0.4504133E+03  0.7546771E-02  0.1027599E+00
         21   -1    0    0  502  501  0.00000000000E+00  0.00000000000E+00  0.88169972880E+02  0.88169972880E+02  0.00000000000E+00 0. -1.
         21   -1    0    0  501  502 -0.00000000000E+00 -0.00000000000E+00 -0.57523034965E+03  0.57523034965E+03  0.00000000000E+00 0. -1.
      99926    2    1    2    0    0  0.00000000000E+00 -0.71054273576E-14 -0.48706037677E+03  0.66340032253E+03  0.45041334052E+03 0.  0.
      99925    2    3    3    0    0 -0.60306847143E+02  0.40181231519E+02 -0.18759189706E+03  0.33086412057E+03  0.26273351377E+03 0.  0.
         25    1    4    4    0    0 -0.51181391463E+01 -0.12940630773E+02 -0.87231587662E+02  0.15313560415E+03  0.12509000000E+03 0.  0.
         25    1    4    4    0    0 -0.55188707997E+02  0.53121862292E+02 -0.10036030940E+03  0.17772851642E+03  0.12509000000E+03 0.  0.
         25    1    3    3    0    0  0.60306847143E+02 -0.40181231519E+02 -0.29946847971E+03  0.33253620196E+03  0.12509000000E+03 0.  0.
<mgrwt>
<rscale>  2 0.45041334E+03</rscale>
<asrwt>0</asrwt>
<pdfrwt beam="1">  1       21 0.12966172E-01 0.45041334E+03</pdfrwt>
<pdfrwt beam="2">  1       21 0.84592699E-01 0.45041334E+03</pdfrwt>
<totfact> 0.56967565E+04</totfact>
</mgrwt>
</event>
<event>
 7    0  0.4752811E-002  0.4573172E+03  0.7546771E-02  0.1025562E+00
         21   -1    0    0  502  501  0.00000000000E+00  0.00000000000E+00  0.12131469320E+03  0.12131469320E+03  0.00000000000E+00 0. -1.
         21   -1    0    0  501  502 -0.00000000000E+00 -0.00000000000E+00 -0.43098456526E+03  0.43098456526E+03  0.00000000000E+00 0. -1.
      99926    2    1    2    0    0  0.00000000000E+00  0.00000000000E+00 -0.30966987206E+03  0.55229925845E+03  0.45731722166E+03 0.  0.
      99925    2    3    3    0    0  0.52531363753E+02 -0.10111481154E+03 -0.21598731913E+03  0.35888861212E+03  0.26299575015E+03 0.  0.
         25    1    4    4    0    0 -0.10819834691E+01 -0.16169873721E+02 -0.91602251218E+02  0.15588815232E+03  0.12509000000E+03 0.  0.
         25    1    3    3    0    0 -0.52531363753E+02  0.10111481154E+03 -0.93682552928E+02  0.19341064633E+03  0.12509000000E+03 0.  0.
         25    1    4    4    0    0  0.53613347222E+02 -0.84944937819E+02 -0.12438506791E+03  0.20300045980E+03  0.12509000000E+03 0.  0.
<mgrwt>
<rscale>  2 0.45731722E+03</rscale>
<asrwt>0</asrwt>
<pdfrwt beam="1">  1       21 0.17840396E-01 0.45731722E+03</pdfrwt>
<pdfrwt beam="2">  1       21 0.63380082E-01 0.45731722E+03</pdfrwt>
<totfact> 0.60596276E+04</totfact>
</mgrwt>
</event>
<event>
 7    0  0.4752811E-002  0.4763401E+03  0.7546771E-02  0.1020146E+00
         21   -1    0    0  502  501  0.00000000000E+00  0.00000000000E+00  0.44972214201E+03  0.44972214201E+03  0.00000000000E+00 0. -1.
         21   -1    0    0  501  502 -0.00000000000E+00 -0.00000000000E+00 -0.12613336143E+03  0.12613336143E+03  0.00000000000E+00 0. -1.
      99926    2    1    2    0    0 -0.35527136788E-14  0.00000000000E+00  0.32358878058E+03  0.57585550345E+03  0.47634006963E+03 0.  0.
      99925    2    3    3    0    0  0.27228537289E+02  0.84722224343E+02  0.31806244581E+03  0.42224138620E+03  0.26306809052E+03 0.  0.
         25    1    4    4    0    0 -0.17731750600E+01  0.77759671845E+01  0.17431586206E+03  0.21470243986E+03  0.12509000000E+03 0.  0.
         25    1    3    3    0    0 -0.27228537289E+02 -0.84722224343E+02  0.55263347683E+01  0.15361411724E+03  0.12509000000E+03 0.  0.
         25    1    4    4    0    0  0.29001712349E+02  0.76946257159E+02  0.14374658375E+03  0.20753894634E+03  0.12509000000E+03 0.  0.
<mgrwt>
<rscale>  2 0.47634007E+03</rscale>
<asrwt>0</asrwt>
<pdfrwt beam="1">  1       21 0.66135609E-01 0.47634007E+03</pdfrwt>
<pdfrwt beam="2">  1       21 0.18549024E-01 0.47634007E+03</pdfrwt>
<totfact> 0.51019816E+04</totfact>
</mgrwt>
</event>
<event>
 7    0  0.4752811E-002  0.4589074E+03  0.7546771E-02  0.1025099E+00
         21   -1    0    0  502  501  0.00000000000E+00  0.00000000000E+00  0.36480724484E+03  0.36480724484E+03  0.00000000000E+00 0.  1.
         21   -1    0    0  501  502 -0.00000000000E+00 -0.00000000000E+00 -0.14432003468E+03  0.14432003468E+03  0.00000000000E+00 0.  1.
      99926    2    1    2    0    0  0.00000000000E+00 -0.44408920985E-15  0.22048721015E+03  0.50912727952E+03  0.45890737291E+03 0.  0.
      99925    2    3    3    0    0 -0.84554318328E+02 -0.24994355570E+01  0.49554839257E+02  0.28104601452E+03  0.26339229346E+03 0.  0.
         25    1    3    3    0    0  0.84554318328E+02  0.24994355570E+01  0.17093237090E+03  0.22808126501E+03  0.12509000000E+03 0.  0.
         25    1    4    4    0    0 -0.25232161967E+02 -0.19441241806E+02  0.57573302513E+02  0.14133936869E+03  0.12509000000E+03 0.  0.
         25    1    4    4    0    0 -0.59322156361E+02  0.16941806249E+02 -0.80184632557E+01  0.13970664582E+03  0.12509000000E+03 0.  0.
<mgrwt>
<rscale>  2 0.45890737E+03</rscale>
<asrwt>0</asrwt>
<pdfrwt beam="1">  1       21 0.53648124E-01 0.45890737E+03</pdfrwt>
<pdfrwt beam="2">  1       21 0.21223534E-01 0.45890737E+03</pdfrwt>
<totfact> 0.62667921E+04</totfact>
</mgrwt>
</event>
<event>
 7    0  0.4752811E-002  0.4568107E+03  0.7546771E-02  0.1025710E+00
         21   -1    0    0  502  501  0.00000000000E+00  0.00000000000E+00  0.44348496008E+03  0.44348496008E+03  0.00000000000E+00 0. -1.
         21   -1    0    0  501  502 -0.00000000000E+00 -0.00000000000E+00 -0.11763422804E+03  0.11763422804E+03  0.00000000000E+00 0. -1.
      99926    2    1    2    0    0  0.71054273576E-14  0.00000000000E+00  0.32585073204E+03  0.56111918813E+03  0.45681073074E+03 0.  0.
      99925    2    3    3    0    0 -0.52952464719E+02  0.41162492057E+02  0.90215366584E+02  0.28603765871E+03  0.26302170169E+03 0.  0.
         25    1    4    4    0    0 -0.67843081290E+02  0.22446026902E+02  0.49605480943E+02  0.15236377405E+03  0.12509000000E+03 0.  0.
         25    1    3    3    0    0  0.52952464719E+02 -0.41162492057E+02  0.23563536545E+03  0.27508152941E+03  0.12509000000E+03 0.  0.
         25    1    4    4    0    0  0.14890616570E+02  0.18716465155E+02  0.40609885641E+02  0.13367388467E+03  0.12509000000E+03 0.  0.
<mgrwt>
<rscale>  2 0.45681073E+03</rscale>
<asrwt>0</asrwt>
<pdfrwt beam="1">  1       21 0.65218376E-01 0.45681073E+03</pdfrwt>
<pdfrwt beam="2">  1       21 0.17299151E-01 0.45681073E+03</pdfrwt>
<totfact> 0.60269820E+04</totfact>
</mgrwt>
</event>
<event>
 7    0  0.4752811E-002  0.4460880E+03  0.7546771E-02  0.1028895E+00
         21   -1    0    0  502  501  0.00000000000E+00  0.00000000000E+00  0.17568627329E+04  0.17568627329E+04  0.00000000000E+00 0.  1.
         21   -1    0    0  501  502 -0.00000000000E+00 -0.00000000000E+00 -0.28316734076E+02  0.28316734076E+02  0.00000000000E+00 0.  1.
      99926    2    1    2    0    0  0.00000000000E+00  0.00000000000E+00  0.17285459988E+04  0.17851794670E+04  0.44608795014E+03 0.  0.
      99925    2    3    3    0    0  0.88266816830E+02 -0.51663626250E+02  0.10110106150E+04  0.10496764443E+04  0.26309316379E+03 0.  0.
         25    1    4    4    0    0  0.23086054956E+02  0.11464195693E+02  0.45128567622E+03  0.46901030199E+03  0.12509000000E+03 0.  0.
         25    1    4    4    0    0  0.65180761874E+02 -0.63127821942E+02  0.55972493878E+03  0.58066614230E+03  0.12509000000E+03 0.  0.
         25    1    3    3    0    0 -0.88266816830E+02  0.51663626250E+02  0.71753538381E+03  0.73550302266E+03  0.12509000000E+03 0.  0.
<mgrwt>
<rscale>  2 0.44608795E+03</rscale>
<asrwt>0</asrwt>
<pdfrwt beam="1">  1       21 0.25836209E+00 0.44608795E+03</pdfrwt>
<pdfrwt beam="2">  1       21 0.41642268E-02 0.44608795E+03</pdfrwt>
<totfact> 0.18814224E+04</totfact>
</mgrwt>
</event>
<event>
 7    0  0.4752811E-002  0.4528568E+03  0.7546771E-02  0.1026874E+00
         21   -1    0    0  502  501  0.00000000000E+00  0.00000000000E+00  0.12571051415E+04  0.12571051415E+04  0.00000000000E+00 0. -1.
         21   -1    0    0  501  502 -0.00000000000E+00 -0.00000000000E+00 -0.40784029669E+02  0.40784029669E+02  0.00000000000E+00 0. -1.
      99926    2    1    2    0    0  0.00000000000E+00  0.00000000000E+00  0.12163211119E+04  0.12978891712E+04  0.45285676936E+03 0.  0.
      99925    2    3    3    0    0  0.33597082290E+02  0.70958614442E+02  0.99266450186E+03  0.10298711192E+04  0.26284562008E+03 0.  0.
         25    1    4    4    0    0  0.26732090340E+02  0.27957359440E+02  0.63762095996E+03  0.65092566033E+03  0.12509000000E+03 0.  0.
         25    1    3    3    0    0 -0.33597082290E+02 -0.70958614442E+02  0.22365660999E+03  0.26801805199E+03  0.12509000000E+03 0.  0.
         25    1    4    4    0    0  0.68649919503E+01  0.43001255002E+02  0.35504354190E+03  0.37894545886E+03  0.12509000000E+03 0.  0.
<mgrwt>
<rscale>  2 0.45285677E+03</rscale>
<asrwt>0</asrwt>
<pdfrwt beam="1">  1       21 0.18486838E+00 0.45285677E+03</pdfrwt>
<pdfrwt beam="2">  1       21 0.59976522E-02 0.45285677E+03</pdfrwt>
<totfact> 0.29667495E+04</totfact>
</mgrwt>
</event>
<event>
 7    0  0.4752811E-002  0.4551631E+03  0.7546771E-02  0.1026193E+00
         21   -1    0    0  502  501  0.00000000000E+00  0.00000000000E+00  0.15788443831E+03  0.15788443831E+03  0.00000000000E+00 0.  1.
         21   -1    0    0  501  502 -0.00000000000E+00 -0.00000000000E+00 -0.32804602407E+03  0.32804602407E+03  0.00000000000E+00 0.  1.
      99926    2    1    2    0    0  0.00000000000E+00 -0.71054273576E-14 -0.17016158577E+03  0.48593046238E+03  0.45516310153E+03 0.  0.
      99925    2    3    3    0    0  0.67155455549E+02 -0.54402779646E+02 -0.28797699805E+02  0.27832320336E+03  0.26299235801E+03 0.  0.
         25    1    3    3    0    0 -0.67155455549E+02  0.54402779646E+02 -0.14136388596E+03  0.20760725902E+03  0.12509000000E+03 0.  0.
         25    1    4    4    0    0  0.37309129912E+02 -0.65750067913E+02 -0.51382426190E+00  0.14616023646E+03  0.12509000000E+03 0.  0.
         25    1    4    4    0    0  0.29846325637E+02  0.11347288267E+02 -0.28283875543E+02  0.13216296690E+03  0.12509000000E+03 0.  0.
<mgrwt>
<rscale>  2 0.45516310E+03</rscale>
<asrwt>0</asrwt>
<pdfrwt beam="1">  1       21 0.23218300E-01 0.45516310E+03</pdfrwt>
<pdfrwt beam="2">  1       21 0.48242061E-01 0.45516310E+03</pdfrwt>
<totfact> 0.66185142E+04</totfact>
</mgrwt>
</event>
<event>
 7    0  0.4752811E-002  0.4563095E+03  0.7546771E-02  0.1025857E+00
         21   -1    0    0  502  501  0.00000000000E+00  0.00000000000E+00  0.39323306202E+03  0.39323306202E+03  0.00000000000E+00 0. -1.
         21   -1    0    0  501  502 -0.00000000000E+00 -0.00000000000E+00 -0.13237590735E+03  0.13237590735E+03  0.00000000000E+00 0. -1.
      99926    2    1    2    0    0  0.00000000000E+00  0.35527136788E-14  0.26085715467E+03  0.52560896937E+03  0.45630947123E+03 0.  0.
      99925    2    3    3    0    0  0.11083982971E+03 -0.20672604444E+02  0.14106662891E+03  0.31894474269E+03  0.26289376310E+03 0.  0.
         25    1    4    4    0    0  0.27128276011E+02  0.21174176055E+02  0.67983412316E+02  0.14647027528E+03  0.12509000000E+03 0.  0.
         25    1    3    3    0    0 -0.11083982971E+03  0.20672604444E+02  0.11979052576E+03  0.20666422668E+03  0.12509000000E+03 0.  0.
         25    1    4    4    0    0  0.83711553702E+02 -0.41846780499E+02  0.73083216593E+02  0.17247446741E+03  0.12509000000E+03 0.  0.
<mgrwt>
<rscale>  2 0.45630947E+03</rscale>
<asrwt>0</asrwt>
<pdfrwt beam="1">  1       21 0.57828391E-01 0.45630947E+03</pdfrwt>
<pdfrwt beam="2">  1       21 0.19467045E-01 0.45630947E+03</pdfrwt>
<totfact> 0.62849788E+04</totfact>
</mgrwt>
</event>
<event>
 7    0  0.4752811E-002  0.4720089E+03  0.7546771E-02  0.1021355E+00
         21   -1    0    0  502  501  0.00000000000E+00  0.00000000000E+00  0.23064552995E+03  0.23064552995E+03  0.00000000000E+00 0. -1.
         21   -1    0    0  501  502 -0.00000000000E+00 -0.00000000000E+00 -0.24148791275E+03  0.24148791275E+03  0.00000000000E+00 0. -1.
      99926    2    1    2    0    0  0.00000000000E+00  0.00000000000E+00 -0.10842382799E+02  0.47213344270E+03  0.47200893048E+03 0.  0.
      99925    2    3    3    0    0 -0.10905775138E+03  0.40580950813E+02 -0.61128892828E+02  0.29404175874E+03  0.26302738953E+03 0.  0.
         25    1    4    4    0    0 -0.96695665022E+02  0.29579382363E+02 -0.43571114431E+02  0.16664615689E+03  0.12509000000E+03 0.  0.
         25    1    3    3    0    0  0.10905775138E+03 -0.40580950813E+02  0.50286510029E+02  0.17809168396E+03  0.12509000000E+03 0.  0.
         25    1    4    4    0    0 -0.12362086355E+02  0.11001568450E+02 -0.17557778397E+02  0.12739560185E+03  0.12509000000E+03 0.  0.
<mgrwt>
<rscale>  2 0.47200893E+03</rscale>
<asrwt>0</asrwt>
<pdfrwt beam="1">  1       21 0.33918461E-01 0.47200893E+03</pdfrwt>
<pdfrwt beam="2">  1       21 0.35512928E-01 0.47200893E+03</pdfrwt>
<totfact> 0.58899800E+04</totfact>
</mgrwt>
</event>
<event>
 7    0  0.4752811E-002  0.4559974E+03  0.7546771E-02  0.1025948E+00
         21   -1    0    0  502  501  0.00000000000E+00  0.00000000000E+00  0.17428333480E+02  0.17428333480E+02  0.00000000000E+00 0. -1.
         21   -1    0    0  501  502 -0.00000000000E+00 -0.00000000000E+00 -0.29826957580E+04  0.29826957580E+04  0.00000000000E+00 0. -1.
      99926    2    1    2    0    0  0.00000000000E+00  0.00000000000E+00 -0.29652674245E+04  0.30001240915E+04  0.45599744008E+03 0.  0.
      99925    2    3    3    0    0  0.29200320077E+02 -0.10714845329E+03 -0.16906655658E+04  0.17145927399E+04  0.26295390916E+03 0.  0.
         25    1    3    3    0    0 -0.29200320077E+02  0.10714845329E+03 -0.12746018587E+04  0.12855313516E+04  0.12509000000E+03 0.  0.
         25    1    4    4    0    0 -0.14181367916E+02 -0.43080938435E+02 -0.96879967061E+03  0.97789436460E+03  0.12509000000E+03 0.  0.
         25    1    4    4    0    0  0.43381687993E+02 -0.64067514858E+02 -0.72186589524E+03  0.73669837527E+03  0.12509000000E+03 0.  0.
<mgrwt>
<rscale>  2 0.45599744E+03</rscale>
<asrwt>0</asrwt>
<pdfrwt beam="1">  1       21 0.25629891E-02 0.45599744E+03</pdfrwt>
<pdfrwt beam="2">  1       21 0.43863192E+00 0.45599744E+03</pdfrwt>
<totfact> 0.32215674E+03</totfact>
</mgrwt>
</event>
<event>
 7    0  0.4752811E-002  0.4590326E+03  0.7546771E-02  0.1025062E+00
         21   -1    0    0  502  501  0.00000000000E+00  0.00000000000E+00  0.13137384934E+03  0.13137384934E+03  0.00000000000E+00 0.  1.
         21   -1    0    0  501  502 -0.00000000000E+00 -0.00000000000E+00 -0.40097586339E+03  0.40097586339E+03  0.00000000000E+00 0.  1.
      99926    2    1    2    0    0  0.00000000000E+00 -0.14210854715E-13 -0.26960201405E+03  0.53234971272E+03  0.45903264661E+03 0.  0.
      99925    2    3    3    0    0  0.27519733016E+02 -0.75169829690E+02 -0.26740041751E+03  0.38382296723E+03  0.26345634910E+03 0.  0.
         25    1    3    3    0    0 -0.27519733016E+02  0.75169829690E+02 -0.22015965359E+01  0.14852674550E+03  0.12509000000E+03 0.  0.
         25    1    4    4    0    0 -0.16715966515E+02 -0.38007851831E+02 -0.16989583292E+03  0.21502586468E+03  0.12509000000E+03 0.  0.
         25    1    4    4    0    0  0.44235699531E+02 -0.37161977859E+02 -0.97504584590E+02  0.16879710254E+03  0.12509000000E+03 0.  0.
<mgrwt>
<rscale>  2 0.45903265E+03</rscale>
<asrwt>0</asrwt>
<pdfrwt beam="1">  1       21 0.19319684E-01 0.45903265E+03</pdfrwt>
<pdfrwt beam="2">  1       21 0.58967037E-01 0.45903265E+03</pdfrwt>
<totfact> 0.61072235E+04</totfact>
</mgrwt>
</event>
<event>
 7    0  0.4752811E-002  0.4591312E+03  0.7546771E-02  0.1025033E+00
         21   -1    0    0  502  501  0.00000000000E+00  0.00000000000E+00  0.26695780021E+03  0.26695780021E+03  0.00000000000E+00 0.  1.
         21   -1    0    0  501  502 -0.00000000000E+00 -0.00000000000E+00 -0.19741084804E+03  0.19741084804E+03  0.00000000000E+00 0.  1.
      99926    2    1    2    0    0  0.13322676296E-14 -0.14210854715E-13  0.69546952175E+02  0.46436864825E+03  0.45913120447E+03 0.  0.
      99925    2    3    3    0    0 -0.23389913244E+01  0.10794633525E+03  0.89379204399E+02  0.29793935845E+03  0.26290937024E+03 0.  0.
         25    1    3    3    0    0  0.23389913244E+01 -0.10794633525E+03 -0.19832252225E+02  0.16642928980E+03  0.12509000000E+03 0.  0.
         25    1    4    4    0    0  0.20934912528E+02  0.86851277873E+02  0.33200240897E+02  0.15726149919E+03  0.12509000000E+03 0.  0.
         25    1    4    4    0    0 -0.23273903852E+02  0.21095057380E+02  0.56178963503E+02  0.14067785926E+03  0.12509000000E+03 0.  0.
<mgrwt>
<rscale>  2 0.45913120E+03</rscale>
<asrwt>0</asrwt>
<pdfrwt beam="1">  1       21 0.39258500E-01 0.45913120E+03</pdfrwt>
<pdfrwt beam="2">  1       21 0.29031007E-01 0.45913120E+03</pdfrwt>
<totfact> 0.65672949E+04</totfact>
</mgrwt>
</event>
<event>
 7    0  0.4752811E-002  0.4461391E+03  0.7546771E-02  0.1028880E+00
         21   -1    0    0  502  501  0.00000000000E+00  0.00000000000E+00  0.86387108086E+03  0.86387108086E+03  0.00000000000E+00 0. -1.
         21   -1    0    0  501  502 -0.00000000000E+00 -0.00000000000E+00 -0.57601214930E+02  0.57601214930E+02  0.00000000000E+00 0. -1.
      99926    2    1    2    0    0  0.17763568394E-14 -0.14210854715E-13  0.80626986593E+03  0.92147229579E+03  0.44613909849E+03 0.  0.
      99925    2    3    3    0    0 -0.99191018105E+01 -0.10031924869E+03  0.44663975207E+03  0.52758948691E+03  0.26210924884E+03 0.  0.
         25    1    4    4    0    0  0.32430003407E+02 -0.61687158952E+02  0.22366629335E+03  0.26557697487E+03  0.12509000000E+03 0.  0.
         25    1    4    4    0    0 -0.42349105218E+02 -0.38632089740E+02  0.22297345872E+03  0.26201251204E+03  0.12509000000E+03 0.  0.
         25    1    3    3    0    0  0.99191018105E+01  0.10031924869E+03  0.35963011386E+03  0.39388280889E+03  0.12509000000E+03 0.  0.
<mgrwt>
<rscale>  2 0.44613910E+03</rscale>
<asrwt>0</asrwt>
<pdfrwt beam="1">  1       21 0.12703986E+00 0.44613910E+03</pdfrwt>
<pdfrwt beam="2">  1       21 0.84707674E-02 0.44613910E+03</pdfrwt>
<totfact> 0.45383001E+04</totfact>
</mgrwt>
</event>
<event>
 7    0  0.4752811E-002  0.4532431E+03  0.7546771E-02  0.1026759E+00
         21   -1    0    0  502  501  0.00000000000E+00  0.00000000000E+00  0.47727723088E+02  0.47727723088E+02  0.00000000000E+00 0. -1.
         21   -1    0    0  501  502 -0.00000000000E+00 -0.00000000000E+00 -0.10760482805E+04  0.10760482805E+04  0.00000000000E+00 0. -1.
      99926    2    1    2    0    0  0.00000000000E+00  0.14210854715E-13 -0.10283205574E+04  0.11237760036E+04  0.45324313281E+03 0.  0.
      99925    2    3    3    0    0 -0.33172186153E+02 -0.97337967625E+02 -0.54124856955E+03  0.61049079697E+03  0.26300936346E+03 0.  0.
         25    1    4    4    0    0 -0.46158017923E+02 -0.77302219437E+02 -0.32081293844E+03  0.35591381726E+03  0.12509000000E+03 0.  0.
         25    1    3    3    0    0  0.33172186153E+02  0.97337967625E+02 -0.48707198787E+03  0.51328520663E+03  0.12509000000E+03 0.  0.
         25    1    4    4    0    0  0.12985831770E+02 -0.20035748188E+02 -0.22043563111E+03  0.25457697971E+03  0.12509000000E+03 0.  0.
<mgrwt>
<rscale>  2 0.45324313E+03</rscale>
<asrwt>0</asrwt>
<pdfrwt beam="1">  1       21 0.70187835E-02 0.45324313E+03</pdfrwt>
<pdfrwt beam="2">  1       21 0.15824238E+00 0.45324313E+03</pdfrwt>
<totfact> 0.35149035E+04</totfact>
</mgrwt>
</event>
<event>
 7    0  0.4752811E-002  0.4667741E+03  0.7546771E-02  0.1022835E+00
         21   -1    0    0  502  501  0.00000000000E+00  0.00000000000E+00  0.70356787473E+03  0.70356787473E+03  0.00000000000E+00 0.  1.
         21   -1    0    0  501  502 -0.00000000000E+00 -0.00000000000E+00 -0.77418981029E+02  0.77418981029E+02  0.00000000000E+00 0.  1.
      99926    2    1    2    0    0  0.00000000000E+00  0.00000000000E+00  0.62614889370E+03  0.78098685576E+03  0.46677406932E+03 0.  0.
      99925    2    3    3    0    0 -0.99148805741E+02 -0.55336789545E+02  0.47365318653E+03  0.55340149867E+03  0.26270369556E+03 0.  0.
         25    1    4    4    0    0 -0.64549164162E+02 -0.24595639490E+02  0.31660522354E+03  0.34735848305E+03  0.12509000000E+03 0.  0.
         25    1    3    3    0    0  0.99148805741E+02  0.55336789545E+02  0.15249570717E+03  0.22758535709E+03  0.12509000000E+03 0.  0.
         25    1    4    4    0    0 -0.34599641579E+02 -0.30741150055E+02  0.15704796300E+03  0.20604301562E+03  0.12509000000E+03 0.  0.
<mgrwt>
<rscale>  2 0.46677407E+03</rscale>
<asrwt>0</asrwt>
<pdfrwt beam="1">  1       21 0.10346586E+00 0.46677407E+03</pdfrwt>
<pdfrwt beam="2">  1       21 0.11385145E-01 0.46677407E+03</pdfrwt>
<totfact> 0.44446192E+04</totfact>
</mgrwt>
</event>
<event>
 7    0  0.4752811E-002  0.4144870E+03  0.7546771E-02  0.1038876E+00
         21   -1    0    0  502  501  0.00000000000E+00  0.00000000000E+00  0.18859000027E+03  0.18859000027E+03  0.00000000000E+00 0. -1.
         21   -1    0    0  501  502 -0.00000000000E+00 -0.00000000000E+00 -0.22774198626E+03  0.22774198626E+03  0.00000000000E+00 0. -1.
      99926    2    1    2    0    0  0.00000000000E+00  0.00000000000E+00 -0.39151985987E+02  0.41633198653E+03  0.41448696602E+03 0.  0.
      99925    2    3    3    0    0  0.46503460347E+02 -0.18168251281E+02  0.20176116770E+02  0.26915865655E+03  0.26371698757E+03 0.  0.
         25    1    3    3    0    0 -0.46503460347E+02  0.18168251281E+02 -0.59328102757E+02  0.14717332997E+03  0.12509000000E+03 0.  0.
         25    1    4    4    0    0  0.27080822148E+02 -0.50573927124E+02  0.14251401607E+02  0.13835354560E+03  0.12509000000E+03 0.  0.
         25    1    4    4    0    0  0.19422638199E+02  0.32405675843E+02  0.59247151628E+01  0.13080511095E+03  0.12509000000E+03 0.  0.
<mgrwt>
<rscale>  2 0.41448697E+03</rscale>
<asrwt>0</asrwt>
<pdfrwt beam="1">  1       21 0.27733824E-01 0.41448697E+03</pdfrwt>
<pdfrwt beam="2">  1       21 0.33491468E-01 0.41448697E+03</pdfrwt>
<totfact> 0.10013705E+05</totfact>
</mgrwt>
</event>
<event>
 7    0  0.4752811E-002  0.4474843E+03  0.7546771E-02  0.1028475E+00
         21   -1    0    0  502  501  0.00000000000E+00  0.00000000000E+00  0.35587047093E+03  0.35587047093E+03  0.00000000000E+00 0.  1.
         21   -1    0    0  501  502 -0.00000000000E+00 -0.00000000000E+00 -0.14067072647E+03  0.14067072647E+03  0.00000000000E+00 0.  1.
      99926    2    1    2    0    0  0.00000000000E+00  0.00000000000E+00  0.21519974446E+03  0.49654119740E+03  0.44748433570E+03 0.  0.
      99925    2    3    3    0    0  0.14208511413E+02  0.69437722382E+02  0.48761620627E+02  0.27660339653E+03  0.26288450742E+03 0.  0.
         25    1    4    4    0    0 -0.22112294355E+02  0.27323807184E+02 -0.37328012235E+01  0.12998840681E+03  0.12509000000E+03 0.  0.
         25    1    4    4    0    0  0.36320805768E+02  0.42113915198E+02  0.52494421850E+02  0.14661498972E+03  0.12509000000E+03 0.  0.
         25    1    3    3    0    0 -0.14208511413E+02 -0.69437722382E+02  0.16643812383E+03  0.21993780087E+03  0.12509000000E+03 0.  0.
<mgrwt>
<rscale>  2 0.44748434E+03</rscale>
<asrwt>0</asrwt>
<pdfrwt beam="1">  1       21 0.52333893E-01 0.44748434E+03</pdfrwt>
<pdfrwt beam="2">  1       21 0.20686872E-01 0.44748434E+03</pdfrwt>
<totfact> 0.69573266E+04</totfact>
</mgrwt>
</event>
<event>
 7    0  0.4752811E-002  0.4723689E+03  0.7546771E-02  0.1021254E+00
         21   -1    0    0  502  501  0.00000000000E+00  0.00000000000E+00  0.29387080440E+02  0.29387080440E+02  0.00000000000E+00 0.  1.
         21   -1    0    0  501  502 -0.00000000000E+00 -0.00000000000E+00 -0.18982180916E+04  0.18982180916E+04  0.00000000000E+00 0.  1.
      99926    2    1    2    0    0  0.35527136788E-14 -0.14210854715E-13 -0.18688310112E+04  0.19276051721E+04  0.47236887176E+03 0.  0.
      99925    2    3    3    0    0  0.25615769236E+02 -0.12157179205E+03 -0.10147291098E+04  0.10554965582E+04  0.26260607367E+03 0.  0.
         25    1    3    3    0    0 -0.25615769236E+02  0.12157179205E+03 -0.85410190142E+03  0.87210861386E+03  0.12509000000E+03 0.  0.
         25    1    4    4    0    0  0.38390462303E+02 -0.90660925938E+02 -0.61791947774E+03  0.63809499305E+03  0.12509000000E+03 0.  0.
         25    1    4    4    0    0 -0.12774693067E+02 -0.30910866115E+02 -0.39680963204E+03  0.41740156517E+03  0.12509000000E+03 0.  0.
<mgrwt>
<rscale>  2 0.47236887E+03</rscale>
<asrwt>0</asrwt>
<pdfrwt beam="1">  1       21 0.43216280E-02 0.47236887E+03</pdfrwt>
<pdfrwt beam="2">  1       21 0.27914982E+00 0.47236887E+03</pdfrwt>
<totfact> 0.13074549E+04</totfact>
</mgrwt>
</event>
<event>
 7    0  0.4752811E-002  0.4444633E+03  0.7546771E-02  0.1029386E+00
         21   -1    0    0  502  501  0.00000000000E+00  0.00000000000E+00  0.98259200459E+03  0.98259200459E+03  0.00000000000E+00 0. -1.
         21   -1    0    0  501  502 -0.00000000000E+00 -0.00000000000E+00 -0.50261853371E+02  0.50261853371E+02  0.00000000000E+00 0. -1.
      99926    2    1    2    0    0  0.00000000000E+00  0.00000000000E+00  0.93233015122E+03  0.10328538580E+04  0.44446325049E+03 0.  0.
      99925    2    3    3    0    0 -0.90189530484E+02  0.87472420781E+01  0.47949206832E+03  0.55439748265E+03  0.26312213805E+03 0.  0.
         25    1    3    3    0    0  0.90189530484E+02 -0.87472420781E+01  0.45283808289E+03  0.47845637531E+03  0.12509000000E+03 0.  0.
         25    1    4    4    0    0 -0.15978356127E+02  0.27961712925E+02  0.26107722279E+03  0.29128334936E+03  0.12509000000E+03 0.  0.
         25    1    4    4    0    0 -0.74211174357E+02 -0.19214470847E+02  0.21841484553E+03  0.26311413329E+03  0.12509000000E+03 0.  0.
<mgrwt>
<rscale>  2 0.44446325E+03</rscale>
<asrwt>0</asrwt>
<pdfrwt beam="1">  1       21 0.14449881E+00 0.44446325E+03</pdfrwt>
<pdfrwt beam="2">  1       21 0.73914497E-02 0.44446325E+03</pdfrwt>
<totfact> 0.41198868E+04</totfact>
</mgrwt>
</event>
<event>
 7    0  0.4752811E-002  0.4422133E+03  0.7546771E-02  0.1030070E+00
         21   -1    0    0  502  501  0.00000000000E+00  0.00000000000E+00  0.52025404891E+03  0.52025404891E+03  0.00000000000E+00 0. -1.
         21   -1    0    0  501  502 -0.00000000000E+00 -0.00000000000E+00 -0.93969745235E+02  0.93969745235E+02  0.00000000000E+00 0. -1.
      99926    2    1    2    0    0  0.71054273576E-14  0.00000000000E+00  0.42628430367E+03  0.61422379414E+03  0.44221325368E+03 0.  0.
      99925    2    3    3    0    0  0.54160480636E+02 -0.83839264671E+02  0.28989888271E+03  0.40395998100E+03  0.26302076742E+03 0.  0.
         25    1    4    4    0    0  0.24372453610E+02 -0.78188764339E+02  0.18534492888E+03  0.23813389117E+03  0.12509000000E+03 0.  0.
         25    1    3    3    0    0 -0.54160480636E+02  0.83839264671E+02  0.13638542097E+03  0.21026381314E+03  0.12509000000E+03 0.  0.
         25    1    4    4    0    0  0.29788027026E+02 -0.56505003318E+01  0.10455395382E+03  0.16582608983E+03  0.12509000000E+03 0.  0.
<mgrwt>
<rscale>  2 0.44221325E+03</rscale>
<asrwt>0</asrwt>
<pdfrwt beam="1">  1       21 0.76507947E-01 0.44221325E+03</pdfrwt>
<pdfrwt beam="2">  1       21 0.13819080E-01 0.44221325E+03</pdfrwt>
<totfact> 0.64036817E+04</totfact>
</mgrwt>
</event>
<event>
 7    0  0.4752811E-002  0.4567122E+03  0.7546771E-02  0.1025739E+00
         21   -1    0    0  502  501  0.00000000000E+00  0.00000000000E+00  0.34167380288E+02  0.34167380288E+02  0.00000000000E+00 0. -1.
         21   -1    0    0  501  502 -0.00000000000E+00 -0.00000000000E+00 -0.15262072326E+04  0.15262072326E+04  0.00000000000E+00 0. -1.
      99926    2    1    2    0    0  0.14210854715E-13  0.00000000000E+00 -0.14920398523E+04  0.15603746129E+04  0.45671217595E+03 0.  0.
      99925    2    3    3    0    0  0.99002537571E+02  0.51965317259E+02 -0.10263614677E+04  0.10653940449E+04  0.26295382102E+03 0.  0.
         25    1    4    4    0    0  0.77470624488E+02  0.26360727959E+02 -0.43322455483E+03  0.45828769200E+03  0.12509000000E+03 0.  0.
         25    1    3    3    0    0 -0.99002537571E+02 -0.51965317259E+02 -0.46567838465E+03  0.49498056798E+03  0.12509000000E+03 0.  0.
         25    1    4    4    0    0  0.21531913083E+02  0.25604589300E+02 -0.59313691284E+03  0.60710635291E+03  0.12509000000E+03 0.  0.
<mgrwt>
<rscale>  2 0.45671218E+03</rscale>
<asrwt>0</asrwt>
<pdfrwt beam="1">  1       21 0.50246139E-02 0.45671218E+03</pdfrwt>
<pdfrwt beam="2">  1       21 0.22444228E+00 0.45671218E+03</pdfrwt>
<totfact> 0.22042927E+04</totfact>
</mgrwt>
</event>
<event>
 7    0  0.4752811E-002  0.4285174E+03  0.7546771E-02  0.1034329E+00
         21   -1    0    0  502  501  0.00000000000E+00  0.00000000000E+00  0.43858110753E+03  0.43858110753E+03  0.00000000000E+00 0. -1.
         21   -1    0    0  501  502 -0.00000000000E+00 -0.00000000000E+00 -0.10467115279E+03  0.10467115279E+03  0.00000000000E+00 0. -1.
      99926    2    1    2    0    0 -0.17763568394E-14  0.00000000000E+00  0.33390995474E+03  0.54325226033E+03  0.42851739810E+03 0.  0.
      99925    2    3    3    0    0  0.11177327214E+02 -0.73356991973E+02  0.16004010952E+03  0.31657095962E+03  0.26286527900E+03 0.  0.
         25    1    3    3    0    0 -0.11177327214E+02  0.73356991973E+02  0.17386984522E+03  0.22668130071E+03  0.12509000000E+03 0.  0.
         25    1    4    4    0    0  0.42781309652E+02 -0.51022079304E+02  0.73690413336E+02  0.15972250358E+03  0.12509000000E+03 0.  0.
         25    1    4    4    0    0 -0.31603982438E+02 -0.22334912669E+02  0.86349696186E+02  0.15684845604E+03  0.12509000000E+03 0.  0.
<mgrwt>
<rscale>  2 0.42851740E+03</rscale>
<asrwt>0</asrwt>
<pdfrwt beam="1">  1       21 0.64497221E-01 0.42851740E+03</pdfrwt>
<pdfrwt beam="2">  1       21 0.15392817E-01 0.42851740E+03</pdfrwt>
<totfact> 0.77280397E+04</totfact>
</mgrwt>
</event>
<event>
 7    0  0.4752811E-002  0.4370280E+03  0.7546771E-02  0.1031663E+00
         21   -1    0    0  502  501  0.00000000000E+00  0.00000000000E+00  0.42547239920E+02  0.42547239920E+02  0.00000000000E+00 0. -1.
         21   -1    0    0  501  502 -0.00000000000E+00 -0.00000000000E+00 -0.11222434519E+04  0.11222434519E+04  0.00000000000E+00 0. -1.
      99926    2    1    2    0    0  0.00000000000E+00  0.44408920985E-15 -0.10796962119E+04  0.11647906918E+04  0.43702796888E+03 0.  0.
      99925    2    3    3    0    0  0.17441492540E+02  0.37384135995E+01 -0.94082170276E+03  0.97703601461E+03  0.26293671494E+03 0.  0.
         25    1    4    4    0    0  0.31393786985E+02  0.36869423469E+01 -0.35171201105E+03  0.37463049825E+03  0.12509000000E+03 0.  0.
         25    1    4    4    0    0 -0.13952294446E+02  0.51471252634E-01 -0.58910969171E+03  0.60240551636E+03  0.12509000000E+03 0.  0.
         25    1    3    3    0    0 -0.17441492540E+02 -0.37384135995E+01 -0.13887450917E+03  0.18775467716E+03  0.12509000000E+03 0.  0.
<mgrwt>
<rscale>  2 0.43702797E+03</rscale>
<asrwt>0</asrwt>
<pdfrwt beam="1">  1       21 0.62569470E-02 0.43702797E+03</pdfrwt>
<pdfrwt beam="2">  1       21 0.16503580E+00 0.43702797E+03</pdfrwt>
<totfact> 0.38394055E+04</totfact>
</mgrwt>
</event>
<event>
 7    0  0.4752811E-002  0.4575880E+03  0.7546771E-02  0.1025483E+00
         21   -1    0    0  502  501  0.00000000000E+00  0.00000000000E+00  0.17995285882E+03  0.17995285882E+03  0.00000000000E+00 0. -1.
         21   -1    0    0  501  502 -0.00000000000E+00 -0.00000000000E+00 -0.29089117550E+03  0.29089117550E+03  0.00000000000E+00 0. -1.
      99926    2    1    2    0    0  0.14210854715E-13  0.00000000000E+00 -0.11093831668E+03  0.47084403433E+03  0.45758801837E+03 0.  0.
      99925    2    3    3    0    0  0.10168222458E+03  0.54085645132E+02 -0.79349362289E+02  0.29789923983E+03  0.26302681230E+03 0.  0.
         25    1    3    3    0    0 -0.10168222458E+03 -0.54085645132E+02 -0.31588954393E+02  0.17294479450E+03  0.12509000000E+03 0.  0.
         25    1    4    4    0    0  0.37479163833E+02  0.36140089906E+02 -0.77605158191E+02  0.15614372385E+03  0.12509000000E+03 0.  0.
         25    1    4    4    0    0  0.64203060747E+02  0.17945555226E+02 -0.17442040971E+01  0.14175551598E+03  0.12509000000E+03 0.  0.
<mgrwt>
<rscale>  2 0.45758802E+03</rscale>
<asrwt>0</asrwt>
<pdfrwt beam="1">  1       21 0.26463656E-01 0.45758802E+03</pdfrwt>
<pdfrwt beam="2">  1       21 0.42778113E-01 0.45758802E+03</pdfrwt>
<totfact> 0.66007480E+04</totfact>
</mgrwt>
</event>
<event>
 7    0  0.4752811E-002  0.4507506E+03  0.7546771E-02  0.1027498E+00
         21   -1    0    0  502  501  0.00000000000E+00  0.00000000000E+00  0.13480822521E+04  0.13480822521E+04  0.00000000000E+00 0.  1.
         21   -1    0    0  501  502 -0.00000000000E+00 -0.00000000000E+00 -0.37678731432E+02  0.37678731432E+02  0.00000000000E+00 0.  1.
      99926    2    1    2    0    0  0.00000000000E+00 -0.71054273576E-14  0.13104035207E+04  0.13857609836E+04  0.45075061454E+03 0.  0.
      99925    2    3    3    0    0 -0.69319530573E+02  0.51548326986E+02  0.62096475035E+03  0.67976115814E+03  0.26270817195E+03 0.  0.
         25    1    4    4    0    0 -0.49946940240E+01  0.50820343070E+02  0.32966125626E+03  0.35627476225E+03  0.12509000000E+03 0.  0.
         25    1    4    4    0    0 -0.64324836549E+02  0.72798391616E+00  0.29130349409E+03  0.32348639589E+03  0.12509000000E+03 0.  0.
         25    1    3    3    0    0  0.69319530573E+02 -0.51548326986E+02  0.68943877034E+03  0.70599982541E+03  0.12509000000E+03 0.  0.
<mgrwt>
<rscale>  2 0.45075061E+03</rscale>
<asrwt>0</asrwt>
<pdfrwt beam="1">  1       21 0.19824736E+00 0.45075061E+03</pdfrwt>
<pdfrwt beam="2">  1       21 0.55409908E-02 0.45075061E+03</pdfrwt>
<totfact> 0.27614720E+04</totfact>
</mgrwt>
</event>
<event>
 7    0  0.4752811E-002  0.4535013E+03  0.7546771E-02  0.1026683E+00
         21   -1    0    0  502  501  0.00000000000E+00  0.00000000000E+00  0.16332041376E+03  0.16332041376E+03  0.00000000000E+00 0.  1.
         21   -1    0    0  501  502 -0.00000000000E+00 -0.00000000000E+00 -0.31481585056E+03  0.31481585056E+03  0.00000000000E+00 0.  1.
      99926    2    1    2    0    0 -0.14210854715E-13  0.00000000000E+00 -0.15149543680E+03  0.47813626432E+03  0.45350128984E+03 0.  0.
      99925    2    3    3    0    0 -0.97602945491E+02  0.54350622617E+02 -0.92339356227E+02  0.30029567526E+03  0.26300306220E+03 0.  0.
         25    1    4    4    0    0 -0.50358287880E+02  0.66399985438E+02 -0.62374988047E+02  0.16273617440E+03  0.12509000000E+03 0.  0.
         25    1    4    4    0    0 -0.47244657611E+02 -0.12049362820E+02 -0.29964368180E+02  0.13755950086E+03  0.12509000000E+03 0.  0.
         25    1    3    3    0    0  0.97602945491E+02 -0.54350622617E+02 -0.59156080570E+02  0.17784058906E+03  0.12509000000E+03 0.  0.
<mgrwt>
<rscale>  2 0.45350129E+03</rscale>
<asrwt>0</asrwt>
<pdfrwt beam="1">  1       21 0.24017708E-01 0.45350129E+03</pdfrwt>
<pdfrwt beam="2">  1       21 0.46296448E-01 0.45350129E+03</pdfrwt>
<totfact> 0.67637018E+04</totfact>
</mgrwt>
</event>
<event>
 7    0  0.4752811E-002  0.4460238E+03  0.7546771E-02  0.1028914E+00
         21   -1    0    0  502  501  0.00000000000E+00  0.00000000000E+00  0.96336711933E+03  0.96336711933E+03  0.00000000000E+00 0.  1.
         21   -1    0    0  501  502 -0.00000000000E+00 -0.00000000000E+00 -0.51625494999E+02  0.51625494999E+02  0.00000000000E+00 0.  1.
      99926    2    1    2    0    0  0.71054273576E-14  0.00000000000E+00  0.91174162434E+03  0.10149926143E+04  0.44602378592E+03 0.  0.
      99925    2    3    3    0    0 -0.55156538414E+02 -0.88504143752E+02  0.59477935875E+03  0.65863911975E+03  0.26299767544E+03 0.  0.
         25    1    3    3    0    0  0.55156538414E+02  0.88504143752E+02  0.31696226559E+03  0.35635349458E+03  0.12509000000E+03 0.  0.
         25    1    4    4    0    0  0.11972866563E+02 -0.38089373990E+02  0.30418235066E+03  0.33131338714E+03  0.12509000000E+03 0.  0.
         25    1    4    4    0    0 -0.67129404978E+02 -0.50414769762E+02  0.29059700809E+03  0.32732573261E+03  0.12509000000E+03 0.  0.
<mgrwt>
<rscale>  2 0.44602379E+03</rscale>
<asrwt>0</asrwt>
<pdfrwt beam="1">  1       21 0.14167162E+00 0.44602379E+03</pdfrwt>
<pdfrwt beam="2">  1       21 0.75919852E-02 0.44602379E+03</pdfrwt>
<totfact> 0.41416182E+04</totfact>
</mgrwt>
</event>
<event>
 7    0  0.4752811E-002  0.4534541E+03  0.7546771E-02  0.1026697E+00
         21   -1    0    0  502  501  0.00000000000E+00  0.00000000000E+00  0.29260483276E+04  0.29260483276E+04  0.00000000000E+00 0. -1.
         21   -1    0    0  501  502 -0.00000000000E+00 -0.00000000000E+00 -0.17568113629E+02  0.17568113629E+02  0.00000000000E+00 0. -1.
      99926    2    1    2    0    0  0.14210854715E-13 -0.71054273576E-14  0.29084802140E+04  0.29436164412E+04  0.45345407486E+03 0.  0.
      99925    2    3    3    0    0 -0.62541722881E+02  0.53735633752E+02  0.13473728229E+04  0.13753362431E+04  0.26331971466E+03 0.  0.
         25    1    3    3    0    0  0.62541722881E+02 -0.53735633752E+02  0.15611073911E+04  0.15682801982E+04  0.12509000000E+03 0.  0.
         25    1    4    4    0    0 -0.25018926739E+02  0.37741518840E+02  0.48214269731E+03  0.50015943219E+03  0.12509000000E+03 0.  0.
         25    1    4    4    0    0 -0.37522796141E+02  0.15994114911E+02  0.86523012561E+03  0.87517681088E+03  0.12509000000E+03 0.  0.
<mgrwt>
<rscale>  2 0.45345407E+03</rscale>
<asrwt>0</asrwt>
<pdfrwt beam="1">  1       21 0.43030089E+00 0.45345407E+03</pdfrwt>
<pdfrwt beam="2">  1       21 0.25835481E-02 0.45345407E+03</pdfrwt>
<totfact> 0.36169798E+03</totfact>
</mgrwt>
</event>
<event>
 7    0  0.4752811E-002  0.4445498E+03  0.7546771E-02  0.1029360E+00
         21   -1    0    0  502  501  0.00000000000E+00  0.00000000000E+00  0.97537283264E+02  0.97537283264E+02  0.00000000000E+00 0. -1.
         21   -1    0    0  501  502 -0.00000000000E+00 -0.00000000000E+00 -0.50653596172E+03  0.50653596172E+03  0.00000000000E+00 0. -1.
      99926    2    1    2    0    0 -0.14210854715E-13  0.00000000000E+00 -0.40899867846E+03  0.60407324499E+03  0.44454984684E+03 0.  0.
      99925    2    3    3    0    0 -0.81630151755E+02  0.61339794153E+02 -0.27834865926E+03  0.39636434378E+03  0.26306019252E+03 0.  0.
         25    1    3    3    0    0  0.81630151755E+02 -0.61339794153E+02 -0.13065001920E+03  0.20770890121E+03  0.12509000000E+03 0.  0.
         25    1    4    4    0    0 -0.76618642827E+01  0.12485161487E+02 -0.15412675136E+03  0.19904056623E+03  0.12509000000E+03 0.  0.
         25    1    4    4    0    0 -0.73968287472E+02  0.48854632666E+02 -0.12422190790E+03  0.19732377755E+03  0.12509000000E+03 0.  0.
<mgrwt>
<rscale>  2 0.44454985E+03</rscale>
<asrwt>0</asrwt>
<pdfrwt beam="1">  1       21 0.14343718E-01 0.44454985E+03</pdfrwt>
<pdfrwt beam="2">  1       21 0.74490583E-01 0.44454985E+03</pdfrwt>
<totfact> 0.63511262E+04</totfact>
</mgrwt>
</event>
<event>
 7    0  0.4752811E-002  0.4650637E+03  0.7546771E-02  0.1023323E+00
         21   -1    0    0  502  501  0.00000000000E+00  0.00000000000E+00  0.32808250613E+03  0.32808250613E+03  0.00000000000E+00 0.  1.
         21   -1    0    0  501  502 -0.00000000000E+00 -0.00000000000E+00 -0.16480933142E+03  0.16480933142E+03  0.00000000000E+00 0.  1.
      99926    2    1    2    0    0  0.00000000000E+00  0.00000000000E+00  0.16327317471E+03  0.49289183755E+03  0.46506368805E+03 0.  0.
      99925    2    3    3    0    0  0.99034678666E+02  0.61067848625E+02  0.14191194655E+03  0.32072633612E+03  0.26303846182E+03 0.  0.
         25    1    4    4    0    0  0.15728555638E+02  0.27561130614E+02  0.93327650440E+02  0.15926255624E+03  0.12509000000E+03 0.  0.
         25    1    4    4    0    0  0.83306123028E+02  0.33506718012E+02  0.48584296108E+02  0.16146377988E+03  0.12509000000E+03 0.  0.
         25    1    3    3    0    0 -0.99034678666E+02 -0.61067848625E+02  0.21361228163E+02  0.17216550143E+03  0.12509000000E+03 0.  0.
<mgrwt>
<rscale>  2 0.46506369E+03</rscale>
<asrwt>0</asrwt>
<pdfrwt beam="1">  1       21 0.48247428E-01 0.46506369E+03</pdfrwt>
<pdfrwt beam="2">  1       21 0.24236666E-01 0.46506369E+03</pdfrwt>
<totfact> 0.60770910E+04</totfact>
</mgrwt>
</event>
<event>
 7    0  0.4752811E-002  0.4521127E+03  0.7546771E-02  0.1027094E+00
         21   -1    0    0  502  501  0.00000000000E+00  0.00000000000E+00  0.14987316376E+03  0.14987316376E+03  0.00000000000E+00 0. -1.
         21   -1    0    0  501  502 -0.00000000000E+00 -0.00000000000E+00 -0.34096481666E+03  0.34096481666E+03  0.00000000000E+00 0. -1.
      99926    2    1    2    0    0  0.00000000000E+00  0.00000000000E+00 -0.19109165290E+03  0.49083798043E+03  0.45211271075E+03 0.  0.
      99925    2    3    3    0    0  0.49340197910E+02  0.98210863614E+01 -0.22732135254E+03  0.35122777986E+03  0.26297347234E+03 0.  0.
         25    1    3    3    0    0 -0.49340197910E+02 -0.98210863614E+01  0.36229699644E+02  0.13961020057E+03  0.12509000000E+03 0.  0.
         25    1    4    4    0    0  0.50618365633E+02 -0.78717297037E+00 -0.15811161890E+03  0.20786926351E+03  0.12509000000E+03 0.  0.
         25    1    4    4    0    0 -0.12781677235E+01  0.10608259332E+02 -0.69209733647E+02  0.14335851635E+03  0.12509000000E+03 0.  0.
<mgrwt>
<rscale>  2 0.45211271E+03</rscale>
<asrwt>0</asrwt>
<pdfrwt beam="1">  1       21 0.22040172E-01 0.45211271E+03</pdfrwt>
<pdfrwt beam="2">  1       21 0.50141884E-01 0.45211271E+03</pdfrwt>
<totfact> 0.67452108E+04</totfact>
</mgrwt>
</event>
<event>
 7    0  0.4752811E-002  0.4533018E+03  0.7546771E-02  0.1026742E+00
         21   -1    0    0  502  501  0.00000000000E+00  0.00000000000E+00  0.44695614908E+02  0.44695614908E+02  0.00000000000E+00 0.  1.
         21   -1    0    0  501  502 -0.00000000000E+00 -0.00000000000E+00 -0.11493439960E+04  0.11493439960E+04  0.00000000000E+00 0.  1.
      99926    2    1    2    0    0  0.00000000000E+00  0.14210854715E-13 -0.11046483811E+04  0.11940396109E+04  0.45330182722E+03 0.  0.
      99925    2    3    3    0    0 -0.72785058465E+02  0.81886454803E+02 -0.64091720031E+03  0.70139656331E+03  0.26301943873E+03 0.  0.
         25    1    3    3    0    0  0.72785058465E+02 -0.81886454803E+02 -0.46373118074E+03  0.49264304756E+03  0.12509000000E+03 0.  0.
         25    1    4    4    0    0 -0.54489389794E+00  0.15854749159E+02 -0.28155708028E+03  0.30850213538E+03  0.12509000000E+03 0.  0.
         25    1    4    4    0    0 -0.72240164567E+02  0.66031705644E+02 -0.35936012003E+03  0.39289442792E+03  0.12509000000E+03 0.  0.
<mgrwt>
<rscale>  2 0.45330183E+03</rscale>
<asrwt>0</asrwt>
<pdfrwt beam="1">  1       21 0.65728855E-02 0.45330183E+03</pdfrwt>
<pdfrwt beam="2">  1       21 0.16902115E+00 0.45330183E+03</pdfrwt>
<totfact> 0.32776906E+04</totfact>
</mgrwt>
</event>
<event>
 7    0  0.4752811E-002  0.4453397E+03  0.7546771E-02  0.1029121E+00
         21   -1    0    0  502  501  0.00000000000E+00  0.00000000000E+00  0.66215445656E+03  0.66215445656E+03  0.00000000000E+00 0. -1.
         21   -1    0    0  501  502 -0.00000000000E+00 -0.00000000000E+00 -0.74879611470E+02  0.74879611470E+02  0.00000000000E+00 0. -1.
      99926    2    1    2    0    0  0.00000000000E+00  0.00000000000E+00  0.58727484509E+03  0.73703406803E+03  0.44533972848E+03 0.  0.
      99925    2    3    3    0    0 -0.42409589835E+02  0.59253034928E+02  0.49541358121E+03  0.56558292234E+03  0.26294472828E+03 0.  0.
         25    1    4    4    0    0 -0.28162545450E+02 -0.64253798471E+01  0.19752441526E+03  0.23557974700E+03  0.12509000000E+03 0.  0.
         25    1    4    4    0    0 -0.14247044385E+02  0.65678414775E+02  0.29788916595E+03  0.33000317534E+03  0.12509000000E+03 0.  0.
         25    1    3    3    0    0  0.42409589835E+02 -0.59253034928E+02  0.91861263876E+02  0.17145114569E+03  0.12509000000E+03 0.  0.
<mgrwt>
<rscale>  2 0.44533973E+03</rscale>
<asrwt>0</asrwt>
<pdfrwt beam="1">  1       21 0.97375652E-01 0.44533973E+03</pdfrwt>
<pdfrwt beam="2">  1       21 0.11011708E-01 0.44533973E+03</pdfrwt>
<totfact> 0.54997449E+04</totfact>
</mgrwt>
</event>
<event>
 7    0  0.4752811E-002  0.4610407E+03  0.7546771E-02  0.1024480E+00
         21   -1    0    0  502  501  0.00000000000E+00  0.00000000000E+00  0.12268854100E+03  0.12268854100E+03  0.00000000000E+00 0. -1.
         21   -1    0    0  501  502 -0.00000000000E+00 -0.00000000000E+00 -0.43312632195E+03  0.43312632195E+03  0.00000000000E+00 0. -1.
      99926    2    1    2    0    0 -0.17763568394E-14  0.00000000000E+00 -0.31043778095E+03  0.55581486295E+03  0.46104072059E+03 0.  0.
      99925    2    3    3    0    0 -0.15110558446E+02  0.95922715885E+02 -0.11197555180E+03  0.30191673201E+03  0.26303173281E+03 0.  0.
         25    1    4    4    0    0  0.29425779707E+02  0.62782680116E+02 -0.48136176249E+02  0.15090441013E+03  0.12509000000E+03 0.  0.
         25    1    4    4    0    0 -0.44536338152E+02  0.33140035770E+02 -0.63839375552E+02  0.15101232187E+03  0.12509000000E+03 0.  0.
         25    1    3    3    0    0  0.15110558446E+02 -0.95922715885E+02 -0.19846222914E+03  0.25389813094E+03  0.12509000000E+03 0.  0.
<mgrwt>
<rscale>  2 0.46104072E+03</rscale>
<asrwt>0</asrwt>
<pdfrwt beam="1">  1       21 0.18042433E-01 0.46104072E+03</pdfrwt>
<pdfrwt beam="2">  1       21 0.63695047E-01 0.46104072E+03</pdfrwt>
<totfact> 0.58631418E+04</totfact>
</mgrwt>
</event>
<event>
 7    0  0.4752811E-002  0.4490429E+03  0.7546771E-02  0.1028008E+00
         21   -1    0    0  502  501  0.00000000000E+00  0.00000000000E+00  0.10088176537E+03  0.10088176537E+03  0.00000000000E+00 0.  1.
         21   -1    0    0  501  502 -0.00000000000E+00 -0.00000000000E+00 -0.49969269754E+03  0.49969269754E+03  0.00000000000E+00 0.  1.
      99926    2    1    2    0    0  0.14210854715E-13  0.00000000000E+00 -0.39881093218E+03  0.60057446291E+03  0.44904289981E+03 0.  0.
      99925    2    3    3    0    0 -0.93406040267E+02  0.52644097901E+02 -0.26212328475E+03  0.38650178725E+03  0.26301886955E+03 0.  0.
         25    1    4    4    0    0 -0.51025030644E+02  0.45793322108E+02 -0.87120337976E+02  0.16714677230E+03  0.12509000000E+03 0.  0.
         25    1    4    4    0    0 -0.42381009622E+02  0.68507757930E+01 -0.17500294677E+03  0.21935501495E+03  0.12509000000E+03 0.  0.
         25    1    3    3    0    0  0.93406040267E+02 -0.52644097901E+02 -0.13668764743E+03  0.21407267566E+03  0.12509000000E+03 0.  0.
<mgrwt>
<rscale>  2 0.44904290E+03</rscale>
<asrwt>0</asrwt>
<pdfrwt beam="1">  1       21 0.14835554E-01 0.44904290E+03</pdfrwt>
<pdfrwt beam="2">  1       21 0.73484221E-01 0.44904290E+03</pdfrwt>
<totfact> 0.61486155E+04</totfact>
</mgrwt>
</event>
<event>
 6    0  0.4752811E-002  0.4519517E+03  0.7546771E-02  0.1027142E+00
         21   -1    0    0  502  501  0.00000000000E+00  0.00000000000E+00  0.46129173994E+03  0.46129173994E+03  0.00000000000E+00 0. -1.
         21   -1    0    0  501  502 -0.00000000000E+00 -0.00000000000E+00 -0.11070021466E+03  0.11070021466E+03  0.00000000000E+00 0. -1.
      99926    2    1    2    0    0  0.00000000000E+00  0.00000000000E+00  0.35059152528E+03  0.57199195460E+03  0.45195174359E+03 0.  0.
         25    1    3    3    0    0 -0.30898030991E+02 -0.61257594911E+02  0.18102062259E+03  0.23048460937E+03  0.12509000000E+03 0.  0.
         25    1    3    3    0    0 -0.37807108537E+02 -0.41175242931E+01  0.36568243572E+02  0.13576109899E+03  0.12509000000E+03 0.  0.
         25    1    3    3    0    0  0.68705139528E+02  0.65375119204E+02  0.13300265911E+03  0.20574624623E+03  0.12509000000E+03 0.  0.
<mgrwt>
<rscale>  2 0.45195174E+03</rscale>
<asrwt>0</asrwt>
<pdfrwt beam="1">  1       21 0.67837020E-01 0.45195174E+03</pdfrwt>
<pdfrwt beam="2">  1       21 0.16279443E-01 0.45195174E+03</pdfrwt>
<totfact> 0.61915167E+04</totfact>
</mgrwt>
</event>
<event>
 7    0  0.4752811E-002  0.4534085E+03  0.7546771E-02  0.1026710E+00
         21   -1    0    0  502  501  0.00000000000E+00  0.00000000000E+00  0.49376095388E+03  0.49376095388E+03  0.00000000000E+00 0.  1.
         21   -1    0    0  501  502 -0.00000000000E+00 -0.00000000000E+00 -0.10408845152E+03  0.10408845152E+03  0.00000000000E+00 0.  1.
      99926    2    1    2    0    0  0.00000000000E+00  0.00000000000E+00  0.38967250236E+03  0.59784940541E+03  0.45340848300E+03 0.  0.
      99925    2    3    3    0    0  0.38962325631E+02 -0.10013079419E+03  0.20570053260E+03  0.35079185641E+03  0.26305508671E+03 0.  0.
         25    1    4    4    0    0  0.57197719404E+02 -0.61072733744E+02  0.92376437366E+02  0.17658531137E+03  0.12509000000E+03 0.  0.
         25    1    3    3    0    0 -0.38962325631E+02  0.10013079419E+03  0.18397196976E+03  0.24705754900E+03  0.12509000000E+03 0.  0.
         25    1    4    4    0    0 -0.18235393773E+02 -0.39058060442E+02  0.11332409524E+03  0.17420654503E+03  0.12509000000E+03 0.  0.
<mgrwt>
<rscale>  2 0.45340848E+03</rscale>
<asrwt>0</asrwt>
<pdfrwt beam="1">  1       21 0.72611904E-01 0.45340848E+03</pdfrwt>
<pdfrwt beam="2">  1       21 0.15307125E-01 0.45340848E+03</pdfrwt>
<totfact> 0.59556271E+04</totfact>
</mgrwt>
</event>
<event>
 7    0  0.4752811E-002  0.4543842E+03  0.7546771E-02  0.1026423E+00
         21   -1    0    0  502  501  0.00000000000E+00  0.00000000000E+00  0.42776600280E+02  0.42776600280E+02  0.00000000000E+00 0.  1.
         21   -1    0    0  501  502 -0.00000000000E+00 -0.00000000000E+00 -0.12066467185E+04  0.12066467185E+04  0.00000000000E+00 0.  1.
      99926    2    1    2    0    0  0.71054273576E-14 -0.14210854715E-13 -0.11638701183E+04  0.12494233188E+04  0.45438417384E+03 0.  0.
      99925    2    3    3    0    0 -0.52705015662E+02  0.98474664684E+02 -0.69505217897E+03  0.75151484675E+03  0.26306264488E+03 0.  0.
         25    1    3    3    0    0  0.52705015662E+02 -0.98474664684E+02 -0.46881793928E+03  0.49790847206E+03  0.12509000000E+03 0.  0.
         25    1    4    4    0    0  0.13066056967E+02  0.59136082074E+02 -0.34868027301E+03  0.37535748152E+03  0.12509000000E+03 0.  0.
         25    1    4    4    0    0 -0.65771072629E+02  0.39338582610E+02 -0.34637190597E+03  0.37615736523E+03  0.12509000000E+03 0.  0.
<mgrwt>
<rscale>  2 0.45438417E+03</rscale>
<asrwt>0</asrwt>
<pdfrwt beam="1">  1       21 0.62906778E-02 0.45438417E+03</pdfrwt>
<pdfrwt beam="2">  1       21 0.17744801E+00 0.45438417E+03</pdfrwt>
<totfact> 0.30766868E+04</totfact>
</mgrwt>
</event>
<event>
 7    0  0.4752811E-002  0.4347307E+03  0.7546771E-02  0.1032376E+00
         21   -1    0    0  502  501  0.00000000000E+00  0.00000000000E+00  0.23984457006E+03  0.23984457006E+03  0.00000000000E+00 0.  1.
         21   -1    0    0  501  502 -0.00000000000E+00 -0.00000000000E+00 -0.19699295290E+03  0.19699295290E+03  0.00000000000E+00 0.  1.
      99926    2    1    2    0    0  0.00000000000E+00  0.00000000000E+00  0.42851617155E+02  0.43683752296E+03  0.43473067568E+03 0.  0.
      99925    2    3    3    0    0 -0.26115136695E+02  0.84935358387E+02  0.59457562079E+02  0.28250255941E+03  0.26148896519E+03 0.  0.
         25    1    4    4    0    0 -0.80643972962E+01  0.33551146803E+02 -0.85823248219E+01  0.13004567796E+03  0.12509000000E+03 0.  0.
         25    1    4    4    0    0 -0.18050739398E+02  0.51384211584E+02  0.68039886901E+02  0.15245688145E+03  0.12509000000E+03 0.  0.
         25    1    3    3    0    0  0.26115136695E+02 -0.84935358387E+02 -0.16605944924E+02  0.15433496356E+03  0.12509000000E+03 0.  0.
<mgrwt>
<rscale>  2 0.43473068E+03</rscale>
<asrwt>0</asrwt>
<pdfrwt beam="1">  1       21 0.35271260E-01 0.43473068E+03</pdfrwt>
<pdfrwt beam="2">  1       21 0.28969552E-01 0.43473068E+03</pdfrwt>
<totfact> 0.82445217E+04</totfact>
</mgrwt>
</event>
<event>
 7    0  0.4752811E-002  0.4545043E+03  0.7546771E-02  0.1026387E+00
         21   -1    0    0  502  501  0.00000000000E+00  0.00000000000E+00  0.39882378717E+03  0.39882378717E+03  0.00000000000E+00 0.  1.
         21   -1    0    0  501  502 -0.00000000000E+00 -0.00000000000E+00 -0.12948961500E+03  0.12948961500E+03  0.00000000000E+00 0.  1.
      99926    2    1    2    0    0  0.00000000000E+00  0.71054273576E-14  0.26933417217E+03  0.52831340217E+03  0.45450429549E+03 0.  0.
      99925    2    3    3    0    0  0.93546895783E+02  0.62649525825E+02  0.17561674102E+03  0.33568305722E+03  0.26299408811E+03 0.  0.
         25    1    3    3    0    0 -0.93546895783E+02 -0.62649525825E+02  0.93717431151E+02  0.19263034496E+03  0.12509000000E+03 0.  0.
         25    1    4    4    0    0  0.66778118019E+02  0.38688721422E+02  0.51228320030E+02  0.15565340692E+03  0.12509000000E+03 0.  0.
         25    1    4    4    0    0  0.26768777764E+02  0.23960804403E+02  0.12438842099E+03  0.18002965030E+03  0.12509000000E+03 0.  0.
<mgrwt>
<rscale>  2 0.45450430E+03</rscale>
<asrwt>0</asrwt>
<pdfrwt beam="1">  1       21 0.58650557E-01 0.45450430E+03</pdfrwt>
<pdfrwt beam="2">  1       21 0.19042590E-01 0.45450430E+03</pdfrwt>
<totfact> 0.63570264E+04</totfact>
</mgrwt>
</event>
<event>
 7    0  0.4752811E-002  0.4474857E+03  0.7546771E-02  0.1028474E+00
         21   -1    0    0  502  501  0.00000000000E+00  0.00000000000E+00  0.10671595850E+03  0.10671595850E+03  0.00000000000E+00 0. -1.
         21   -1    0    0  501  502 -0.00000000000E+00 -0.00000000000E+00 -0.46910378540E+03  0.46910378540E+03  0.00000000000E+00 0. -1.
      99926    2    1    2    0    0  0.00000000000E+00  0.00000000000E+00 -0.36238782690E+03  0.57581974390E+03  0.44748568735E+03 0.  0.
      99925    2    3    3    0    0 -0.56715379982E+02  0.87057671248E+02 -0.25644637085E+03  0.38174044913E+03  0.26299307392E+03 0.  0.
         25    1    4    4    0    0 -0.29279980892E+01  0.75380966507E+02 -0.13543307672E+03  0.19919962263E+03  0.12509000000E+03 0.  0.
         25    1    4    4    0    0 -0.53787381893E+02  0.11676704740E+02 -0.12101329413E+03  0.18254082650E+03  0.12509000000E+03 0.  0.
         25    1    3    3    0    0  0.56715379982E+02 -0.87057671248E+02 -0.10594145606E+03  0.19407929478E+03  0.12509000000E+03 0.  0.
<mgrwt>
<rscale>  2 0.44748569E+03</rscale>
<asrwt>0</asrwt>
<pdfrwt beam="1">  1       21 0.15693523E-01 0.44748569E+03</pdfrwt>
<pdfrwt beam="2">  1       21 0.68985852E-01 0.44748569E+03</pdfrwt>
<totfact> 0.63904751E+04</totfact>
</mgrwt>
</event>
<event>
 7    0  0.4752811E-002  0.4385322E+03  0.7546771E-02  0.1031198E+00
         21   -1    0    0  502  501  0.00000000000E+00  0.00000000000E+00  0.62483841062E+03  0.62483841062E+03  0.00000000000E+00 0.  1.
         21   -1    0    0  501  502 -0.00000000000E+00 -0.00000000000E+00 -0.76944092624E+02  0.76944092624E+02  0.00000000000E+00 0.  1.
      99926    2    1    2    0    0 -0.35527136788E-14  0.00000000000E+00  0.54789431800E+03  0.70178250325E+03  0.43853220882E+03 0.  0.
      99925    2    3    3    0    0 -0.72198906963E+01  0.57301748237E+02  0.22571406750E+03  0.35137810960E+03  0.26302874077E+03 0.  0.
         25    1    4    4    0    0  0.30371363506E+02  0.33661139905E+02  0.14123581550E+03  0.19403751117E+03  0.12509000000E+03 0.  0.
         25    1    4    4    0    0 -0.37591254202E+02  0.23640608332E+02  0.84478252002E+02  0.15734059844E+03  0.12509000000E+03 0.  0.
         25    1    3    3    0    0  0.72198906963E+01 -0.57301748237E+02  0.32218025050E+03  0.35040439364E+03  0.12509000000E+03 0.  0.
<mgrwt>
<rscale>  2 0.43853221E+03</rscale>
<asrwt>0</asrwt>
<pdfrwt beam="1">  1       21 0.91887999E-01 0.43853221E+03</pdfrwt>
<pdfrwt beam="2">  1       21 0.11315308E-01 0.43853221E+03</pdfrwt>
<totfact> 0.60241526E+04</totfact>
</mgrwt>
</event>
<event>
 7    0  0.4752811E-002  0.4524109E+03  0.7546771E-02  0.1027006E+00
         21   -1    0    0  502  501  0.00000000000E+00  0.00000000000E+00  0.41393881592E+03  0.41393881592E+03  0.00000000000E+00 0.  1.
         21   -1    0    0  501  502 -0.00000000000E+00 -0.00000000000E+00 -0.12361465976E+03  0.12361465976E+03  0.00000000000E+00 0.  1.
      99926    2    1    2    0    0  0.00000000000E+00  0.00000000000E+00  0.29032415617E+03  0.53755347568E+03  0.45241090124E+03 0.  0.
      99925    2    3    3    0    0  0.30676200339E+02  0.92173370332E+02  0.24658234522E+03  0.37324336160E+03  0.26281323128E+03 0.  0.
         25    1    3    3    0    0 -0.30676200339E+02 -0.92173370332E+02  0.43741810950E+02  0.16431011409E+03  0.12509000000E+03 0.  0.
         25    1    4    4    0    0  0.46726585571E+02  0.30463799750E+02  0.95358612723E+02  0.16688975407E+03  0.12509000000E+03 0.  0.
         25    1    4    4    0    0 -0.16050385232E+02  0.61709570582E+02  0.15122373249E+03  0.20635360752E+03  0.12509000000E+03 0.  0.
<mgrwt>
<rscale>  2 0.45241090E+03</rscale>
<asrwt>0</asrwt>
<pdfrwt beam="1">  1       21 0.60873355E-01 0.45241090E+03</pdfrwt>
<pdfrwt beam="2">  1       21 0.18178627E-01 0.45241090E+03</pdfrwt>
<totfact> 0.63997897E+04</totfact>
</mgrwt>
</event>
<event>
 7    0  0.4752811E-002  0.4384552E+03  0.7546771E-02  0.1031222E+00
         21   -1    0    0  502  501  0.00000000000E+00  0.00000000000E+00  0.42848739691E+03  0.42848739691E+03  0.00000000000E+00 0.  1.
         21   -1    0    0  501  502 -0.00000000000E+00 -0.00000000000E+00 -0.11216369593E+03  0.11216369593E+03  0.00000000000E+00 0.  1.
      99926    2    1    2    0    0  0.00000000000E+00  0.00000000000E+00  0.31632370098E+03  0.54065109283E+03  0.43845515207E+03 0.  0.
      99925    2    3    3    0    0  0.36769052892E+02 -0.14873142066E+02  0.31111385040E+03  0.40932012067E+03  0.26301703304E+03 0.  0.
         25    1    4    4    0    0 -0.18006633840E+02  0.10930102317E+02  0.14125006970E+03  0.18984940424E+03  0.12509000000E+03 0.  0.
         25    1    3    3    0    0 -0.36769052892E+02  0.14873142066E+02  0.52098505739E+01  0.13133097216E+03  0.12509000000E+03 0.  0.
         25    1    4    4    0    0  0.54775686732E+02 -0.25803244383E+02  0.16986378070E+03  0.21947071643E+03  0.12509000000E+03 0.  0.
<mgrwt>
<rscale>  2 0.43845515E+03</rscale>
<asrwt>0</asrwt>
<pdfrwt beam="1">  1       21 0.63012852E-01 0.43845515E+03</pdfrwt>
<pdfrwt beam="2">  1       21 0.16494661E-01 0.43845515E+03</pdfrwt>
<totfact> 0.71386011E+04</totfact>
</mgrwt>
</event>
<event>
 7    0  0.4752811E-002  0.4397173E+03  0.7546771E-02  0.1030834E+00
         21   -1    0    0  502  501  0.00000000000E+00  0.00000000000E+00  0.16388648825E+03  0.16388648825E+03  0.00000000000E+00 0. -1.
         21   -1    0    0  501  502 -0.00000000000E+00 -0.00000000000E+00 -0.29494703802E+03  0.29494703802E+03  0.00000000000E+00 0. -1.
      99926    2    1    2    0    0  0.00000000000E+00 -0.22204460493E-14 -0.13106054977E+03  0.45883352628E+03  0.43971733776E+03 0.  0.
      99925    2    3    3    0    0 -0.96565339722E+02  0.38023319608E+01 -0.65871329295E+02  0.28784678664E+03  0.26301600330E+03 0.  0.
         25    1    3    3    0    0  0.96565339722E+02 -0.38023319608E+01 -0.65189220478E+02  0.17098673963E+03  0.12509000000E+03 0.  0.
         25    1    4    4    0    0 -0.62436719276E+02 -0.24210650646E+02 -0.62783278927E+02  0.15515717106E+03  0.12509000000E+03 0.  0.
         25    1    4    4    0    0 -0.34128620447E+02  0.28012982607E+02 -0.30880503686E+01  0.13268961558E+03  0.12509000000E+03 0.  0.
<mgrwt>
<rscale>  2 0.43971734E+03</rscale>
<asrwt>0</asrwt>
<pdfrwt beam="1">  1       21 0.24100954E-01 0.43971734E+03</pdfrwt>
<pdfrwt beam="2">  1       21 0.43374564E-01 0.43971734E+03</pdfrwt>
<totfact> 0.77221569E+04</totfact>
</mgrwt>
</event>
<event>
 7    0  0.4752811E-002  0.4560112E+03  0.7546771E-02  0.1025944E+00
         21   -1    0    0  502  501  0.00000000000E+00  0.00000000000E+00  0.99442945186E+02  0.99442945186E+02  0.00000000000E+00 0.  1.
         21   -1    0    0  501  502 -0.00000000000E+00 -0.00000000000E+00 -0.52277775475E+03  0.52277775475E+03  0.00000000000E+00 0.  1.
      99926    2    1    2    0    0 -0.14210854715E-13  0.14210854715E-13 -0.42333480956E+03  0.62222069993E+03  0.45601122622E+03 0.  0.
      99925    2    3    3    0    0 -0.69253881759E+02 -0.84421155255E+02 -0.22030636684E+03  0.35994014738E+03  0.26286685381E+03 0.  0.
         25    1    3    3    0    0  0.69253881759E+02  0.84421155255E+02 -0.20302844272E+03  0.26228055255E+03  0.12509000000E+03 0.  0.
         25    1    4    4    0    0 -0.37789942825E+01 -0.14794292804E+02 -0.81636752808E+02  0.15015065570E+03  0.12509000000E+03 0.  0.
         25    1    4    4    0    0 -0.65474887476E+02 -0.69626862451E+02 -0.13866961403E+03  0.20978949168E+03  0.12509000000E+03 0.  0.
<mgrwt>
<rscale>  2 0.45601123E+03</rscale>
<asrwt>0</asrwt>
<pdfrwt beam="1">  1       21 0.14623962E-01 0.45601123E+03</pdfrwt>
<pdfrwt beam="2">  1       21 0.76879083E-01 0.45601123E+03</pdfrwt>
<totfact> 0.56875461E+04</totfact>
</mgrwt>
</event>
<event>
 7    0  0.4752811E-002  0.4600438E+03  0.7546771E-02  0.1024769E+00
         21   -1    0    0  502  501  0.00000000000E+00  0.00000000000E+00  0.20706040554E+03  0.20706040554E+03  0.00000000000E+00 0. -1.
         21   -1    0    0  501  502 -0.00000000000E+00 -0.00000000000E+00 -0.25552960937E+03  0.25552960937E+03  0.00000000000E+00 0. -1.
      99926    2    1    2    0    0  0.71054273576E-14 -0.14210854715E-13 -0.48469203831E+02  0.46259001491E+03  0.46004375681E+03 0.  0.
      99925    2    3    3    0    0 -0.35805405827E+02 -0.10390099683E+03  0.11269096131E+02  0.28568999566E+03  0.26346600704E+03 0.  0.
         25    1    4    4    0    0  0.16958718603E+02 -0.56907380476E+02  0.27293678634E+02  0.14113291991E+03  0.12509000000E+03 0.  0.
         25    1    4    4    0    0 -0.52764124430E+02 -0.46993616357E+02 -0.16024582504E+02  0.14455707575E+03  0.12509000000E+03 0.  0.
         25    1    3    3    0    0  0.35805405827E+02  0.10390099683E+03 -0.59738299961E+02  0.17690001925E+03  0.12509000000E+03 0.  0.
<mgrwt>
<rscale>  2 0.46004376E+03</rscale>
<asrwt>0</asrwt>
<pdfrwt beam="1">  1       21 0.30450060E-01 0.46004376E+03</pdfrwt>
<pdfrwt beam="2">  1       21 0.37577883E-01 0.46004376E+03</pdfrwt>
<totfact> 0.65324639E+04</totfact>
</mgrwt>
</event>
<event>
 7    0  0.4752811E-002  0.4441644E+03  0.7546771E-02  0.1029477E+00
         21   -1    0    0  502  501  0.00000000000E+00  0.00000000000E+00  0.70445900578E+02  0.70445900578E+02  0.00000000000E+00 0.  1.
         21   -1    0    0  501  502 -0.00000000000E+00 -0.00000000000E+00 -0.70011893190E+03  0.70011893190E+03  0.00000000000E+00 0.  1.
      99926    2    1    2    0    0  0.00000000000E+00  0.00000000000E+00 -0.62967303132E+03  0.77056483247E+03  0.44416442302E+03 0.  0.
      99925    2    3    3    0    0  0.34274508629E+02 -0.82257546585E+01 -0.23299920680E+03  0.35314413804E+03  0.26302043054E+03 0.  0.
         25    1    3    3    0    0 -0.34274508629E+02  0.82257546585E+01 -0.39667382452E+03  0.41742069443E+03  0.12509000000E+03 0.  0.
         25    1    4    4    0    0  0.18340713165E+02  0.10619975035E+01 -0.62946685608E+02  0.14123492106E+03  0.12509000000E+03 0.  0.
         25    1    4    4    0    0  0.15933795464E+02 -0.92877521620E+01 -0.17005252119E+03  0.21190921698E+03  0.12509000000E+03 0.  0.
<mgrwt>
<rscale>  2 0.44416442E+03</rscale>
<asrwt>0</asrwt>
<pdfrwt beam="1">  1       21 0.10359691E-01 0.44416442E+03</pdfrwt>
<pdfrwt beam="2">  1       21 0.10295867E+00 0.44416442E+03</pdfrwt>
<totfact> 0.53640769E+04</totfact>
</mgrwt>
</event>
<event>
 7    0  0.4752811E-002  0.4572326E+03  0.7546771E-02  0.1025587E+00
         21   -1    0    0  502  501  0.00000000000E+00  0.00000000000E+00  0.28266595510E+03  0.28266595510E+03  0.00000000000E+00 0. -1.
         21   -1    0    0  501  502 -0.00000000000E+00 -0.00000000000E+00 -0.18490166048E+03  0.18490166048E+03  0.00000000000E+00 0. -1.
      99926    2    1    2    0    0  0.00000000000E+00  0.00000000000E+00  0.97764294615E+02  0.46756761558E+03  0.45723256428E+03 0.  0.
      99925    2    3    3    0    0 -0.62593583581E+02 -0.64180091241E+02  0.13502736286E+03  0.30922278563E+03  0.26334255565E+03 0.  0.
         25    1    4    4    0    0  0.36918330156E+01 -0.36264944039E+02  0.88913992622E+02  0.15774023577E+03  0.12509000000E+03 0.  0.
         25    1    4    4    0    0 -0.66285416597E+02 -0.27915147202E+02  0.46113370242E+02  0.15148254986E+03  0.12509000000E+03 0.  0.
         25    1    3    3    0    0  0.62593583581E+02  0.64180091241E+02 -0.37263068250E+02  0.15834482995E+03  0.12509000000E+03 0.  0.
<mgrwt>
<rscale>  2 0.45723256E+03</rscale>
<asrwt>0</asrwt>
<pdfrwt beam="1">  1       21 0.41568523E-01 0.45723256E+03</pdfrwt>
<pdfrwt beam="2">  1       21 0.27191421E-01 0.45723256E+03</pdfrwt>
<totfact> 0.66433332E+04</totfact>
</mgrwt>
</event>
<event>
 7    0  0.4752811E-002  0.4324754E+03  0.7546771E-02  0.1033081E+00
         21   -1    0    0  502  501  0.00000000000E+00  0.00000000000E+00  0.14462807017E+04  0.14462807017E+04  0.00000000000E+00 0.  1.
         21   -1    0    0  501  502 -0.00000000000E+00 -0.00000000000E+00 -0.32330344371E+02  0.32330344371E+02  0.00000000000E+00 0.  1.
      99926    2    1    2    0    0  0.00000000000E+00  0.00000000000E+00  0.14139503573E+04  0.14786110460E+04  0.43247544736E+03 0.  0.
      99925    2    3    3    0    0  0.58112121003E+02 -0.61582976192E+02  0.80428348992E+03  0.85051019519E+03  0.26329864867E+03 0.  0.
         25    1    4    4    0    0  0.13432221154E+02 -0.36415585284E+02  0.28066753565E+03  0.30972292954E+03  0.12509000000E+03 0.  0.
         25    1    3    3    0    0 -0.58112121003E+02  0.61582976192E+02  0.60966686738E+03  0.62810085086E+03  0.12509000000E+03 0.  0.
         25    1    4    4    0    0  0.44679899849E+02 -0.25167390908E+02  0.52361595427E+03  0.54078726565E+03  0.12509000000E+03 0.  0.
<mgrwt>
<rscale>  2 0.43247545E+03</rscale>
<asrwt>0</asrwt>
<pdfrwt beam="1">  1       21 0.21268829E+00 0.43247545E+03</pdfrwt>
<pdfrwt beam="2">  1       21 0.47544634E-02 0.43247545E+03</pdfrwt>
<totfact> 0.29072112E+04</totfact>
</mgrwt>
</event>
<event>
 7    0  0.4752811E-002  0.4796016E+03  0.7546771E-02  0.1019245E+00
         21   -1    0    0  502  501  0.00000000000E+00  0.00000000000E+00  0.17727819830E+03  0.17727819830E+03  0.00000000000E+00 0.  1.
         21   -1    0    0  501  502 -0.00000000000E+00 -0.00000000000E+00 -0.32437397846E+03  0.32437397846E+03  0.00000000000E+00 0.  1.
      99926    2    1    2    0    0  0.00000000000E+00  0.00000000000E+00 -0.14709578017E+03  0.50165217676E+03  0.47960164502E+03 0.  0.
      99925    2    3    3    0    0  0.49689387560E+02 -0.16174775738E+02 -0.22074177470E+03  0.34737353528E+03  0.26307942396E+03 0.  0.
         25    1    3    3    0    0 -0.49689387560E+02  0.16174775738E+02  0.73645994527E+02  0.15427864148E+03  0.12509000000E+03 0.  0.
         25    1    4    4    0    0  0.26943146545E+02  0.20433146634E+02 -0.14679192805E+03  0.19580302568E+03  0.12509000000E+03 0.  0.
         25    1    4    4    0    0  0.22746241015E+02 -0.36607922372E+02 -0.73949846650E+02  0.15157050960E+03  0.12509000000E+03 0.  0.
<mgrwt>
<rscale>  2 0.47960165E+03</rscale>
<asrwt>0</asrwt>
<pdfrwt beam="1">  1       21 0.26070323E-01 0.47960165E+03</pdfrwt>
<pdfrwt beam="2">  1       21 0.47702055E-01 0.47960165E+03</pdfrwt>
<totfact> 0.53845499E+04</totfact>
</mgrwt>
</event>
<event>
 7    0  0.4752811E-002  0.3910223E+03  0.7546771E-02  0.1046933E+00
         21   -1    0    0  502  501  0.00000000000E+00  0.00000000000E+00  0.29720195030E+03  0.29720195030E+03  0.00000000000E+00 0.  1.
         21   -1    0    0  501  502 -0.00000000000E+00 -0.00000000000E+00 -0.12861496755E+03  0.12861496755E+03  0.00000000000E+00 0.  1.
      99926    2    1    2    0    0  0.00000000000E+00  0.35527136788E-14  0.16858698275E+03  0.42581691784E+03  0.39102234817E+03 0.  0.
      99925    2    3    3    0    0  0.97105022028E+01 -0.19420280343E+02  0.10825083908E+03  0.28524878676E+03  0.26301556047E+03 0.  0.
         25    1    3    3    0    0 -0.97105022028E+01  0.19420280343E+02  0.60336143675E+02  0.14056813108E+03  0.12509000000E+03 0.  0.
         25    1    4    4    0    0  0.28090588800E+02  0.22875324504E+02  0.46045198242E+02  0.13813048191E+03  0.12509000000E+03 0.  0.
         25    1    4    4    0    0 -0.18380086597E+02 -0.42295604847E+02  0.62205640836E+02  0.14711830486E+03  0.12509000000E+03 0.  0.
<mgrwt>
<rscale>  2 0.39102235E+03</rscale>
<asrwt>0</asrwt>
<pdfrwt beam="1">  1       21 0.43706169E-01 0.39102235E+03</pdfrwt>
<pdfrwt beam="2">  1       21 0.18913966E-01 0.39102235E+03</pdfrwt>
<totfact> 0.12200878E+05</totfact>
</mgrwt>
</event>
<event>
 7    0  0.4752811E-002  0.4588102E+03  0.7546771E-02  0.1025127E+00
         21   -1    0    0  502  501  0.00000000000E+00  0.00000000000E+00  0.18565055696E+03  0.18565055696E+03  0.00000000000E+00 0. -1.
         21   -1    0    0  501  502 -0.00000000000E+00 -0.00000000000E+00 -0.28347176600E+03  0.28347176600E+03  0.00000000000E+00 0. -1.
      99926    2    1    2    0    0  0.00000000000E+00  0.00000000000E+00 -0.97821209043E+02  0.46912232296E+03  0.45881016222E+03 0.  0.
      99925    2    3    3    0    0 -0.40895974448E+02 -0.21715216115E+02 -0.17093024781E+03  0.31701554801E+03  0.26294044330E+03 0.  0.
         25    1    4    4    0    0 -0.21463077149E+01 -0.35555568021E+02 -0.11620521082E+03  0.17441319955E+03  0.12509000000E+03 0.  0.
         25    1    4    4    0    0 -0.38749666733E+02  0.13840351906E+02 -0.54725036984E+02  0.14260234846E+03  0.12509000000E+03 0.  0.
         25    1    3    3    0    0  0.40895974448E+02  0.21715216115E+02  0.73109038764E+02  0.15210677495E+03  0.12509000000E+03 0.  0.
<mgrwt>
<rscale>  2 0.45881016E+03</rscale>
<asrwt>0</asrwt>
<pdfrwt beam="1">  1       21 0.27301553E-01 0.45881016E+03</pdfrwt>
<pdfrwt beam="2">  1       21 0.41687024E-01 0.45881016E+03</pdfrwt>
<totfact> 0.65499039E+04</totfact>
</mgrwt>
</event>
<event>
 7    0  0.4752811E-002  0.4443046E+03  0.7546771E-02  0.1029434E+00
         21   -1    0    0  502  501  0.00000000000E+00  0.00000000000E+00  0.26494866445E+03  0.26494866445E+03  0.00000000000E+00 0. -1.
         21   -1    0    0  501  502 -0.00000000000E+00 -0.00000000000E+00 -0.18626874300E+03  0.18626874300E+03  0.00000000000E+00 0. -1.
      99926    2    1    2    0    0  0.00000000000E+00 -0.14210854715E-13  0.78679921444E+02  0.45121740745E+03  0.44430464632E+03 0.  0.
      99925    2    3    3    0    0  0.73696706124E+01 -0.96324898312E+02  0.85981275723E+02  0.29299725717E+03  0.26291027910E+03 0.  0.
         25    1    4    4    0    0  0.37318554993E+01 -0.24173159063E+02  0.75552051528E+02  0.14816844791E+03  0.12509000000E+03 0.  0.
         25    1    4    4    0    0  0.36378151131E+01 -0.72151739249E+02  0.10429224195E+02  0.14482880926E+03  0.12509000000E+03 0.  0.
         25    1    3    3    0    0 -0.73696706124E+01  0.96324898312E+02 -0.73013542786E+01  0.15822015028E+03  0.12509000000E+03 0.  0.
<mgrwt>
<rscale>  2 0.44430465E+03</rscale>
<asrwt>0</asrwt>
<pdfrwt beam="1">  1       21 0.38963039E-01 0.44430465E+03</pdfrwt>
<pdfrwt beam="2">  1       21 0.27392462E-01 0.44430465E+03</pdfrwt>
<totfact> 0.75022457E+04</totfact>
</mgrwt>
</event>
<event>
 7    0  0.4752811E-002  0.4523973E+03  0.7546771E-02  0.1027010E+00
         21   -1    0    0  502  501  0.00000000000E+00  0.00000000000E+00  0.19154938846E+03  0.19154938846E+03  0.00000000000E+00 0.  1.
         21   -1    0    0  501  502 -0.00000000000E+00 -0.00000000000E+00 -0.26711559922E+03  0.26711559922E+03  0.00000000000E+00 0.  1.
      99926    2    1    2    0    0  0.00000000000E+00  0.00000000000E+00 -0.75566210766E+02  0.45866498768E+03  0.45239730184E+03 0.  0.
      99925    2    3    3    0    0 -0.78239999852E+02 -0.77979972244E+02 -0.54406880406E+02  0.29044608562E+03  0.26305217424E+03 0.  0.
         25    1    3    3    0    0  0.78239999852E+02  0.77979972244E+02 -0.21159330360E+02  0.16821890206E+03  0.12509000000E+03 0.  0.
         25    1    4    4    0    0 -0.28648556391E+02 -0.52739468048E+02 -0.64828016868E+02  0.15314167018E+03  0.12509000000E+03 0.  0.
         25    1    4    4    0    0 -0.49591443461E+02 -0.25240504196E+02  0.10421136461E+02  0.13730441545E+03  0.12509000000E+03 0.  0.
<mgrwt>
<rscale>  2 0.45239730E+03</rscale>
<asrwt>0</asrwt>
<pdfrwt beam="1">  1       21 0.28169028E-01 0.45239730E+03</pdfrwt>
<pdfrwt beam="2">  1       21 0.39281706E-01 0.45239730E+03</pdfrwt>
<totfact> 0.69713601E+04</totfact>
</mgrwt>
</event>
<event>
 7    0  0.4752811E-002  0.4527243E+03  0.7546771E-02  0.1026913E+00
         21   -1    0    0  502  501  0.00000000000E+00  0.00000000000E+00  0.15027327288E+03  0.15027327288E+03  0.00000000000E+00 0.  1.
         21   -1    0    0  501  502 -0.00000000000E+00 -0.00000000000E+00 -0.34097757949E+03  0.34097757949E+03  0.00000000000E+00 0.  1.
      99926    2    1    2    0    0 -0.71054273576E-14  0.00000000000E+00 -0.19070430660E+03  0.49125085237E+03  0.45272427304E+03 0.  0.
      99925    2    3    3    0    0  0.46491080450E+02  0.97134985691E+02 -0.89514852542E+02  0.29764444824E+03  0.26264554581E+03 0.  0.
         25    1    4    4    0    0 -0.15275445988E+02  0.51403118024E+02 -0.55245888459E+02  0.14688511185E+03  0.12509000000E+03 0.  0.
         25    1    4    4    0    0  0.61766526438E+02  0.45731867667E+02 -0.34268964083E+02  0.15075933639E+03  0.12509000000E+03 0.  0.
         25    1    3    3    0    0 -0.46491080450E+02 -0.97134985691E+02 -0.10118945406E+03  0.19360640413E+03  0.12509000000E+03 0.  0.
<mgrwt>
<rscale>  2 0.45272427E+03</rscale>
<asrwt>0</asrwt>
<pdfrwt beam="1">  1       21 0.22099011E-01 0.45272427E+03</pdfrwt>
<pdfrwt beam="2">  1       21 0.50143760E-01 0.45272427E+03</pdfrwt>
<totfact> 0.67093750E+04</totfact>
</mgrwt>
</event>
<event>
 7    0  0.4752811E-002  0.4545297E+03  0.7546771E-02  0.1026380E+00
         21   -1    0    0  502  501  0.00000000000E+00  0.00000000000E+00  0.13787644593E+03  0.13787644593E+03  0.00000000000E+00 0. -1.
         21   -1    0    0  501  502 -0.00000000000E+00 -0.00000000000E+00 -0.37460581797E+03  0.37460581797E+03  0.00000000000E+00 0. -1.
      99926    2    1    2    0    0  0.00000000000E+00  0.17763568394E-14 -0.23672937204E+03  0.51248226391E+03  0.45452972976E+03 0.  0.
      99925    2    3    3    0    0  0.93968971264E+02 -0.11719403634E+02 -0.79981428163E+02  0.29070548877E+03  0.26295463557E+03 0.  0.
         25    1    4    4    0    0  0.65387890819E+01 -0.18071544734E+02 -0.41451846731E+02  0.13317319621E+03  0.12509000000E+03 0.  0.
         25    1    3    3    0    0 -0.93968971264E+02  0.11719403634E+02 -0.15674794388E+03  0.22177677514E+03  0.12509000000E+03 0.  0.
         25    1    4    4    0    0  0.87430182182E+02  0.63521410991E+01 -0.38529581432E+02  0.15753229256E+03  0.12509000000E+03 0.  0.
<mgrwt>
<rscale>  2 0.45452973E+03</rscale>
<asrwt>0</asrwt>
<pdfrwt beam="1">  1       21 0.20275948E-01 0.45452973E+03</pdfrwt>
<pdfrwt beam="2">  1       21 0.55089090E-01 0.45452973E+03</pdfrwt>
<totfact> 0.64643249E+04</totfact>
</mgrwt>
</event>
<event>
 7    0  0.4752811E-002  0.4532611E+03  0.7546771E-02  0.1026754E+00
         21   -1    0    0  502  501  0.00000000000E+00  0.00000000000E+00  0.19192174949E+04  0.19192174949E+04  0.00000000000E+00 0.  1.
         21   -1    0    0  501  502 -0.00000000000E+00 -0.00000000000E+00 -0.26761643757E+02  0.26761643757E+02  0.00000000000E+00 0.  1.
      99926    2    1    2    0    0  0.00000000000E+00  0.00000000000E+00  0.18924558511E+04  0.19459791387E+04  0.45326113837E+03 0.  0.
      99925    2    3    3    0    0 -0.87727997384E+02  0.63890351868E+02  0.10829606356E+04  0.11197175634E+04  0.26303137652E+03 0.  0.
         25    1    4    4    0    0 -0.45204187511E+02 -0.82495112847E+01  0.46825939066E+03  0.48685299428E+03  0.12509000000E+03 0.  0.
         25    1    3    3    0    0  0.87727997384E+02 -0.63890351868E+02  0.80949521556E+03  0.82626157523E+03  0.12509000000E+03 0.  0.
         25    1    4    4    0    0 -0.42523809873E+02  0.72139863153E+02  0.61470124492E+03  0.63286456914E+03  0.12509000000E+03 0.  0.
<mgrwt>
<rscale>  2 0.45326114E+03</rscale>
<asrwt>0</asrwt>
<pdfrwt beam="1">  1       21 0.28223777E+00 0.45326114E+03</pdfrwt>
<pdfrwt beam="2">  1       21 0.39355372E-02 0.45326114E+03</pdfrwt>
<totfact> 0.14810947E+04</totfact>
</mgrwt>
</event>
<event>
 7    0  0.4752811E-002  0.4627462E+03  0.7546771E-02  0.1023988E+00
         21   -1    0    0  502  501  0.00000000000E+00  0.00000000000E+00  0.24504470406E+03  0.24504470406E+03  0.00000000000E+00 0. -1.
         21   -1    0    0  501  502 -0.00000000000E+00 -0.00000000000E+00 -0.21846430433E+03  0.21846430433E+03  0.00000000000E+00 0. -1.
      99926    2    1    2    0    0 -0.71054273576E-14  0.13322676296E-14  0.26580399730E+02  0.46350900839E+03  0.46274624063E+03 0.  0.
      99925    2    3    3    0    0 -0.50214677389E+02  0.22408037815E+01  0.12601718116E+03  0.29599269090E+03  0.26306806741E+03 0.  0.
         25    1    4    4    0    0 -0.31013874675E+02 -0.38419144802E+02  0.55101189723E+02  0.14533251638E+03  0.12509000000E+03 0.  0.
         25    1    3    3    0    0  0.50214677389E+02 -0.22408037815E+01 -0.99436781426E+02  0.16751631750E+03  0.12509000000E+03 0.  0.
         25    1    4    4    0    0 -0.19200802714E+02  0.40659948584E+02  0.70915991433E+02  0.15066017451E+03  0.12509000000E+03 0.  0.
<mgrwt>
<rscale>  2 0.46274624E+03</rscale>
<asrwt>0</asrwt>
<pdfrwt beam="1">  1       21 0.36035986E-01 0.46274624E+03</pdfrwt>
<pdfrwt beam="2">  1       21 0.32127104E-01 0.46274624E+03</pdfrwt>
<totfact> 0.63886114E+04</totfact>
</mgrwt>
</event>
<event>
 7    0  0.4752811E-002  0.4565417E+03  0.7546771E-02  0.1025789E+00
         21   -1    0    0  502  501  0.00000000000E+00  0.00000000000E+00  0.11514162189E+04  0.11514162189E+04  0.00000000000E+00 0. -1.
         21   -1    0    0  501  502 -0.00000000000E+00 -0.00000000000E+00 -0.45255212803E+02  0.45255212803E+02  0.00000000000E+00 0. -1.
      99926    2    1    2    0    0  0.00000000000E+00  0.00000000000E+00  0.11061610061E+04  0.11966714317E+04  0.45654172213E+03 0.  0.
      99925    2    3    3    0    0  0.53737378569E+02 -0.33618789328E+02  0.94531462489E+03  0.98327744093E+03  0.26305295466E+03 0.  0.
         25    1    4    4    0    0  0.25421095638E+02 -0.12312997181E+02  0.61641971626E+03  0.62961783384E+03  0.12509000000E+03 0.  0.
         25    1    3    3    0    0 -0.53737378569E+02  0.33618789328E+02  0.16084638120E+03  0.21339399077E+03  0.12509000000E+03 0.  0.
         25    1    4    4    0    0  0.28316282930E+02 -0.21305792147E+02  0.32889490863E+03  0.35365960708E+03  0.12509000000E+03 0.  0.
<mgrwt>
<rscale>  2 0.45654172E+03</rscale>
<asrwt>0</asrwt>
<pdfrwt beam="1">  1       21 0.16932590E+00 0.45654172E+03</pdfrwt>
<pdfrwt beam="2">  1       21 0.66551791E-02 0.45654172E+03</pdfrwt>
<totfact> 0.31877044E+04</totfact>
</mgrwt>
</event>
<event>
 7    0  0.4752811E-002  0.4506029E+03  0.7546771E-02  0.1027542E+00
         21   -1    0    0  502  501  0.00000000000E+00  0.00000000000E+00  0.10017238503E+03  0.10017238503E+03  0.00000000000E+00 0. -1.
         21   -1    0    0  501  502 -0.00000000000E+00 -0.00000000000E+00 -0.50673387852E+03  0.50673387852E+03  0.00000000000E+00 0. -1.
      99926    2    1    2    0    0  0.00000000000E+00  0.00000000000E+00 -0.40656149349E+03  0.60690626356E+03  0.45060289031E+03 0.  0.
      99925    2    3    3    0    0  0.72045415486E+02 -0.68968522197E+02 -0.19824130801E+03  0.34424296821E+03  0.26316611866E+03 0.  0.
         25    1    3    3    0    0 -0.72045415486E+02  0.68968522197E+02 -0.20832018548E+03  0.26266329535E+03  0.12509000000E+03 0.  0.
         25    1    4    4    0    0  0.16937064932E+02 -0.58409840309E+02 -0.13287714928E+03  0.19236012714E+03  0.12509000000E+03 0.  0.
         25    1    4    4    0    0  0.55108350554E+02 -0.10558681889E+02 -0.65364158735E+02  0.15188284107E+03  0.12509000000E+03 0.  0.
<mgrwt>
<rscale>  2 0.45060289E+03</rscale>
<asrwt>0</asrwt>
<pdfrwt beam="1">  1       21 0.14731233E-01 0.45060289E+03</pdfrwt>
<pdfrwt beam="2">  1       21 0.74519688E-01 0.45060289E+03</pdfrwt>
<totfact> 0.60323346E+04</totfact>
</mgrwt>
</event>
<event>
 7    0  0.4752811E-002  0.4437914E+03  0.7546771E-02  0.1029590E+00
         21   -1    0    0  502  501  0.00000000000E+00  0.00000000000E+00  0.16818184780E+03  0.16818184780E+03  0.00000000000E+00 0. -1.
         21   -1    0    0  501  502 -0.00000000000E+00 -0.00000000000E+00 -0.29276461416E+03  0.29276461416E+03  0.00000000000E+00 0. -1.
      99926    2    1    2    0    0  0.00000000000E+00  0.00000000000E+00 -0.12458276636E+03  0.46094646195E+03  0.44379136440E+03 0.  0.
      99925    2    3    3    0    0 -0.62120305217E+02 -0.78507514323E+02 -0.57271406480E+02  0.28716300648E+03  0.26298330017E+03 0.  0.
         25    1    4    4    0    0 -0.36337106378E+02 -0.38175195279E+02 -0.69813410123E+02  0.15264059476E+03  0.12509000000E+03 0.  0.
         25    1    4    4    0    0 -0.25783198839E+02 -0.40332319044E+02  0.12542003643E+02  0.13452241173E+03  0.12509000000E+03 0.  0.
         25    1    3    3    0    0  0.62120305217E+02  0.78507514323E+02 -0.67311359879E+02  0.17378345547E+03  0.12509000000E+03 0.  0.
<mgrwt>
<rscale>  2 0.44379136E+03</rscale>
<asrwt>0</asrwt>
<pdfrwt beam="1">  1       21 0.24732625E-01 0.44379136E+03</pdfrwt>
<pdfrwt beam="2">  1       21 0.43053619E-01 0.44379136E+03</pdfrwt>
<totfact> 0.74524337E+04</totfact>
</mgrwt>
</event>
<event>
 7    0  0.4752811E-002  0.4535050E+03  0.7546771E-02  0.1026682E+00
         21   -1    0    0  502  501  0.00000000000E+00  0.00000000000E+00  0.17412413204E+03  0.17412413204E+03  0.00000000000E+00 0.  1.
         21   -1    0    0  501  502 -0.00000000000E+00 -0.00000000000E+00 -0.29528756693E+03  0.29528756693E+03  0.00000000000E+00 0.  1.
      99926    2    1    2    0    0  0.00000000000E+00 -0.35527136788E-14 -0.12116343488E+03  0.46941169897E+03  0.45350497812E+03 0.  0.
      99925    2    3    3    0    0  0.18135269107E+02 -0.26965589334E+02  0.34404811870E+02  0.26716180777E+03  0.26293670237E+03 0.  0.
         25    1    4    4    0    0  0.28205468207E+02 -0.45646508809E+02  0.33953025319E+02  0.14028352801E+03  0.12509000000E+03 0.  0.
         25    1    3    3    0    0 -0.18135269107E+02  0.26965589334E+02 -0.15556824675E+03  0.20224989120E+03  0.12509000000E+03 0.  0.
         25    1    4    4    0    0 -0.10070199100E+02  0.18680919475E+02  0.45178655111E+00  0.12687827975E+03  0.12509000000E+03 0.  0.
<mgrwt>
<rscale>  2 0.45350498E+03</rscale>
<asrwt>0</asrwt>
<pdfrwt beam="1">  1       21 0.25606490E-01 0.45350498E+03</pdfrwt>
<pdfrwt beam="2">  1       21 0.43424641E-01 0.45350498E+03</pdfrwt>
<totfact> 0.68285791E+04</totfact>
</mgrwt>
</event>
<event>
 6    0  0.4752811E-002  0.4627272E+03  0.7546771E-02  0.1023993E+00
         21   -1    0    0  502  501  0.00000000000E+00  0.00000000000E+00  0.13611875473E+03  0.13611875473E+03  0.00000000000E+00 0.  1.
         21   -1    0    0  501  502 -0.00000000000E+00 -0.00000000000E+00 -0.39325303390E+03  0.39325303390E+03  0.00000000000E+00 0.  1.
      99926    2    1    2    0    0  0.00000000000E+00  0.00000000000E+00 -0.25713427917E+03  0.52937178863E+03  0.46272719076E+03 0.  0.
         25    1    3    3    0    0 -0.71359431942E+02  0.43807477617E+02 -0.20115036583E+03  0.25123742037E+03  0.12509000000E+03 0.  0.
         25    1    3    3    0    0  0.15067101010E+02 -0.30790817331E+02 -0.53556148560E+02  0.14032412876E+03  0.12509000000E+03 0.  0.
         25    1    3    3    0    0  0.56292330932E+02 -0.13016660285E+02 -0.24277647859E+01  0.13781023949E+03  0.12509000000E+03 0.  0.
<mgrwt>
<rscale>  2 0.46272719E+03</rscale>
<asrwt>0</asrwt>
<pdfrwt beam="1">  1       21 0.20017464E-01 0.46272719E+03</pdfrwt>
<pdfrwt beam="2">  1       21 0.57831328E-01 0.46272719E+03</pdfrwt>
<totfact> 0.59518794E+04</totfact>
</mgrwt>
</event>
<event>
 7    0  0.4752811E-002  0.4567657E+03  0.7546771E-02  0.1025723E+00
         21   -1    0    0  502  501  0.00000000000E+00  0.00000000000E+00  0.73594263478E+02  0.73594263478E+02  0.00000000000E+00 0.  1.
         21   -1    0    0  501  502 -0.00000000000E+00 -0.00000000000E+00 -0.70873364579E+03  0.70873364579E+03  0.00000000000E+00 0.  1.
      99926    2    1    2    0    0  0.00000000000E+00  0.00000000000E+00 -0.63513938231E+03  0.78232790927E+03  0.45676571966E+03 0.  0.
      99925    2    3    3    0    0  0.75991122083E+02  0.15154272707E+02 -0.54412210863E+03  0.60930780979E+03  0.26302630163E+03 0.  0.
         25    1    3    3    0    0 -0.75991122083E+02 -0.15154272707E+02 -0.91017273679E+02  0.17302009948E+03  0.12509000000E+03 0.  0.
         25    1    4    4    0    0  0.58915234976E+02 -0.50937418623E+01 -0.35506651678E+03  0.38107307771E+03  0.12509000000E+03 0.  0.
         25    1    4    4    0    0  0.17075887106E+02  0.20248014570E+02 -0.18905559185E+03  0.22823473207E+03  0.12509000000E+03 0.  0.
<mgrwt>
<rscale>  2 0.45676572E+03</rscale>
<asrwt>0</asrwt>
<pdfrwt beam="1">  1       21 0.10822686E-01 0.45676572E+03</pdfrwt>
<pdfrwt beam="2">  1       21 0.10422554E+00 0.45676572E+03</pdfrwt>
<totfact> 0.47963313E+04</totfact>
</mgrwt>
</event>
<event>
 7    0  0.4752811E-002  0.4509806E+03  0.7546771E-02  0.1027430E+00
         21   -1    0    0  502  501  0.00000000000E+00  0.00000000000E+00  0.10438525166E+03  0.10438525166E+03  0.00000000000E+00 0. -1.
         21   -1    0    0  501  502 -0.00000000000E+00 -0.00000000000E+00 -0.48709820556E+03  0.48709820556E+03  0.00000000000E+00 0. -1.
      99926    2    1    2    0    0  0.00000000000E+00  0.00000000000E+00 -0.38271295390E+03  0.59148345723E+03  0.45098057063E+03 0.  0.
      99925    2    3    3    0    0  0.93471470209E+02  0.17043111848E+02 -0.17077333597E+03  0.32767804949E+03  0.26302469168E+03 0.  0.
         25    1    4    4    0    0  0.38516131162E+02  0.74602485055E+01 -0.36989131938E+02  0.13621619452E+03  0.12509000000E+03 0.  0.
         25    1    4    4    0    0  0.54955339046E+02  0.95828633429E+01 -0.13378420403E+03  0.19146185497E+03  0.12509000000E+03 0.  0.
         25    1    3    3    0    0 -0.93471470209E+02 -0.17043111848E+02 -0.21193961793E+03  0.26380540774E+03  0.12509000000E+03 0.  0.
<mgrwt>
<rscale>  2 0.45098057E+03</rscale>
<asrwt>0</asrwt>
<pdfrwt beam="1">  1       21 0.15350772E-01 0.45098057E+03</pdfrwt>
<pdfrwt beam="2">  1       21 0.71632090E-01 0.45098057E+03</pdfrwt>
<totfact> 0.61124207E+04</totfact>
</mgrwt>
</event>
<event>
 7    0  0.4752811E-002  0.4531212E+03  0.7546771E-02  0.1026795E+00
         21   -1    0    0  502  501  0.00000000000E+00  0.00000000000E+00  0.17140200183E+04  0.17140200183E+04  0.00000000000E+00 0. -1.
         21   -1    0    0  501  502 -0.00000000000E+00 -0.00000000000E+00 -0.29946974794E+02  0.29946974794E+02  0.00000000000E+00 0. -1.
      99926    2    1    2    0    0  0.35527136788E-14  0.00000000000E+00  0.16840730435E+04  0.17439669931E+04  0.45312123890E+03 0.  0.
      99925    2    3    3    0    0  0.28787603058E+02 -0.63500980848E+02  0.72683288045E+03  0.77607374561E+03  0.26295117772E+03 0.  0.
         25    1    3    3    0    0 -0.28787603058E+02  0.63500980848E+02  0.95724016307E+03  0.96789324750E+03  0.12509000000E+03 0.  0.
         25    1    4    4    0    0 -0.17065006474E+02 -0.14953699217E+02  0.40244846331E+03  0.42205106479E+03  0.12509000000E+03 0.  0.
         25    1    4    4    0    0  0.45852609532E+02 -0.48547281631E+02  0.32438441714E+03  0.35402268082E+03  0.12509000000E+03 0.  0.
<mgrwt>
<rscale>  2 0.45312124E+03</rscale>
<asrwt>0</asrwt>
<pdfrwt beam="1">  1       21 0.25206170E+00 0.45312124E+03</pdfrwt>
<pdfrwt beam="2">  1       21 0.44039680E-02 0.45312124E+03</pdfrwt>
<totfact> 0.18631688E+04</totfact>
</mgrwt>
</event>
<event>
 7    0  0.4752811E-002  0.4522758E+03  0.7546771E-02  0.1027046E+00
         21   -1    0    0  502  501  0.00000000000E+00  0.00000000000E+00  0.16049020019E+03  0.16049020019E+03  0.00000000000E+00 0.  1.
         21   -1    0    0  501  502 -0.00000000000E+00 -0.00000000000E+00 -0.31863840138E+03  0.31863840138E+03  0.00000000000E+00 0.  1.
      99926    2    1    2    0    0 -0.35527136788E-14  0.00000000000E+00 -0.15814820119E+03  0.47912860156E+03  0.45227576023E+03 0.  0.
      99925    2    3    3    0    0  0.27489030580E+02  0.81866542655E+02 -0.26615610957E+02  0.27811589549E+03  0.26302525158E+03 0.  0.
         25    1    4    4    0    0  0.28692080493E+02  0.54656670288E+02  0.21918691771E+02  0.14120383932E+03  0.12509000000E+03 0.  0.
         25    1    4    4    0    0 -0.12030499130E+01  0.27209872367E+02 -0.48534302728E+02  0.13691205617E+03  0.12509000000E+03 0.  0.
         25    1    3    3    0    0 -0.27489030580E+02 -0.81866542655E+02 -0.13153259023E+03  0.20101270607E+03  0.12509000000E+03 0.  0.
<mgrwt>
<rscale>  2 0.45227576E+03</rscale>
<asrwt>0</asrwt>
<pdfrwt beam="1">  1       21 0.23601500E-01 0.45227576E+03</pdfrwt>
<pdfrwt beam="2">  1       21 0.46858588E-01 0.45227576E+03</pdfrwt>
<totfact> 0.68227029E+04</totfact>
</mgrwt>
</event>
<event>
 7    0  0.4752811E-002  0.4554801E+03  0.7546771E-02  0.1026100E+00
         21   -1    0    0  502  501  0.00000000000E+00  0.00000000000E+00  0.38417487745E+03  0.38417487745E+03  0.00000000000E+00 0.  1.
         21   -1    0    0  501  502 -0.00000000000E+00 -0.00000000000E+00 -0.13500502169E+03  0.13500502169E+03  0.00000000000E+00 0.  1.
      99926    2    1    2    0    0  0.14210854715E-13  0.00000000000E+00  0.24916985576E+03  0.51917989915E+03  0.45548013201E+03 0.  0.
      99925    2    3    3    0    0  0.10909650451E+03  0.26717305891E+02  0.13664258575E+03  0.31687874659E+03  0.26291649258E+03 0.  0.
         25    1    3    3    0    0 -0.10909650451E+03 -0.26717305891E+02  0.11252727001E+03  0.20230115256E+03  0.12509000000E+03 0.  0.
         25    1    4    4    0    0  0.75624239148E+02 -0.88912106025E+01  0.10111831664E+03  0.17796207807E+03  0.12509000000E+03 0.  0.
         25    1    4    4    0    0  0.33472265364E+02  0.35608516493E+02  0.35524269116E+02  0.13891666852E+03  0.12509000000E+03 0.  0.
<mgrwt>
<rscale>  2 0.45548013E+03</rscale>
<asrwt>0</asrwt>
<pdfrwt beam="1">  1       21 0.56496305E-01 0.45548013E+03</pdfrwt>
<pdfrwt beam="2">  1       21 0.19853680E-01 0.45548013E+03</pdfrwt>
<totfact> 0.63700175E+04</totfact>
</mgrwt>
</event>
<event>
 7    0  0.4752811E-002  0.4446922E+03  0.7546771E-02  0.1029317E+00
         21   -1    0    0  502  501  0.00000000000E+00  0.00000000000E+00  0.21182811744E+03  0.21182811744E+03  0.00000000000E+00 0. -1.
         21   -1    0    0  501  502 -0.00000000000E+00 -0.00000000000E+00 -0.23338633838E+03  0.23338633838E+03  0.00000000000E+00 0. -1.
      99926    2    1    2    0    0  0.00000000000E+00  0.55511151231E-16 -0.21558220946E+02  0.44521445582E+03  0.44469220229E+03 0.  0.
      99925    2    3    3    0    0 -0.32539410030E+02 -0.26186418355E+00  0.84376705584E+02  0.27809593938E+03  0.26298106638E+03 0.  0.
         25    1    4    4    0    0 -0.83841411474E+01 -0.11014316395E+01  0.83596840288E+02  0.15068990272E+03  0.12509000000E+03 0.  0.
         25    1    4    4    0    0 -0.24155268883E+02  0.83956745594E+00  0.77986529586E+00  0.12740603666E+03  0.12509000000E+03 0.  0.
         25    1    3    3    0    0  0.32539410030E+02  0.26186418355E+00 -0.10593492653E+03  0.16711851644E+03  0.12509000000E+03 0.  0.
<mgrwt>
<rscale>  2 0.44469220E+03</rscale>
<asrwt>0</asrwt>
<pdfrwt beam="1">  1       21 0.31151194E-01 0.44469220E+03</pdfrwt>
<pdfrwt beam="2">  1       21 0.34321520E-01 0.44469220E+03</pdfrwt>
<totfact> 0.75271507E+04</totfact>
</mgrwt>
</event>
<event>
 7    0  0.4752811E-002  0.4526517E+03  0.7546771E-02  0.1026934E+00
         21   -1    0    0  502  501  0.00000000000E+00  0.00000000000E+00  0.24516942562E+02  0.24516942562E+02  0.00000000000E+00 0. -1.
         21   -1    0    0  501  502 -0.00000000000E+00 -0.00000000000E+00 -0.20893057949E+04  0.20893057949E+04  0.00000000000E+00 0. -1.
      99926    2    1    2    0    0  0.88817841970E-15 -0.17763568394E-14 -0.20647888523E+04  0.21138227375E+04  0.45265169907E+03 0.  0.
      99925    2    3    3    0    0  0.36847838383E+01  0.40662741546E+01 -0.78551676202E+03  0.82843769733E+03  0.26313935991E+03 0.  0.
         25    1    3    3    0    0 -0.36847838383E+01 -0.40662741546E+01 -0.12792720903E+04  0.12853850401E+04  0.12509000000E+03 0.  0.
         25    1    4    4    0    0  0.34202032188E+02  0.26865063695E+02 -0.39538606196E+03  0.41697620645E+03  0.12509000000E+03 0.  0.
         25    1    4    4    0    0 -0.30517248350E+02 -0.22798789540E+02 -0.39013070005E+03  0.41146149088E+03  0.12509000000E+03 0.  0.
<mgrwt>
<rscale>  2 0.45265170E+03</rscale>
<asrwt>0</asrwt>
<pdfrwt beam="1">  1       21 0.36054329E-02 0.45265170E+03</pdfrwt>
<pdfrwt beam="2">  1       21 0.30725083E+00 0.45265170E+03</pdfrwt>
<totfact> 0.12159164E+04</totfact>
</mgrwt>
</event>
<event>
 7    0  0.4752811E-002  0.4549173E+03  0.7546771E-02  0.1026266E+00
         21   -1    0    0  502  501  0.00000000000E+00  0.00000000000E+00  0.71865569925E+02  0.71865569925E+02  0.00000000000E+00 0.  1.
         21   -1    0    0  501  502 -0.00000000000E+00 -0.00000000000E+00 -0.71991962947E+03  0.71991962947E+03  0.00000000000E+00 0.  1.
      99926    2    1    2    0    0  0.35527136788E-14  0.71054273576E-14 -0.64805405954E+03  0.79178519939E+03  0.45491728686E+03 0.  0.
      99925    2    3    3    0    0 -0.27276696625E+02 -0.47161358274E+02 -0.23543291112E+03  0.35719121402E+03  0.26303744190E+03 0.  0.
         25    1    3    3    0    0  0.27276696625E+02  0.47161358274E+02 -0.41262114842E+03  0.43459398537E+03  0.12509000000E+03 0.  0.
         25    1    4    4    0    0  0.62829981867E+01 -0.23895466319E+02 -0.16312834950E+03  0.20704790722E+03  0.12509000000E+03 0.  0.
         25    1    4    4    0    0 -0.33559694812E+02 -0.23265891955E+02 -0.72304561621E+02  0.15014330680E+03  0.12509000000E+03 0.  0.
<mgrwt>
<rscale>  2 0.45491729E+03</rscale>
<asrwt>0</asrwt>
<pdfrwt beam="1">  1       21 0.10568466E-01 0.45491729E+03</pdfrwt>
<pdfrwt beam="2">  1       21 0.10587054E+00 0.45491729E+03</pdfrwt>
<totfact> 0.48196009E+04</totfact>
</mgrwt>
</event>
<event>
 7    0  0.4752811E-002  0.4432607E+03  0.7546771E-02  0.1029751E+00
         21   -1    0    0  502  501  0.00000000000E+00  0.00000000000E+00  0.10119735318E+03  0.10119735318E+03  0.00000000000E+00 0. -1.
         21   -1    0    0  501  502 -0.00000000000E+00 -0.00000000000E+00 -0.48538839911E+03  0.48538839911E+03  0.00000000000E+00 0. -1.
      99926    2    1    2    0    0  0.00000000000E+00  0.00000000000E+00 -0.38419104593E+03  0.58658575229E+03  0.44326074157E+03 0.  0.
      99925    2    3    3    0    0  0.25989710794E+02  0.66332563782E+02 -0.34054466312E+03  0.43615972756E+03  0.26303833613E+03 0.  0.
         25    1    4    4    0    0  0.30307444333E+02  0.19408385312E+02 -0.11355398353E+03  0.17273459954E+03  0.12509000000E+03 0.  0.
         25    1    3    3    0    0 -0.25989710794E+02 -0.66332563782E+02 -0.43646382802E+02  0.15042602473E+03  0.12509000000E+03 0.  0.
         25    1    4    4    0    0 -0.43177335384E+01  0.46924178469E+02 -0.22699067959E+03  0.26342512802E+03  0.12509000000E+03 0.  0.
<mgrwt>
<rscale>  2 0.44326074E+03</rscale>
<asrwt>0</asrwt>
<pdfrwt beam="1">  1       21 0.14881963E-01 0.44326074E+03</pdfrwt>
<pdfrwt beam="2">  1       21 0.71380649E-01 0.44326074E+03</pdfrwt>
<totfact> 0.65369116E+04</totfact>
</mgrwt>
</event>
<event>
 7    0  0.4752811E-002  0.4509821E+03  0.7546771E-02  0.1027430E+00
         21   -1    0    0  502  501  0.00000000000E+00  0.00000000000E+00  0.65848220527E+02  0.65848220527E+02  0.00000000000E+00 0.  1.
         21   -1    0    0  501  502 -0.00000000000E+00 -0.00000000000E+00 -0.77217295518E+03  0.77217295518E+03  0.00000000000E+00 0.  1.
      99926    2    1    2    0    0  0.00000000000E+00  0.00000000000E+00 -0.70632473465E+03  0.83802117571E+03  0.45098210624E+03 0.  0.
      99925    2    3    3    0    0  0.16099418898E+02  0.10801981574E+03 -0.43239112044E+03  0.51768603094E+03  0.26288642739E+03 0.  0.
         25    1    4    4    0    0 -0.25504688163E+01  0.56034018571E+02 -0.14570605464E+03  0.20006018741E+03  0.12509000000E+03 0.  0.
         25    1    4    4    0    0  0.18649887714E+02  0.51985797173E+02 -0.28668506580E+03  0.31762584353E+03  0.12509000000E+03 0.  0.
         25    1    3    3    0    0 -0.16099418898E+02 -0.10801981574E+03 -0.27393361421E+03  0.32033514477E+03  0.12509000000E+03 0.  0.
<mgrwt>
<rscale>  2 0.45098211E+03</rscale>
<asrwt>0</asrwt>
<pdfrwt beam="1">  1       21 0.96835621E-02 0.45098211E+03</pdfrwt>
<pdfrwt beam="2">  1       21 0.11355484E+00 0.45098211E+03</pdfrwt>
<totfact> 0.47458484E+04</totfact>
</mgrwt>
</event>
<event>
 7    0  0.4752811E-002  0.4558354E+03  0.7546771E-02  0.1025996E+00
         21   -1    0    0  502  501  0.00000000000E+00  0.00000000000E+00  0.20470939811E+04  0.20470939811E+04  0.00000000000E+00 0.  1.
         21   -1    0    0  501  502 -0.00000000000E+00 -0.00000000000E+00 -0.25375720277E+02  0.25375720277E+02  0.00000000000E+00 0.  1.
      99926    2    1    2    0    0  0.00000000000E+00  0.35527136788E-14  0.20217182609E+04  0.20724697014E+04  0.45583542752E+03 0.  0.
      99925    2    3    3    0    0 -0.11207785934E+03 -0.13519717454E+02  0.13462452732E+04  0.13762976721E+04  0.26282069392E+03 0.  0.
         25    1    4    4    0    0 -0.45624833291E+02  0.14193217409E+02  0.80879437043E+03  0.81980419282E+03  0.12509000000E+03 0.  0.
         25    1    4    4    0    0 -0.66453026047E+02 -0.27712934862E+02  0.53745090281E+03  0.55649347927E+03  0.12509000000E+03 0.  0.
         25    1    3    3    0    0  0.11207785934E+03  0.13519717454E+02  0.67547298762E+03  0.69617202933E+03  0.12509000000E+03 0.  0.
<mgrwt>
<rscale>  2 0.45583543E+03</rscale>
<asrwt>0</asrwt>
<pdfrwt beam="1">  1       21 0.30104312E+00 0.45583543E+03</pdfrwt>
<pdfrwt beam="2">  1       21 0.37317250E-02 0.45583543E+03</pdfrwt>
<totfact> 0.12481418E+04</totfact>
</mgrwt>
</event>
<event>
 7    0  0.4752811E-002  0.4555341E+03  0.7546771E-02  0.1026084E+00
         21   -1    0    0  502  501  0.00000000000E+00  0.00000000000E+00  0.14918041916E+04  0.14918041916E+04  0.00000000000E+00 0. -1.
         21   -1    0    0  501  502 -0.00000000000E+00 -0.00000000000E+00 -0.34775223647E+02  0.34775223647E+02  0.00000000000E+00 0. -1.
      99926    2    1    2    0    0  0.00000000000E+00  0.00000000000E+00  0.14570289680E+04  0.15265794153E+04  0.45553407952E+03 0.  0.
      99925    2    3    3    0    0  0.71174954335E+02  0.88072640296E+02  0.89154130521E+03  0.93645530211E+03  0.26321088477E+03 0.  0.
         25    1    4    4    0    0  0.12350198324E+02  0.57295033162E+02  0.33925098186E+03  0.36629767269E+03  0.12509000000E+03 0.  0.
         25    1    3    3    0    0 -0.71174954335E+02 -0.88072640296E+02  0.56548766275E+03  0.59012411314E+03  0.12509000000E+03 0.  0.
         25    1    4    4    0    0  0.58824756011E+02  0.30777607134E+02  0.55229032335E+03  0.57015762942E+03  0.12509000000E+03 0.  0.
<mgrwt>
<rscale>  2 0.45553408E+03</rscale>
<asrwt>0</asrwt>
<pdfrwt beam="1">  1       21 0.21938293E+00 0.45553408E+03</pdfrwt>
<pdfrwt beam="2">  1       21 0.51140045E-02 0.45553408E+03</pdfrwt>
<totfact> 0.23039446E+04</totfact>
</mgrwt>
</event>
<event>
 7    0  0.4752811E-002  0.4608895E+03  0.7546771E-02  0.1024524E+00
         21   -1    0    0  502  501  0.00000000000E+00  0.00000000000E+00  0.30100314891E+02  0.30100314891E+02  0.00000000000E+00 0.  1.
         21   -1    0    0  501  502 -0.00000000000E+00 -0.00000000000E+00 -0.17642599445E+04  0.17642599445E+04  0.00000000000E+00 0.  1.
      99926    2    1    2    0    0  0.00000000000E+00 -0.14210854715E-13 -0.17341596296E+04  0.17943602594E+04  0.46088948732E+03 0.  0.
      99925    2    3    3    0    0  0.39194225334E+02  0.98026630870E+02 -0.87464171900E+03  0.91939514327E+03  0.26295224891E+03 0.  0.
         25    1    3    3    0    0 -0.39194225334E+02 -0.98026630870E+02 -0.85951791065E+03  0.87496511616E+03  0.12509000000E+03 0.  0.
         25    1    4    4    0    0  0.52373287290E+02  0.34255271386E+02 -0.49597248748E+03  0.51531796134E+03  0.12509000000E+03 0.  0.
         25    1    4    4    0    0 -0.13179061956E+02  0.63771359484E+02 -0.37866923151E+03  0.40407718193E+03  0.12509000000E+03 0.  0.
<mgrwt>
<rscale>  2 0.46088949E+03</rscale>
<asrwt>0</asrwt>
<pdfrwt beam="1">  1       21 0.44265149E-02 0.46088949E+03</pdfrwt>
<pdfrwt beam="2">  1       21 0.25945011E+00 0.46088949E+03</pdfrwt>
<totfact> 0.16596154E+04</totfact>
</mgrwt>
</event>
<event>
 7    0  0.4752811E-002  0.4577000E+03  0.7546771E-02  0.1025450E+00
         21   -1    0    0  502  501  0.00000000000E+00  0.00000000000E+00  0.15438693581E+03  0.15438693581E+03  0.00000000000E+00 0.  1.
         21   -1    0    0  501  502 -0.00000000000E+00 -0.00000000000E+00 -0.33922772450E+03  0.33922772450E+03  0.00000000000E+00 0.  1.
      99926    2    1    2    0    0  0.00000000000E+00  0.14210854715E-13 -0.18484078869E+03  0.49361466031E+03  0.45770002809E+03 0.  0.
      99925    2    3    3    0    0 -0.75895523560E+02 -0.83557939390E+02 -0.14458434594E+03  0.32038028435E+03  0.26267248386E+03 0.  0.
         25    1    4    4    0    0 -0.33360672284E+02 -0.31970496580E+02 -0.26809509928E+02  0.13601950239E+03  0.12509000000E+03 0.  0.
         25    1    4    4    0    0 -0.42534851277E+02 -0.51587442810E+02 -0.11777483601E+03  0.18436078196E+03  0.12509000000E+03 0.  0.
         25    1    3    3    0    0  0.75895523560E+02  0.83557939390E+02 -0.40256442752E+02  0.17323437596E+03  0.12509000000E+03 0.  0.
<mgrwt>
<rscale>  2 0.45770003E+03</rscale>
<asrwt>0</asrwt>
<pdfrwt beam="1">  1       21 0.22703961E-01 0.45770003E+03</pdfrwt>
<pdfrwt beam="2">  1       21 0.49886430E-01 0.45770003E+03</pdfrwt>
<totfact> 0.64331595E+04</totfact>
</mgrwt>
</event>
<event>
 7    0  0.4752811E-002  0.4496770E+03  0.7546771E-02  0.1027818E+00
         21   -1    0    0  502  501  0.00000000000E+00  0.00000000000E+00  0.39476316685E+03  0.39476316685E+03  0.00000000000E+00 0.  1.
         21   -1    0    0  501  502 -0.00000000000E+00 -0.00000000000E+00 -0.12805738898E+03  0.12805738898E+03  0.00000000000E+00 0.  1.
      99926    2    1    2    0    0  0.00000000000E+00  0.00000000000E+00  0.26670577787E+03  0.52282055584E+03  0.44967695255E+03 0.  0.
      99925    2    3    3    0    0  0.86919077508E+02  0.54701754472E+02  0.20835295699E+03  0.35077472537E+03  0.26283977114E+03 0.  0.
         25    1    4    4    0    0  0.48550020676E+02  0.50821734766E+02  0.67761555178E+02  0.15867920372E+03  0.12509000000E+03 0.  0.
         25    1    4    4    0    0  0.38369056832E+02  0.38800197060E+01  0.14059140181E+03  0.19209552165E+03  0.12509000000E+03 0.  0.
         25    1    3    3    0    0 -0.86919077508E+02 -0.54701754472E+02  0.58352820883E+02  0.17204583047E+03  0.12509000000E+03 0.  0.
<mgrwt>
<rscale>  2 0.44967695E+03</rscale>
<asrwt>0</asrwt>
<pdfrwt beam="1">  1       21 0.58053407E-01 0.44967695E+03</pdfrwt>
<pdfrwt beam="2">  1       21 0.18831969E-01 0.44967695E+03</pdfrwt>
<totfact> 0.66455323E+04</totfact>
</mgrwt>
</event>
<event>
 7    0  0.4752811E-002  0.4548341E+03  0.7546771E-02  0.1026290E+00
         21   -1    0    0  502  501  0.00000000000E+00  0.00000000000E+00  0.45881247288E+03  0.45881247288E+03  0.00000000000E+00 0. -1.
         21   -1    0    0  501  502 -0.00000000000E+00 -0.00000000000E+00 -0.11272257014E+03  0.11272257014E+03  0.00000000000E+00 0. -1.
      99926    2    1    2    0    0 -0.17763568394E-14  0.00000000000E+00  0.34608990275E+03  0.57153504302E+03  0.45483412868E+03 0.  0.
      99925    2    3    3    0    0 -0.12966276025E+02  0.48760883840E+02  0.34511378121E+03  0.43664913189E+03  0.26270362444E+03 0.  0.
         25    1    3    3    0    0  0.12966276025E+02 -0.48760883840E+02  0.97612153900E+00  0.13488591113E+03  0.12509000000E+03 0.  0.
         25    1    4    4    0    0 -0.15502078918E+02 -0.24979647923E+01  0.12000356263E+03  0.17405435192E+03  0.12509000000E+03 0.  0.
         25    1    4    4    0    0  0.25358028923E+01  0.51258848633E+02  0.22511021858E+03  0.26259477997E+03  0.12509000000E+03 0.  0.
<mgrwt>
<rscale>  2 0.45483413E+03</rscale>
<asrwt>0</asrwt>
<pdfrwt beam="1">  1       21 0.67472422E-01 0.45483413E+03</pdfrwt>
<pdfrwt beam="2">  1       21 0.16576849E-01 0.45483413E+03</pdfrwt>
<totfact> 0.60544861E+04</totfact>
</mgrwt>
</event>
<event>
 7    0  0.4752811E-002  0.4513836E+03  0.7546771E-02  0.1027310E+00
         21   -1    0    0  502  501  0.00000000000E+00  0.00000000000E+00  0.53197035467E+02  0.53197035467E+02  0.00000000000E+00 0.  1.
         21   -1    0    0  501  502 -0.00000000000E+00 -0.00000000000E+00 -0.95751187797E+03  0.95751187797E+03  0.00000000000E+00 0.  1.
      99926    2    1    2    0    0  0.00000000000E+00 -0.14210854715E-13 -0.90431484250E+03  0.10107089134E+04  0.45138362102E+03 0.  0.
      99925    2    3    3    0    0 -0.16646843638E+02  0.95833772676E+02 -0.68469144329E+03  0.73988946257E+03  0.26300725258E+03 0.  0.
         25    1    4    4    0    0 -0.10966071795E+02  0.77461537152E+02 -0.28951382145E+03  0.32494046436E+03  0.12509000000E+03 0.  0.
         25    1    4    4    0    0 -0.56807718429E+01  0.18372235524E+02 -0.39517762184E+03  0.41494899821E+03  0.12509000000E+03 0.  0.
         25    1    3    3    0    0  0.16646843638E+02 -0.95833772676E+02 -0.21962339921E+03  0.27081945087E+03  0.12509000000E+03 0.  0.
<mgrwt>
<rscale>  2 0.45138362E+03</rscale>
<asrwt>0</asrwt>
<pdfrwt beam="1">  1       21 0.78230939E-02 0.45138362E+03</pdfrwt>
<pdfrwt beam="2">  1       21 0.14081056E+00 0.45138362E+03</pdfrwt>
<totfact> 0.39866779E+04</totfact>
</mgrwt>
</event>
<event>
 7    0  0.4752811E-002  0.4546140E+03  0.7546771E-02  0.1026355E+00
         21   -1    0    0  502  501  0.00000000000E+00  0.00000000000E+00  0.71763900832E+03  0.71763900832E+03  0.00000000000E+00 0. -1.
         21   -1    0    0  501  502 -0.00000000000E+00 -0.00000000000E+00 -0.71997853394E+02  0.71997853394E+02  0.00000000000E+00 0. -1.
      99926    2    1    2    0    0  0.14210854715E-13 -0.35527136788E-14  0.64564115492E+03  0.78963686171E+03  0.45461398180E+03 0.  0.
      99925    2    3    3    0    0 -0.10048899847E+03  0.19762207828E+02  0.32381648838E+03  0.42948799281E+03  0.26289586180E+03 0.  0.
         25    1    4    4    0    0 -0.32594762295E+02 -0.18729638451E+02  0.18872680327E+03  0.22951804342E+03  0.12509000000E+03 0.  0.
         25    1    4    4    0    0 -0.67894236175E+02  0.38491846279E+02  0.13508968511E+03  0.19996994939E+03  0.12509000000E+03 0.  0.
         25    1    3    3    0    0  0.10048899847E+03 -0.19762207828E+02  0.32182466655E+03  0.36014886890E+03  0.12509000000E+03 0.  0.
<mgrwt>
<rscale>  2 0.45461398E+03</rscale>
<asrwt>0</asrwt>
<pdfrwt beam="1">  1       21 0.10553514E+00 0.45461398E+03</pdfrwt>
<pdfrwt beam="2">  1       21 0.10587920E-01 0.45461398E+03</pdfrwt>
<totfact> 0.48416688E+04</totfact>
</mgrwt>
</event>
<event>
 7    0  0.4752811E-002  0.4633239E+03  0.7546771E-02  0.1023822E+00
         21   -1    0    0  502  501  0.00000000000E+00  0.00000000000E+00  0.65673575296E+03  0.65673575296E+03  0.00000000000E+00 0.  1.
         21   -1    0    0  501  502 -0.00000000000E+00 -0.00000000000E+00 -0.81718190301E+02  0.81718190301E+02  0.00000000000E+00 0.  1.
      99926    2    1    2    0    0  0.00000000000E+00  0.00000000000E+00  0.57501756266E+03  0.73845394326E+03  0.46332389206E+03 0.  0.
      99925    2    3    3    0    0  0.51035274320E+02 -0.71606391795E+02  0.22697873286E+03  0.35830843201E+03  0.26293252502E+03 0.  0.
         25    1    4    4    0    0 -0.46972865498E+01 -0.14354384641E+02  0.12979591196E+03  0.18089389078E+03  0.12509000000E+03 0.  0.
         25    1    4    4    0    0  0.55732560870E+02 -0.57252007154E+02  0.97182820896E+02  0.17741454123E+03  0.12509000000E+03 0.  0.
         25    1    3    3    0    0 -0.51035274320E+02  0.71606391795E+02  0.34803882980E+03  0.38014551125E+03  0.12509000000E+03 0.  0.
<mgrwt>
<rscale>  2 0.46332389E+03</rscale>
<asrwt>0</asrwt>
<pdfrwt beam="1">  1       21 0.96578784E-01 0.46332389E+03</pdfrwt>
<pdfrwt beam="2">  1       21 0.12017381E-01 0.46332389E+03</pdfrwt>
<totfact> 0.47667506E+04</totfact>
</mgrwt>
</event>
<event>
 7    0  0.4752811E-002  0.4805060E+03  0.7546771E-02  0.1018996E+00
         21   -1    0    0  502  501  0.00000000000E+00  0.00000000000E+00  0.11019459542E+03  0.11019459542E+03  0.00000000000E+00 0. -1.
         21   -1    0    0  501  502 -0.00000000000E+00 -0.00000000000E+00 -0.52381434605E+03  0.52381434605E+03  0.00000000000E+00 0. -1.
      99926    2    1    2    0    0  0.00000000000E+00  0.00000000000E+00 -0.41361975064E+03  0.63400894147E+03  0.48050602467E+03 0.  0.
      99925    2    3    3    0    0  0.11509903425E+03 -0.58347797301E+02 -0.31012818165E+03  0.42661977568E+03  0.26300701666E+03 0.  0.
         25    1    3    3    0    0 -0.11509903425E+03  0.58347797301E+02 -0.10349156898E+03  0.20738916579E+03  0.12509000000E+03 0.  0.
         25    1    4    4    0    0  0.90272042776E+02 -0.36170126874E+02 -0.20946751732E+03  0.26264323463E+03  0.12509000000E+03 0.  0.
         25    1    4    4    0    0  0.24826991470E+02 -0.22177670426E+02 -0.10066066433E+03  0.16397654105E+03  0.12509000000E+03 0.  0.
<mgrwt>
<rscale>  2 0.48050602E+03</rscale>
<asrwt>0</asrwt>
<pdfrwt beam="1">  1       21 0.16205088E-01 0.48050602E+03</pdfrwt>
<pdfrwt beam="2">  1       21 0.77031520E-01 0.48050602E+03</pdfrwt>
<totfact> 0.46530842E+04</totfact>
</mgrwt>
</event>
<event>
 7    0  0.4752811E-002  0.4566678E+03  0.7546771E-02  0.1025752E+00
         21   -1    0    0  502  501  0.00000000000E+00  0.00000000000E+00  0.10759002585E+04  0.10759002585E+04  0.00000000000E+00 0.  1.
         21   -1    0    0  501  502 -0.00000000000E+00 -0.00000000000E+00 -0.48458374511E+02  0.48458374511E+02  0.00000000000E+00 0.  1.
      99926    2    1    2    0    0 -0.71054273576E-14 -0.14210854715E-13  0.10274418840E+04  0.11243586330E+04  0.45666783404E+03 0.  0.
      99925    2    3    3    0    0  0.34773415164E+02 -0.97870783973E+02  0.76282921837E+03  0.81378617501E+03  0.26372645200E+03 0.  0.
         25    1    4    4    0    0  0.47005916675E+02 -0.75166978921E+02  0.36293689564E+03  0.39399280354E+03  0.12509000000E+03 0.  0.
         25    1    3    3    0    0 -0.34773415164E+02  0.97870783973E+02  0.26461266559E+03  0.31057245796E+03  0.12509000000E+03 0.  0.
         25    1    4    4    0    0 -0.12232501510E+02 -0.22703805052E+02  0.39989232273E+03  0.41979337148E+03  0.12509000000E+03 0.  0.
<mgrwt>
<rscale>  2 0.45666783E+03</rscale>
<asrwt>0</asrwt>
<pdfrwt beam="1">  1       21 0.15822061E+00 0.45666783E+03</pdfrwt>
<pdfrwt beam="2">  1       21 0.71262322E-02 0.45666783E+03</pdfrwt>
<totfact> 0.34203217E+04</totfact>
</mgrwt>
</event>
<event>
 7    0  0.4752811E-002  0.4717348E+03  0.7546771E-02  0.1021432E+00
         21   -1    0    0  502  501  0.00000000000E+00  0.00000000000E+00  0.49533015816E+02  0.49533015816E+02  0.00000000000E+00 0.  1.
         21   -1    0    0  501  502 -0.00000000000E+00 -0.00000000000E+00 -0.11231587111E+04  0.11231587111E+04  0.00000000000E+00 0.  1.
      99926    2    1    2    0    0  0.00000000000E+00  0.00000000000E+00 -0.10736256952E+04  0.11726917269E+04  0.47173483314E+03 0.  0.
      99925    2    3    3    0    0  0.10828386059E+03  0.63519284283E+02 -0.60218062022E+03  0.66903702294E+03  0.26311393871E+03 0.  0.
         25    1    4    4    0    0  0.32747012346E+02  0.59364657177E+02 -0.24875953176E+03  0.28657519446E+03  0.12509000000E+03 0.  0.
         25    1    3    3    0    0 -0.10828386059E+03 -0.63519284283E+02 -0.47144507502E+03  0.50365470394E+03  0.12509000000E+03 0.  0.
         25    1    4    4    0    0  0.75536848247E+02  0.41546271058E+01 -0.35342108846E+03  0.38246182847E+03  0.12509000000E+03 0.  0.
<mgrwt>
<rscale>  2 0.47173483E+03</rscale>
<asrwt>0</asrwt>
<pdfrwt beam="1">  1       21 0.72842674E-02 0.47173483E+03</pdfrwt>
<pdfrwt beam="2">  1       21 0.16517039E+00 0.47173483E+03</pdfrwt>
<totfact> 0.29055879E+04</totfact>
</mgrwt>
</event>
<event>
 7    0  0.4752811E-002  0.4495598E+03  0.7546771E-02  0.1027853E+00
         21   -1    0    0  502  501  0.00000000000E+00  0.00000000000E+00  0.12076829988E+03  0.12076829988E+03  0.00000000000E+00 0. -1.
         21   -1    0    0  501  502 -0.00000000000E+00 -0.00000000000E+00 -0.41837137925E+03  0.41837137925E+03  0.00000000000E+00 0. -1.
      99926    2    1    2    0    0 -0.35527136788E-14  0.00000000000E+00 -0.29760307937E+03  0.53913967913E+03  0.44955978553E+03 0.  0.
      99925    2    3    3    0    0 -0.30266703726E+02 -0.95789595066E+02 -0.14007883343E+03  0.31429947802E+03  0.26281240920E+03 0.  0.
         25    1    4    4    0    0  0.18575692862E+02 -0.47644936525E+02 -0.43275655648E+02  0.14189921358E+03  0.12509000000E+03 0.  0.
         25    1    4    4    0    0 -0.48842396588E+02 -0.48144658541E+02 -0.96803177780E+02  0.17240026444E+03  0.12509000000E+03 0.  0.
         25    1    3    3    0    0  0.30266703726E+02  0.95789595066E+02 -0.15752424595E+03  0.22484020112E+03  0.12509000000E+03 0.  0.
<mgrwt>
<rscale>  2 0.44955979E+03</rscale>
<asrwt>0</asrwt>
<pdfrwt beam="1">  1       21 0.17760044E-01 0.44955979E+03</pdfrwt>
<pdfrwt beam="2">  1       21 0.61525202E-01 0.44955979E+03</pdfrwt>
<totfact> 0.65358751E+04</totfact>
</mgrwt>
</event>
<event>
 7    0  0.4752811E-002  0.4274784E+03  0.7546771E-02  0.1034659E+00
         21   -1    0    0  502  501  0.00000000000E+00  0.00000000000E+00  0.64727618702E+02  0.64727618702E+02  0.00000000000E+00 0. -1.
         21   -1    0    0  501  502 -0.00000000000E+00 -0.00000000000E+00 -0.70579527172E+03  0.70579527172E+03  0.00000000000E+00 0. -1.
      99926    2    1    2    0    0 -0.14210854715E-13  0.71054273576E-14 -0.64106765302E+03  0.77052289043E+03  0.42747840755E+03 0.  0.
      99925    2    3    3    0    0 -0.70300335331E+02 -0.41215766365E+02 -0.37138848497E+03  0.46227747144E+03  0.26292618220E+03 0.  0.
         25    1    3    3    0    0  0.70300335331E+02  0.41215766365E+02 -0.26967916805E+03  0.30824541899E+03  0.12509000000E+03 0.  0.
         25    1    4    4    0    0 -0.65229391096E+02  0.64873536562E+01 -0.19569687590E+03  0.24133324379E+03  0.12509000000E+03 0.  0.
         25    1    4    4    0    0 -0.50709442345E+01 -0.47703120021E+02 -0.17569160907E+03  0.22094422765E+03  0.12509000000E+03 0.  0.
<mgrwt>
<rscale>  2 0.42747841E+03</rscale>
<asrwt>0</asrwt>
<pdfrwt beam="1">  1       21 0.95187671E-02 0.42747841E+03</pdfrwt>
<pdfrwt beam="2">  1       21 0.10379343E+00 0.42747841E+03</pdfrwt>
<totfact> 0.61466499E+04</totfact>
</mgrwt>
</event>
<event>
 7    0  0.4752811E-002  0.4560762E+03  0.7546771E-02  0.1025925E+00
         21   -1    0    0  502  501  0.00000000000E+00  0.00000000000E+00  0.71038424184E+03  0.71038424184E+03  0.00000000000E+00 0.  1.
         21   -1    0    0  501  502 -0.00000000000E+00 -0.00000000000E+00 -0.73201742589E+02  0.73201742589E+02  0.00000000000E+00 0.  1.
      99926    2    1    2    0    0 -0.14210854715E-13  0.17763568394E-14  0.63718249925E+03  0.78358598443E+03  0.45607615334E+03 0.  0.
      99925    2    3    3    0    0  0.11106402027E+03 -0.76860414223E+01  0.35793190178E+03  0.45797471908E+03  0.26311842425E+03 0.  0.
         25    1    3    3    0    0 -0.11106402027E+03  0.76860414223E+01  0.27925059747E+03  0.32561126534E+03  0.12509000000E+03 0.  0.
         25    1    4    4    0    0  0.23867200604E+02  0.11806484934E+02  0.20144901390E+03  0.23861737081E+03  0.12509000000E+03 0.  0.
         25    1    4    4    0    0  0.87196819664E+02 -0.19492526356E+02  0.15648288788E+03  0.21935734828E+03  0.12509000000E+03 0.  0.
<mgrwt>
<rscale>  2 0.45607615E+03</rscale>
<asrwt>0</asrwt>
<pdfrwt beam="1">  1       21 0.10446827E+00 0.45607615E+03</pdfrwt>
<pdfrwt beam="2">  1       21 0.10764963E-01 0.45607615E+03</pdfrwt>
<totfact> 0.48160934E+04</totfact>
</mgrwt>
</event>
<event>
 7    0  0.4752811E-002  0.4570457E+03  0.7546771E-02  0.1025642E+00
         21   -1    0    0  502  501  0.00000000000E+00  0.00000000000E+00  0.21160311930E+03  0.21160311930E+03  0.00000000000E+00 0.  1.
         21   -1    0    0  501  502 -0.00000000000E+00 -0.00000000000E+00 -0.24679545854E+03  0.24679545854E+03  0.00000000000E+00 0.  1.
      99926    2    1    2    0    0  0.00000000000E+00  0.00000000000E+00 -0.35192339240E+02  0.45839857783E+03  0.45704568198E+03 0.  0.
      99925    2    3    3    0    0 -0.96517876504E+02 -0.58160094167E+02  0.13201603124E+01  0.28612272995E+03  0.26299463252E+03 0.  0.
         25    1    4    4    0    0 -0.46677805224E+02 -0.14162894353E+02  0.38482215792E+02  0.13967030504E+03  0.12509000000E+03 0.  0.
         25    1    4    4    0    0 -0.49840071280E+02 -0.43997199813E+02 -0.37162055480E+02  0.14645242492E+03  0.12509000000E+03 0.  0.
         25    1    3    3    0    0  0.96517876504E+02  0.58160094167E+02 -0.36512499553E+02  0.17227584788E+03  0.12509000000E+03 0.  0.
<mgrwt>
<rscale>  2 0.45704568E+03</rscale>
<asrwt>0</asrwt>
<pdfrwt beam="1">  1       21 0.31118106E-01 0.45704568E+03</pdfrwt>
<pdfrwt beam="2">  1       21 0.36293450E-01 0.45704568E+03</pdfrwt>
<totfact> 0.67194111E+04</totfact>
</mgrwt>
</event>
<event>
 7    0  0.4752811E-002  0.4546709E+03  0.7546771E-02  0.1026338E+00
         21   -1    0    0  502  501  0.00000000000E+00  0.00000000000E+00  0.74092015970E+02  0.74092015970E+02  0.00000000000E+00 0. -1.
         21   -1    0    0  501  502 -0.00000000000E+00 -0.00000000000E+00 -0.69752993278E+03  0.69752993278E+03  0.00000000000E+00 0. -1.
      99926    2    1    2    0    0 -0.71054273576E-14 -0.14210854715E-13 -0.62343791681E+03  0.77162194875E+03  0.45467086522E+03 0.  0.
      99925    2    3    3    0    0 -0.54838763665E+02  0.98542223457E+02 -0.40116181998E+03  0.49274557627E+03  0.26296299611E+03 0.  0.
         25    1    4    4    0    0 -0.21276581563E+02  0.61799574908E+01 -0.17576612220E+03  0.21686890651E+03  0.12509000000E+03 0.  0.
         25    1    3    3    0    0  0.54838763665E+02 -0.98542223457E+02 -0.22227609683E+03  0.27887637248E+03  0.12509000000E+03 0.  0.
         25    1    4    4    0    0 -0.33562182102E+02  0.92362265966E+02 -0.22539569778E+03  0.27587666976E+03  0.12509000000E+03 0.  0.
<mgrwt>
<rscale>  2 0.45467087E+03</rscale>
<asrwt>0</asrwt>
<pdfrwt beam="1">  1       21 0.10895885E-01 0.45467087E+03</pdfrwt>
<pdfrwt beam="2">  1       21 0.10257793E+00 0.45467087E+03</pdfrwt>
<totfact> 0.49295268E+04</totfact>
</mgrwt>
</event>
<event>
 7    0  0.4752811E-002  0.4630999E+03  0.7546771E-02  0.1023886E+00
         21   -1    0    0  502  501  0.00000000000E+00  0.00000000000E+00  0.13102180541E+03  0.13102180541E+03  0.00000000000E+00 0. -1.
         21   -1    0    0  501  502 -0.00000000000E+00 -0.00000000000E+00 -0.40920953836E+03  0.40920953836E+03  0.00000000000E+00 0. -1.
      99926    2    1    2    0    0  0.35527136788E-14  0.71054273576E-14 -0.27818773296E+03  0.54023134377E+03  0.46309987046E+03 0.  0.
      99925    2    3    3    0    0 -0.26185037806E+02 -0.50180141775E+02 -0.29806579805E+03  0.40150013457E+03  0.26297421026E+03 0.  0.
         25    1    3    3    0    0  0.26185037806E+02  0.50180141775E+02  0.19878065092E+02  0.13873120920E+03  0.12509000000E+03 0.  0.
         25    1    4    4    0    0 -0.10818854264E+02  0.16124615623E+02 -0.13980859643E+03  0.18860276396E+03  0.12509000000E+03 0.  0.
         25    1    4    4    0    0 -0.15366183542E+02 -0.66304757398E+02 -0.15825720161E+03  0.21289737061E+03  0.12509000000E+03 0.  0.
<mgrwt>
<rscale>  2 0.46309987E+03</rscale>
<asrwt>0</asrwt>
<pdfrwt beam="1">  1       21 0.19267913E-01 0.46309987E+03</pdfrwt>
<pdfrwt beam="2">  1       21 0.60177873E-01 0.46309987E+03</pdfrwt>
<totfact> 0.58662169E+04</totfact>
</mgrwt>
</event>
<event>
 7    0  0.4752811E-002  0.4544051E+03  0.7546771E-02  0.1026416E+00
         21   -1    0    0  502  501  0.00000000000E+00  0.00000000000E+00  0.13677417617E+03  0.13677417617E+03  0.00000000000E+00 0. -1.
         21   -1    0    0  501  502 -0.00000000000E+00 -0.00000000000E+00 -0.37741769797E+03  0.37741769797E+03  0.00000000000E+00 0. -1.
      99926    2    1    2    0    0  0.71054273576E-14  0.00000000000E+00 -0.24064352180E+03  0.51419187413E+03  0.45440508232E+03 0.  0.
      99925    2    3    3    0    0  0.50579919630E+02 -0.95447792748E+02 -0.11543758531E+03  0.30684519815E+03  0.26298199580E+03 0.  0.
         25    1    3    3    0    0 -0.50579919630E+02  0.95447792748E+02 -0.12520593649E+03  0.20734667598E+03  0.12509000000E+03 0.  0.
         25    1    4    4    0    0  0.32084892976E+02 -0.83978192610E+02 -0.39981815540E+02  0.15914719874E+03  0.12509000000E+03 0.  0.
         25    1    4    4    0    0  0.18495026654E+02 -0.11469600138E+02 -0.75455769771E+02  0.14769799941E+03  0.12509000000E+03 0.  0.
<mgrwt>
<rscale>  2 0.45440508E+03</rscale>
<asrwt>0</asrwt>
<pdfrwt beam="1">  1       21 0.20113849E-01 0.45440508E+03</pdfrwt>
<pdfrwt beam="2">  1       21 0.55502603E-01 0.45440508E+03</pdfrwt>
<totfact> 0.64589079E+04</totfact>
</mgrwt>
</event>
<event>
 6    0  0.4752811E-002  0.4528769E+03  0.7546771E-02  0.1026868E+00
         21   -1    0    0  502  501  0.00000000000E+00  0.00000000000E+00  0.11439940432E+03  0.11439940432E+03  0.00000000000E+00 0. -1.
         21   -1    0    0  501  502 -0.00000000000E+00 -0.00000000000E+00 -0.44820498135E+03  0.44820498135E+03  0.00000000000E+00 0. -1.
      99926    2    1    2    0    0  0.00000000000E+00  0.00000000000E+00 -0.33380557703E+03  0.56260438568E+03  0.45287694965E+03 0.  0.
         25    1    3    3    0    0  0.67022781220E+02 -0.88044397626E+01 -0.60345574392E+02  0.15446251264E+03  0.12509000000E+03 0.  0.
         25    1    3    3    0    0  0.11450009273E+02 -0.49895743431E+02 -0.77332913337E+02  0.15571954120E+03  0.12509000000E+03 0.  0.
         25    1    3    3    0    0 -0.78472790492E+02  0.58700183194E+02 -0.19612708930E+03  0.25242233184E+03  0.12509000000E+03 0.  0.
<mgrwt>
<rscale>  2 0.45287695E+03</rscale>
<asrwt>0</asrwt>
<pdfrwt beam="1">  1       21 0.16823442E-01 0.45287695E+03</pdfrwt>
<pdfrwt beam="2">  1       21 0.65912496E-01 0.45287695E+03</pdfrwt>
<totfact> 0.62077050E+04</totfact>
</mgrwt>
</event>
<event>
 7    0  0.4752811E-002  0.4562560E+03  0.7546771E-02  0.1025873E+00
         21   -1    0    0  502  501  0.00000000000E+00  0.00000000000E+00  0.80097359054E+02  0.80097359054E+02  0.00000000000E+00 0.  1.
         21   -1    0    0  501  502 -0.00000000000E+00 -0.00000000000E+00 -0.64973911229E+03  0.64973911229E+03  0.00000000000E+00 0.  1.
      99926    2    1    2    0    0  0.00000000000E+00  0.88817841970E-15 -0.56964175323E+03  0.72983647134E+03  0.45625601133E+03 0.  0.
      99925    2    3    3    0    0  0.62322130878E+02 -0.58384260206E+01 -0.51108453557E+03  0.57819679627E+03  0.26303231266E+03 0.  0.
         25    1    4    4    0    0  0.21137177141E+02 -0.27105170846E+02 -0.31865285987E+03  0.34404741497E+03  0.12509000000E+03 0.  0.
         25    1    3    3    0    0 -0.62322130878E+02  0.58384260206E+01 -0.58557217663E+02  0.15163967507E+03  0.12509000000E+03 0.  0.
         25    1    4    4    0    0  0.41184953737E+02  0.21266744825E+02 -0.19243167569E+03  0.23414938129E+03  0.12509000000E+03 0.  0.
<mgrwt>
<rscale>  2 0.45625601E+03</rscale>
<asrwt>0</asrwt>
<pdfrwt beam="1">  1       21 0.11779024E-01 0.45625601E+03</pdfrwt>
<pdfrwt beam="2">  1       21 0.95549867E-01 0.45625601E+03</pdfrwt>
<totfact> 0.50809134E+04</totfact>
</mgrwt>
</event>
<event>
 7    0  0.4752811E-002  0.4561048E+03  0.7546771E-02  0.1025917E+00
         21   -1    0    0  502  501  0.00000000000E+00  0.00000000000E+00  0.87858665535E+03  0.87858665535E+03  0.00000000000E+00 0.  1.
         21   -1    0    0  501  502 -0.00000000000E+00 -0.00000000000E+00 -0.59194959348E+02  0.59194959348E+02  0.00000000000E+00 0.  1.
      99926    2    1    2    0    0  0.35527136788E-14 -0.14210854715E-13  0.81939169600E+03  0.93778161470E+03  0.45610481842E+03 0.  0.
      99925    2    3    3    0    0  0.20278034614E+02 -0.10461733273E+03  0.43063970497E+03  0.51572521607E+03  0.26299421665E+03 0.  0.
         25    1    4    4    0    0 -0.72644367446E+01 -0.32750984467E+02  0.14415948012E+03  0.19379077077E+03  0.12509000000E+03 0.  0.
         25    1    4    4    0    0  0.27542471358E+02 -0.71866348264E+02  0.28648022485E+03  0.32193444530E+03  0.12509000000E+03 0.  0.
         25    1    3    3    0    0 -0.20278034614E+02  0.10461733273E+03  0.38875199103E+03  0.42205639863E+03  0.12509000000E+03 0.  0.
<mgrwt>
<rscale>  2 0.45610482E+03</rscale>
<asrwt>0</asrwt>
<pdfrwt beam="1">  1       21 0.12920391E+00 0.45610482E+03</pdfrwt>
<pdfrwt beam="2">  1       21 0.87051416E-02 0.45610482E+03</pdfrwt>
<totfact> 0.41281709E+04</totfact>
</mgrwt>
</event>
<event>
 7    0  0.4752811E-002  0.4219585E+03  0.7546771E-02  0.1036431E+00
         21   -1    0    0  502  501  0.00000000000E+00  0.00000000000E+00  0.11289394401E+03  0.11289394401E+03  0.00000000000E+00 0. -1.
         21   -1    0    0  501  502 -0.00000000000E+00 -0.00000000000E+00 -0.39428368407E+03  0.39428368407E+03  0.00000000000E+00 0. -1.
      99926    2    1    2    0    0 -0.35527136788E-14  0.00000000000E+00 -0.28138974007E+03  0.50717762808E+03  0.42195848209E+03 0.  0.
      99925    2    3    3    0    0  0.16314820417E+02 -0.73269233975E+02 -0.15832771127E+03  0.31632080991E+03  0.26335648200E+03 0.  0.
         25    1    4    4    0    0  0.18599348494E+02 -0.33951618059E+02 -0.12495664758E+03  0.18099812156E+03  0.12509000000E+03 0.  0.
         25    1    3    3    0    0 -0.16314820417E+02  0.73269233975E+02 -0.12306202880E+03  0.19085681817E+03  0.12509000000E+03 0.  0.
         25    1    4    4    0    0 -0.22845280768E+01 -0.39317615915E+02 -0.33371063691E+02  0.13532268835E+03  0.12509000000E+03 0.  0.
<mgrwt>
<rscale>  2 0.42195848E+03</rscale>
<asrwt>0</asrwt>
<pdfrwt beam="1">  1       21 0.16602051E-01 0.42195848E+03</pdfrwt>
<pdfrwt beam="2">  1       21 0.57982895E-01 0.42195848E+03</pdfrwt>
<totfact> 0.84925649E+04</totfact>
</mgrwt>
</event>
<event>
 7    0  0.4752811E-002  0.4541908E+03  0.7546771E-02  0.1026480E+00
         21   -1    0    0  502  501  0.00000000000E+00  0.00000000000E+00  0.18845982713E+03  0.18845982713E+03  0.00000000000E+00 0.  1.
         21   -1    0    0  501  502 -0.00000000000E+00 -0.00000000000E+00 -0.27365158594E+03  0.27365158594E+03  0.00000000000E+00 0.  1.
      99926    2    1    2    0    0  0.00000000000E+00 -0.17763568394E-14 -0.85191758809E+02  0.46211141307E+03  0.45419084350E+03 0.  0.
      99925    2    3    3    0    0  0.41630475638E+02  0.12453710146E+02 -0.15934594762E+03  0.31034006131E+03  0.26273871285E+03 0.  0.
         25    1    4    4    0    0  0.12768919032E+02  0.43629290790E+02 -0.65840014680E+02  0.14848897582E+03  0.12509000000E+03 0.  0.
         25    1    4    4    0    0  0.28861556606E+02 -0.31175580644E+02 -0.93505932935E+02  0.16185108548E+03  0.12509000000E+03 0.  0.
         25    1    3    3    0    0 -0.41630475638E+02 -0.12453710146E+02  0.74154188807E+02  0.15177135176E+03  0.12509000000E+03 0.  0.
<mgrwt>
<rscale>  2 0.45419084E+03</rscale>
<asrwt>0</asrwt>
<pdfrwt beam="1">  1       21 0.27714681E-01 0.45419084E+03</pdfrwt>
<pdfrwt beam="2">  1       21 0.40242880E-01 0.45419084E+03</pdfrwt>
<totfact> 0.68464442E+04</totfact>
</mgrwt>
</event>
<event>
 7    0  0.4752811E-002  0.4553624E+03  0.7546771E-02  0.1026135E+00
         21   -1    0    0  502  501  0.00000000000E+00  0.00000000000E+00  0.35182162013E+03  0.35182162013E+03  0.00000000000E+00 0.  1.
         21   -1    0    0  501  502 -0.00000000000E+00 -0.00000000000E+00 -0.14734377018E+03  0.14734377018E+03  0.00000000000E+00 0.  1.
      99926    2    1    2    0    0  0.00000000000E+00  0.71054273576E-14  0.20447784995E+03  0.49916539031E+03  0.45536237851E+03 0.  0.
      99925    2    3    3    0    0  0.25341579790E+02 -0.47527004732E+02  0.19143872120E+02  0.26917147021E+03  0.26303190052E+03 0.  0.
         25    1    4    4    0    0  0.21420282466E+02 -0.45753609523E+02  0.43325893716E+02  0.14169284545E+03  0.12509000000E+03 0.  0.
         25    1    3    3    0    0 -0.25341579790E+02  0.47527004732E+02  0.18533397783E+03  0.22999392010E+03  0.12509000000E+03 0.  0.
         25    1    4    4    0    0  0.39212973246E+01 -0.17733952090E+01 -0.24182021596E+02  0.12747862476E+03  0.12509000000E+03 0.  0.
<mgrwt>
<rscale>  2 0.45536238E+03</rscale>
<asrwt>0</asrwt>
<pdfrwt beam="1">  1       21 0.51738473E-01 0.45536238E+03</pdfrwt>
<pdfrwt beam="2">  1       21 0.21668202E-01 0.45536238E+03</pdfrwt>
<totfact> 0.65141744E+04</totfact>
</mgrwt>
</event>
<event>
 7    0  0.4752811E-002  0.4527971E+03  0.7546771E-02  0.1026891E+00
         21   -1    0    0  502  501  0.00000000000E+00  0.00000000000E+00  0.11430993340E+04  0.11430993340E+04  0.00000000000E+00 0. -1.
         21   -1    0    0  501  502 -0.00000000000E+00 -0.00000000000E+00 -0.44839769328E+02  0.44839769328E+02  0.00000000000E+00 0. -1.
      99926    2    1    2    0    0  0.00000000000E+00  0.00000000000E+00  0.10982595647E+04  0.11879391034E+04  0.45279713099E+03 0.  0.
      99925    2    3    3    0    0  0.95611122865E+02  0.36159146463E+02  0.80670477600E+03  0.85462142666E+03  0.26297569582E+03 0.  0.
         25    1    4    4    0    0  0.16874430491E+02 -0.26129835699E+01  0.42854776488E+03  0.44675750578E+03  0.12509000000E+03 0.  0.
         25    1    3    3    0    0 -0.95611122865E+02 -0.36159146463E+02  0.29155478872E+03  0.33331767672E+03  0.12509000000E+03 0.  0.
         25    1    4    4    0    0  0.78736692374E+02  0.38772130033E+02  0.37815701112E+03  0.40786392088E+03  0.12509000000E+03 0.  0.
<mgrwt>
<rscale>  2 0.45279713E+03</rscale>
<asrwt>0</asrwt>
<pdfrwt beam="1">  1       21 0.16810282E+00 0.45279713E+03</pdfrwt>
<pdfrwt beam="2">  1       21 0.65940844E-02 0.45279713E+03</pdfrwt>
<totfact> 0.33105080E+04</totfact>
</mgrwt>
</event>
<event>
 7    0  0.4752811E-002  0.4175405E+03  0.7546771E-02  0.1037870E+00
         21   -1    0    0  502  501  0.00000000000E+00  0.00000000000E+00  0.15292296504E+03  0.15292296504E+03  0.00000000000E+00 0.  1.
         21   -1    0    0  501  502 -0.00000000000E+00 -0.00000000000E+00 -0.28501293666E+03  0.28501293666E+03  0.00000000000E+00 0.  1.
      99926    2    1    2    0    0  0.17763568394E-14  0.00000000000E+00 -0.13208997162E+03  0.43793590170E+03  0.41754052905E+03 0.  0.
      99925    2    3    3    0    0 -0.28323405885E+01 -0.64357399689E+02 -0.12159803776E+03  0.29684201160E+03  0.26301939095E+03 0.  0.
         25    1    4    4    0    0  0.17922115799E+02 -0.50722251693E+02 -0.96423226203E+02  0.16684991970E+03  0.12509000000E+03 0.  0.
         25    1    3    3    0    0  0.28323405885E+01  0.64357399689E+02 -0.10491933861E+02  0.14109389010E+03  0.12509000000E+03 0.  0.
         25    1    4    4    0    0 -0.20754456388E+02 -0.13635147996E+02 -0.25174811556E+02  0.12999209190E+03  0.12509000000E+03 0.  0.
<mgrwt>
<rscale>  2 0.41754053E+03</rscale>
<asrwt>0</asrwt>
<pdfrwt beam="1">  1       21 0.22488672E-01 0.41754053E+03</pdfrwt>
<pdfrwt beam="2">  1       21 0.41913667E-01 0.41754053E+03</pdfrwt>
<totfact> 0.95192209E+04</totfact>
</mgrwt>
</event>
<event>
 7    0  0.4752811E-002  0.4593728E+03  0.7546771E-02  0.1024963E+00
         21   -1    0    0  502  501  0.00000000000E+00  0.00000000000E+00  0.52077177325E+03  0.52077177325E+03  0.00000000000E+00 0. -1.
         21   -1    0    0  501  502 -0.00000000000E+00 -0.00000000000E+00 -0.10130318204E+03  0.10130318204E+03  0.00000000000E+00 0. -1.
      99926    2    1    2    0    0  0.00000000000E+00 -0.71054273576E-14  0.41946859122E+03  0.62207495529E+03  0.45937277998E+03 0.  0.
      99925    2    3    3    0    0  0.96910969655E+02  0.54446948389E+02  0.31357948020E+03  0.42404410376E+03  0.26291653675E+03 0.  0.
         25    1    4    4    0    0  0.57418445967E+02 -0.48511606435E+01  0.11907994134E+03  0.18206579093E+03  0.12509000000E+03 0.  0.
         25    1    4    4    0    0  0.39492523688E+02  0.59298109032E+02  0.19449953886E+03  0.24197831283E+03  0.12509000000E+03 0.  0.
         25    1    3    3    0    0 -0.96910969655E+02 -0.54446948389E+02  0.10588911102E+03  0.19803085154E+03  0.12509000000E+03 0.  0.
<mgrwt>
<rscale>  2 0.45937278E+03</rscale>
<asrwt>0</asrwt>
<pdfrwt beam="1">  1       21 0.76584083E-01 0.45937278E+03</pdfrwt>
<pdfrwt beam="2">  1       21 0.14897527E-01 0.45937278E+03</pdfrwt>
<totfact> 0.55401794E+04</totfact>
</mgrwt>
</event>
<event>
 6    0  0.4752811E-002  0.4676631E+03  0.7546771E-02  0.1022582E+00
         21   -1    0    0  502  501  0.00000000000E+00  0.00000000000E+00  0.75670504383E+02  0.75670504383E+02  0.00000000000E+00 0.  1.
         21   -1    0    0  501  502 -0.00000000000E+00 -0.00000000000E+00 -0.72256931500E+03  0.72256931500E+03  0.00000000000E+00 0.  1.
      99926    2    1    2    0    0  0.35527136788E-14  0.00000000000E+00 -0.64689881061E+03  0.79823981938E+03  0.46766306041E+03 0.  0.
         25    1    3    3    0    0  0.43422576809E+02 -0.65309054833E+02 -0.12765964320E+03  0.19518013583E+03  0.12509000000E+03 0.  0.
         25    1    3    3    0    0 -0.17629021628E+02 -0.17900981705E+02 -0.11780251205E+03  0.17365531231E+03  0.12509000000E+03 0.  0.
         25    1    3    3    0    0 -0.25793555181E+02  0.83210036538E+02 -0.40143665536E+03  0.42940437124E+03  0.12509000000E+03 0.  0.
<mgrwt>
<rscale>  2 0.46766306E+03</rscale>
<asrwt>0</asrwt>
<pdfrwt beam="1">  1       21 0.11128016E-01 0.46766306E+03</pdfrwt>
<pdfrwt beam="2">  1       21 0.10626019E+00 0.46766306E+03</pdfrwt>
<totfact> 0.43376110E+04</totfact>
</mgrwt>
</event>
<event>
 7    0  0.4752811E-002  0.5195428E+03  0.7546771E-02  0.1008800E+00
         21   -1    0    0  502  501  0.00000000000E+00  0.00000000000E+00  0.15824513759E+04  0.15824513759E+04  0.00000000000E+00 0.  1.
         21   -1    0    0  501  502 -0.00000000000E+00 -0.00000000000E+00 -0.42643447455E+02  0.42643447455E+02  0.00000000000E+00 0.  1.
      99926    2    1    2    0    0  0.00000000000E+00  0.00000000000E+00  0.15398079284E+04  0.16250948233E+04  0.51954280708E+03 0.  0.
      99925    2    3    3    0    0 -0.25177798214E+02  0.92269535908E+02  0.49175864972E+03  0.56528239301E+03  0.26185878922E+03 0.  0.
         25    1    4    4    0    0  0.11072283557E+02  0.42925692857E+02  0.30224179940E+03  0.33009517412E+03  0.12509000000E+03 0.  0.
         25    1    4    4    0    0 -0.36250081771E+02  0.49343843051E+02  0.18951685032E+03  0.23518721889E+03  0.12509000000E+03 0.  0.
         25    1    3    3    0    0  0.25177798214E+02 -0.92269535908E+02  0.10480492787E+04  0.10598124303E+04  0.12509000000E+03 0.  0.
<mgrwt>
<rscale>  2 0.51954281E+03</rscale>
<asrwt>0</asrwt>
<pdfrwt beam="1">  1       21 0.23271340E+00 0.51954281E+03</pdfrwt>
<pdfrwt beam="2">  1       21 0.62710963E-02 0.51954281E+03</pdfrwt>
<totfact> 0.13022566E+04</totfact>
</mgrwt>
</event>
<event>
 7    0  0.4752811E-002  0.4502376E+03  0.7546771E-02  0.1027651E+00
         21   -1    0    0  502  501  0.00000000000E+00  0.00000000000E+00  0.10315447219E+04  0.10315447219E+04  0.00000000000E+00 0.  1.
         21   -1    0    0  501  502 -0.00000000000E+00 -0.00000000000E+00 -0.49128718779E+02  0.49128718779E+02  0.00000000000E+00 0.  1.
      99926    2    1    2    0    0 -0.71054273576E-14  0.00000000000E+00  0.98241600314E+03  0.10806734407E+04  0.45023758417E+03 0.  0.
      99925    2    3    3    0    0  0.49523498374E+02 -0.89013027636E+02  0.71118980286E+03  0.76509927224E+03  0.26307805820E+03 0.  0.
         25    1    4    4    0    0 -0.29826554872E+01 -0.28699934964E+02  0.25733812991E+03  0.28758129929E+03  0.12509000000E+03 0.  0.
         25    1    3    3    0    0 -0.49523498374E+02  0.89013027636E+02  0.27122620028E+03  0.31557416845E+03  0.12509000000E+03 0.  0.
         25    1    4    4    0    0  0.52506153861E+02 -0.60313092672E+02  0.45385167296E+03  0.47751797295E+03  0.12509000000E+03 0.  0.
<mgrwt>
<rscale>  2 0.45023758E+03</rscale>
<asrwt>0</asrwt>
<pdfrwt beam="1">  1       21 0.15169774E+00 0.45023758E+03</pdfrwt>
<pdfrwt beam="2">  1       21 0.72248122E-02 0.45023758E+03</pdfrwt>
<totfact> 0.37547585E+04</totfact>
</mgrwt>
</event>
<event>
 7    0  0.4752811E-002  0.4563564E+03  0.7546771E-02  0.1025843E+00
         21   -1    0    0  502  501  0.00000000000E+00  0.00000000000E+00  0.92773011794E+02  0.92773011794E+02  0.00000000000E+00 0. -1.
         21   -1    0    0  501  502 -0.00000000000E+00 -0.00000000000E+00 -0.56121153259E+03  0.56121153259E+03  0.00000000000E+00 0. -1.
      99926    2    1    2    0    0  0.00000000000E+00  0.22204460493E-14 -0.46843852080E+03  0.65398454439E+03  0.45635637010E+03 0.  0.
      99925    2    3    3    0    0 -0.11028653623E+03  0.35450060173E+01 -0.33645489694E+03  0.44128082508E+03  0.26334612540E+03 0.  0.
         25    1    4    4    0    0 -0.18011219588E+02 -0.16201305465E+02 -0.12917512496E+03  0.18144036855E+03  0.12509000000E+03 0.  0.
         25    1    3    3    0    0  0.11028653623E+03 -0.35450060173E+01 -0.13198362385E+03  0.21270371931E+03  0.12509000000E+03 0.  0.
         25    1    4    4    0    0 -0.92275316641E+02  0.19746311482E+02 -0.20727977198E+03  0.25984045653E+03  0.12509000000E+03 0.  0.
<mgrwt>
<rscale>  2 0.45635637E+03</rscale>
<asrwt>0</asrwt>
<pdfrwt beam="1">  1       21 0.13643090E-01 0.45635637E+03</pdfrwt>
<pdfrwt beam="2">  1       21 0.82531110E-01 0.45635637E+03</pdfrwt>
<totfact> 0.54882968E+04</totfact>
</mgrwt>
</event>
<event>
 7    0  0.4752811E-002  0.4591942E+03  0.7546771E-02  0.1025015E+00
         21   -1    0    0  502  501  0.00000000000E+00  0.00000000000E+00  0.33088782432E+03  0.33088782432E+03  0.00000000000E+00 0. -1.
         21   -1    0    0  501  502 -0.00000000000E+00 -0.00000000000E+00 -0.15931327801E+03  0.15931327801E+03  0.00000000000E+00 0. -1.
      99926    2    1    2    0    0  0.00000000000E+00  0.00000000000E+00  0.17157454630E+03  0.49020110233E+03  0.45919418092E+03 0.  0.
      99925    2    3    3    0    0  0.26123919462E+02 -0.62334194041E+01  0.22923760824E+03  0.34986631870E+03  0.26293581963E+03 0.  0.
         25    1    4    4    0    0 -0.21802534767E+02 -0.21758814398E+02  0.12401864534E+03  0.17882094122E+03  0.12509000000E+03 0.  0.
         25    1    4    4    0    0  0.47926454228E+02  0.15525394994E+02  0.10521896290E+03  0.17104537748E+03  0.12509000000E+03 0.  0.
         25    1    3    3    0    0 -0.26123919462E+02  0.62334194041E+01 -0.57663061934E+02  0.14033478363E+03  0.12509000000E+03 0.  0.
<mgrwt>
<rscale>  2 0.45919418E+03</rscale>
<asrwt>0</asrwt>
<pdfrwt beam="1">  1       21 0.48659974E-01 0.45919418E+03</pdfrwt>
<pdfrwt beam="2">  1       21 0.23428423E-01 0.45919418E+03</pdfrwt>
<totfact> 0.63813363E+04</totfact>
</mgrwt>
</event>
<event>
 7    0  0.4752811E-002  0.4479584E+03  0.7546771E-02  0.1028333E+00
         21   -1    0    0  502  501  0.00000000000E+00  0.00000000000E+00  0.11767468005E+03  0.11767468005E+03  0.00000000000E+00 0. -1.
         21   -1    0    0  501  502 -0.00000000000E+00 -0.00000000000E+00 -0.42631661813E+03  0.42631661813E+03  0.00000000000E+00 0. -1.
      99926    2    1    2    0    0  0.00000000000E+00  0.00000000000E+00 -0.30864193808E+03  0.54399129818E+03  0.44795835360E+03 0.  0.
      99925    2    3    3    0    0 -0.71379569958E+02 -0.38782569036E+02 -0.11209201672E+03  0.29725558866E+03  0.26305348146E+03 0.  0.
         25    1    4    4    0    0 -0.73724236520E+02 -0.33992359718E+02 -0.73397000973E+02  0.16620881872E+03  0.12509000000E+03 0.  0.
         25    1    3    3    0    0  0.71379569958E+02  0.38782569036E+02 -0.19654992136E+03  0.24673570953E+03  0.12509000000E+03 0.  0.
         25    1    4    4    0    0  0.23446665615E+01 -0.47902093177E+01 -0.38695015743E+02  0.13104676993E+03  0.12509000000E+03 0.  0.
<mgrwt>
<rscale>  2 0.44795835E+03</rscale>
<asrwt>0</asrwt>
<pdfrwt beam="1">  1       21 0.17305100E-01 0.44795835E+03</pdfrwt>
<pdfrwt beam="2">  1       21 0.62693620E-01 0.44795835E+03</pdfrwt>
<totfact> 0.65859036E+04</totfact>
</mgrwt>
</event>
<event>
 7    0  0.4752811E-002  0.4601611E+03  0.7546771E-02  0.1024735E+00
         21   -1    0    0  502  501  0.00000000000E+00  0.00000000000E+00  0.33111225914E+03  0.33111225914E+03  0.00000000000E+00 0. -1.
         21   -1    0    0  501  502 -0.00000000000E+00 -0.00000000000E+00 -0.15987645752E+03  0.15987645752E+03  0.00000000000E+00 0. -1.
      99926    2    1    2    0    0 -0.35527136788E-14 -0.14210854715E-13  0.17123580162E+03  0.49098871665E+03  0.46016108063E+03 0.  0.
      99925    2    3    3    0    0 -0.84825991574E+01  0.11078207342E+03  0.14925179835E+03  0.32224208179E+03  0.26309549157E+03 0.  0.
         25    1    4    4    0    0 -0.35033271040E+02  0.65431551375E+02  0.10549301487E+03  0.17967999967E+03  0.12509000000E+03 0.  0.
         25    1    3    3    0    0  0.84825991574E+01 -0.11078207342E+03  0.21984003267E+02  0.16874663487E+03  0.12509000000E+03 0.  0.
         25    1    4    4    0    0  0.26550671883E+02  0.45350522040E+02  0.43758783486E+02  0.14256208212E+03  0.12509000000E+03 0.  0.
<mgrwt>
<rscale>  2 0.46016108E+03</rscale>
<asrwt>0</asrwt>
<pdfrwt beam="1">  1       21 0.48692979E-01 0.46016108E+03</pdfrwt>
<pdfrwt beam="2">  1       21 0.23511244E-01 0.46016108E+03</pdfrwt>
<totfact> 0.63275949E+04</totfact>
</mgrwt>
</event>
<event>
 7    0  0.4752811E-002  0.4520257E+03  0.7546771E-02  0.1027120E+00
         21   -1    0    0  502  501  0.00000000000E+00  0.00000000000E+00  0.11056029795E+03  0.11056029795E+03  0.00000000000E+00 0. -1.
         21   -1    0    0  501  502 -0.00000000000E+00 -0.00000000000E+00 -0.46202670047E+03  0.46202670047E+03  0.00000000000E+00 0. -1.
      99926    2    1    2    0    0  0.00000000000E+00 -0.35527136788E-14 -0.35146640252E+03  0.57258699841E+03  0.45202570574E+03 0.  0.
      99925    2    3    3    0    0 -0.94930139004E+02  0.13851151406E+02 -0.15271720051E+03  0.31890937014E+03  0.26301531770E+03 0.  0.
         25    1    4    4    0    0 -0.13364735537E+02 -0.18395145322E+02 -0.72385883096E+02  0.14630181714E+03  0.12509000000E+03 0.  0.
         25    1    4    4    0    0 -0.81565403468E+02  0.32246296728E+02 -0.80331317418E+02  0.17260755300E+03  0.12509000000E+03 0.  0.
         25    1    3    3    0    0  0.94930139004E+02 -0.13851151406E+02 -0.19874920201E+03  0.25367762827E+03  0.12509000000E+03 0.  0.
<mgrwt>
<rscale>  2 0.45202571E+03</rscale>
<asrwt>0</asrwt>
<pdfrwt beam="1">  1       21 0.16258868E-01 0.45202571E+03</pdfrwt>
<pdfrwt beam="2">  1       21 0.67945102E-01 0.45202571E+03</pdfrwt>
<totfact> 0.61839745E+04</totfact>
</mgrwt>
</event>
<event>
 7    0  0.4752811E-002  0.4550833E+03  0.7546771E-02  0.1026217E+00
         21   -1    0    0  502  501  0.00000000000E+00  0.00000000000E+00  0.95959245659E+02  0.95959245659E+02  0.00000000000E+00 0. -1.
         21   -1    0    0  501  502 -0.00000000000E+00 -0.00000000000E+00 -0.53955407372E+03  0.53955407372E+03  0.00000000000E+00 0. -1.
      99926    2    1    2    0    0  0.14210854715E-13  0.00000000000E+00 -0.44359482806E+03  0.63551331938E+03  0.45508329746E+03 0.  0.
      99925    2    3    3    0    0 -0.87572458115E+02  0.62809179807E+02 -0.32670917902E+03  0.43321727013E+03  0.26329524682E+03 0.  0.
         25    1    4    4    0    0 -0.58676908485E+02  0.69846710792E+02 -0.19731644963E+03  0.25080436996E+03  0.12509000000E+03 0.  0.
         25    1    4    4    0    0 -0.28895549629E+02 -0.70375309851E+01 -0.12939272939E+03  0.18241290017E+03  0.12509000000E+03 0.  0.
         25    1    3    3    0    0  0.87572458115E+02 -0.62809179807E+02 -0.11688564905E+03  0.20229604925E+03  0.12509000000E+03 0.  0.
<mgrwt>
<rscale>  2 0.45508330E+03</rscale>
<asrwt>0</asrwt>
<pdfrwt beam="1">  1       21 0.14111653E-01 0.45508330E+03</pdfrwt>
<pdfrwt beam="2">  1       21 0.79346189E-01 0.45508330E+03</pdfrwt>
<totfact> 0.56506721E+04</totfact>
</mgrwt>
</event>
<event>
 7    0  0.4752811E-002  0.4608872E+03  0.7546771E-02  0.1024524E+00
         21   -1    0    0  502  501  0.00000000000E+00  0.00000000000E+00  0.10679761203E+03  0.10679761203E+03  0.00000000000E+00 0. -1.
         21   -1    0    0  501  502 -0.00000000000E+00 -0.00000000000E+00 -0.49724205249E+03  0.49724205249E+03  0.00000000000E+00 0. -1.
      99926    2    1    2    0    0  0.00000000000E+00  0.00000000000E+00 -0.39044444046E+03  0.60403966452E+03  0.46088724785E+03 0.  0.
      99925    2    3    3    0    0 -0.53101598845E+02 -0.70270476408E+02 -0.14059222570E+03  0.31106977362E+03  0.26313591636E+03 0.  0.
         25    1    3    3    0    0  0.53101598845E+02  0.70270476408E+02 -0.24985221476E+03  0.29296989090E+03  0.12509000000E+03 0.  0.
         25    1    4    4    0    0 -0.14805189976E+02 -0.13322643354E+02 -0.29021865550E+02  0.12994792517E+03  0.12509000000E+03 0.  0.
         25    1    4    4    0    0 -0.38296408869E+02 -0.56947833053E+02 -0.11157036015E+03  0.18112184845E+03  0.12509000000E+03 0.  0.
<mgrwt>
<rscale>  2 0.46088725E+03</rscale>
<asrwt>0</asrwt>
<pdfrwt beam="1">  1       21 0.15705531E-01 0.46088725E+03</pdfrwt>
<pdfrwt beam="2">  1       21 0.73123830E-01 0.46088725E+03</pdfrwt>
<totfact> 0.55789741E+04</totfact>
</mgrwt>
</event>
<event>
 7    0  0.4752811E-002  0.4516352E+03  0.7546771E-02  0.1027236E+00
         21   -1    0    0  502  501  0.00000000000E+00  0.00000000000E+00  0.37867281703E+03  0.37867281703E+03  0.00000000000E+00 0.  1.
         21   -1    0    0  501  502 -0.00000000000E+00 -0.00000000000E+00 -0.13466398570E+03  0.13466398570E+03  0.00000000000E+00 0.  1.
      99926    2    1    2    0    0  0.00000000000E+00  0.00000000000E+00  0.24400883134E+03  0.51333680273E+03  0.45163521039E+03 0.  0.
      99925    2    3    3    0    0 -0.15011455423E+02  0.99679893149E+02  0.20393917635E+03  0.34776352517E+03  0.26303394628E+03 0.  0.
         25    1    4    4    0    0 -0.11151666063E+02  0.35710942855E+02  0.14565321625E+03  0.19560674477E+03  0.12509000000E+03 0.  0.
         25    1    3    3    0    0  0.15011455423E+02 -0.99679893149E+02  0.40069654983E+02  0.16557327756E+03  0.12509000000E+03 0.  0.
         25    1    4    4    0    0 -0.38597893605E+01  0.63968950294E+02  0.58285960099E+02  0.15215678040E+03  0.12509000000E+03 0.  0.
<mgrwt>
<rscale>  2 0.45163521E+03</rscale>
<asrwt>0</asrwt>
<pdfrwt beam="1">  1       21 0.55687179E-01 0.45163521E+03</pdfrwt>
<pdfrwt beam="2">  1       21 0.19803527E-01 0.45163521E+03</pdfrwt>
<totfact> 0.66090550E+04</totfact>
</mgrwt>
</event>
<event>
 7    0  0.4752811E-002  0.4048479E+03  0.7546771E-02  0.1042114E+00
         21   -1    0    0  502  501  0.00000000000E+00  0.00000000000E+00  0.12457931271E+03  0.12457931271E+03  0.00000000000E+00 0. -1.
         21   -1    0    0  501  502 -0.00000000000E+00 -0.00000000000E+00 -0.32891060140E+03  0.32891060140E+03  0.00000000000E+00 0. -1.
      99926    2    1    2    0    0  0.00000000000E+00 -0.29976021665E-14 -0.20433128869E+03  0.45348991411E+03  0.40484790559E+03 0.  0.
      99925    2    3    3    0    0  0.49316081340E+02  0.80137416700E+00 -0.16088804157E+03  0.31218336118E+03  0.26294632722E+03 0.  0.
         25    1    3    3    0    0 -0.49316081340E+02 -0.80137416700E+00 -0.43443247121E+02  0.14130655293E+03  0.12509000000E+03 0.  0.
         25    1    4    4    0    0  0.12692656291E+02  0.33215539568E+02 -0.10315189683E+03  0.16598854633E+03  0.12509000000E+03 0.  0.
         25    1    4    4    0    0  0.36623425049E+02 -0.32414165401E+02 -0.57736144733E+02  0.14619481485E+03  0.12509000000E+03 0.  0.
<mgrwt>
<rscale>  2 0.40484791E+03</rscale>
<asrwt>0</asrwt>
<pdfrwt beam="1">  1       21 0.18320487E-01 0.40484791E+03</pdfrwt>
<pdfrwt beam="2">  1       21 0.48369206E-01 0.40484791E+03</pdfrwt>
<totfact> 0.10447513E+05</totfact>
</mgrwt>
</event>
<event>
 7    0  0.4752811E-002  0.4534525E+03  0.7546771E-02  0.1026697E+00
         21   -1    0    0  502  501  0.00000000000E+00  0.00000000000E+00  0.42814690299E+03  0.42814690299E+03  0.00000000000E+00 0.  1.
         21   -1    0    0  501  502 -0.00000000000E+00 -0.00000000000E+00 -0.12006342416E+03  0.12006342416E+03  0.00000000000E+00 0.  1.
      99926    2    1    2    0    0 -0.71054273576E-14  0.00000000000E+00  0.30808347883E+03  0.54821032714E+03  0.45345245931E+03 0.  0.
      99925    2    3    3    0    0 -0.53650717161E+02 -0.78876214066E+02  0.26439074809E+03  0.38494238964E+03  0.26301771626E+03 0.  0.
         25    1    4    4    0    0 -0.53088608210E+01 -0.44646208253E+01  0.13619480157E+03  0.18505309756E+03  0.12509000000E+03 0.  0.
         25    1    3    3    0    0  0.53650717161E+02  0.78876214066E+02  0.43692730744E+02  0.16326793751E+03  0.12509000000E+03 0.  0.
         25    1    4    4    0    0 -0.48341856340E+02 -0.74411593241E+02  0.12819594652E+03  0.19988929208E+03  0.12509000000E+03 0.  0.
<mgrwt>
<rscale>  2 0.45345246E+03</rscale>
<asrwt>0</asrwt>
<pdfrwt beam="1">  1       21 0.62962780E-01 0.45345246E+03</pdfrwt>
<pdfrwt beam="2">  1       21 0.17656386E-01 0.45345246E+03</pdfrwt>
<totfact> 0.62749748E+04</totfact>
</mgrwt>
</event>
<event>
 7    0  0.4752811E-002  0.4510185E+03  0.7546771E-02  0.1027419E+00
         21   -1    0    0  502  501  0.00000000000E+00  0.00000000000E+00  0.66284903032E+03  0.66284903032E+03  0.00000000000E+00 0.  1.
         21   -1    0    0  501  502 -0.00000000000E+00 -0.00000000000E+00 -0.76720975573E+02  0.76720975573E+02  0.00000000000E+00 0.  1.
      99926    2    1    2    0    0  0.17763568394E-14  0.00000000000E+00  0.58612805474E+03  0.73957000589E+03  0.45101851077E+03 0.  0.
      99925    2    3    3    0    0 -0.77678149363E+01  0.15250027446E+02  0.19314354258E+03  0.32680222954E+03  0.26306342754E+03 0.  0.
         25    1    4    4    0    0  0.22403841905E+02  0.64852415208E+01  0.57517162130E+02  0.13964140693E+03  0.12509000000E+03 0.  0.
         25    1    3    3    0    0  0.77678149363E+01 -0.15250027446E+02  0.39298451217E+03  0.41276777635E+03  0.12509000000E+03 0.  0.
         25    1    4    4    0    0 -0.30171656841E+02  0.87647859253E+01  0.13562638045E+03  0.18716082261E+03  0.12509000000E+03 0.  0.
<mgrwt>
<rscale>  2 0.45101851E+03</rscale>
<asrwt>0</asrwt>
<pdfrwt beam="1">  1       21 0.97477795E-01 0.45101851E+03</pdfrwt>
<pdfrwt beam="2">  1       21 0.11282497E-01 0.45101851E+03</pdfrwt>
<totfact> 0.52428539E+04</totfact>
</mgrwt>
</event>
<event>
 7    0  0.4752811E-002  0.4536154E+03  0.7546771E-02  0.1026649E+00
         21   -1    0    0  502  501  0.00000000000E+00  0.00000000000E+00  0.12645451224E+03  0.12645451224E+03  0.00000000000E+00 0. -1.
         21   -1    0    0  501  502 -0.00000000000E+00 -0.00000000000E+00 -0.40680028800E+03  0.40680028800E+03  0.00000000000E+00 0. -1.
      99926    2    1    2    0    0  0.00000000000E+00 -0.17763568394E-14 -0.28034577575E+03  0.53325480024E+03  0.45361539656E+03 0.  0.
      99925    2    3    3    0    0  0.38253920817E+02  0.12635778723E+02 -0.54002207944E+02  0.27152603959E+03  0.26303445849E+03 0.  0.
         25    1    4    4    0    0  0.25079652735E+02  0.32392788258E+02  0.38304321031E+01  0.13168318808E+03  0.12509000000E+03 0.  0.
         25    1    3    3    0    0 -0.38253920817E+02 -0.12635778723E+02 -0.22634356781E+03  0.26172876065E+03  0.12509000000E+03 0.  0.
         25    1    4    4    0    0  0.13174268081E+02 -0.19757009535E+02 -0.57832640047E+02  0.13984285152E+03  0.12509000000E+03 0.  0.
<mgrwt>
<rscale>  2 0.45361540E+03</rscale>
<asrwt>0</asrwt>
<pdfrwt beam="1">  1       21 0.18596252E-01 0.45361540E+03</pdfrwt>
<pdfrwt beam="2">  1       21 0.59823571E-01 0.45361540E+03</pdfrwt>
<totfact> 0.63681851E+04</totfact>
</mgrwt>
</event>
<event>
 7    0  0.4752811E-002  0.4546715E+03  0.7546771E-02  0.1026338E+00
         21   -1    0    0  502  501  0.00000000000E+00  0.00000000000E+00  0.72023962725E+03  0.72023962725E+03  0.00000000000E+00 0. -1.
         21   -1    0    0  501  502 -0.00000000000E+00 -0.00000000000E+00 -0.71756040653E+02  0.71756040653E+02  0.00000000000E+00 0. -1.
      99926    2    1    2    0    0  0.00000000000E+00  0.71054273576E-14  0.64848358660E+03  0.79199566790E+03  0.45467150328E+03 0.  0.
      99925    2    3    3    0    0  0.10543698958E+03  0.39421826057E+02  0.42779124197E+03  0.51446430352E+03  0.26267305485E+03 0.  0.
         25    1    4    4    0    0  0.75858432652E+02 -0.12671316165E+02  0.23052882060E+03  0.27332418350E+03  0.12509000000E+03 0.  0.
         25    1    4    4    0    0  0.29578556931E+02  0.52093142222E+02  0.19726242137E+03  0.24114012002E+03  0.12509000000E+03 0.  0.
         25    1    3    3    0    0 -0.10543698958E+03 -0.39421826057E+02  0.22069234462E+03  0.27753136438E+03  0.12509000000E+03 0.  0.
<mgrwt>
<rscale>  2 0.45467150E+03</rscale>
<asrwt>0</asrwt>
<pdfrwt beam="1">  1       21 0.10591759E+00 0.45467150E+03</pdfrwt>
<pdfrwt beam="2">  1       21 0.10552359E-01 0.45467150E+03</pdfrwt>
<totfact> 0.48278771E+04</totfact>
</mgrwt>
</event>
<event>
 7    0  0.4752811E-002  0.4451756E+03  0.7546771E-02  0.1029171E+00
         21   -1    0    0  502  501  0.00000000000E+00  0.00000000000E+00  0.80538223739E+02  0.80538223739E+02  0.00000000000E+00 0.  1.
         21   -1    0    0  501  502 -0.00000000000E+00 -0.00000000000E+00 -0.61517776828E+03  0.61517776828E+03  0.00000000000E+00 0.  1.
      99926    2    1    2    0    0  0.24424906542E-14  0.00000000000E+00 -0.53463954454E+03  0.69571599202E+03  0.44517558217E+03 0.  0.
      99925    2    3    3    0    0 -0.16131954414E+01 -0.23048599067E+02 -0.49742537977E+03  0.56317828992E+03  0.26306641267E+03 0.  0.
         25    1    4    4    0    0 -0.33321945223E+02 -0.32130913816E+02 -0.22421569643E+03  0.26088873928E+03  0.12509000000E+03 0.  0.
         25    1    4    4    0    0  0.31708749782E+02  0.90823147495E+01 -0.27320968334E+03  0.30228955064E+03  0.12509000000E+03 0.  0.
         25    1    3    3    0    0  0.16131954414E+01  0.23048599067E+02 -0.37214164765E+02  0.13253770210E+03  0.12509000000E+03 0.  0.
<mgrwt>
<rscale>  2 0.44517558E+03</rscale>
<asrwt>0</asrwt>
<pdfrwt beam="1">  1       21 0.11843856E-01 0.44517558E+03</pdfrwt>
<pdfrwt beam="2">  1       21 0.90467321E-01 0.44517558E+03</pdfrwt>
<totfact> 0.57451315E+04</totfact>
</mgrwt>
</event>
<event>
 7    0  0.4752811E-002  0.4593049E+03  0.7546771E-02  0.1024983E+00
         21   -1    0    0  502  501  0.00000000000E+00  0.00000000000E+00  0.19331388707E+04  0.19331388707E+04  0.00000000000E+00 0. -1.
         21   -1    0    0  501  502 -0.00000000000E+00 -0.00000000000E+00 -0.27282179044E+02  0.27282179044E+02  0.00000000000E+00 0. -1.
      99926    2    1    2    0    0  0.00000000000E+00  0.88817841970E-15  0.19058566917E+04  0.19604210498E+04  0.45930486950E+03 0.  0.
      99925    2    3    3    0    0 -0.11693069492E+03 -0.43857659281E+01  0.11613907107E+04  0.11965040862E+04  0.26287187550E+03 0.  0.
         25    1    3    3    0    0  0.11693069492E+03  0.43857659281E+01  0.74446598095E+03  0.76391696358E+03  0.12509000000E+03 0.  0.
         25    1    4    4    0    0 -0.54744365296E+02 -0.19995737078E+02  0.42583556109E+03  0.44763847938E+03  0.12509000000E+03 0.  0.
         25    1    4    4    0    0 -0.62186329629E+02  0.15609971150E+02  0.73555514963E+03  0.74886560680E+03  0.12509000000E+03 0.  0.
<mgrwt>
<rscale>  2 0.45930487E+03</rscale>
<asrwt>0</asrwt>
<pdfrwt beam="1">  1       21 0.28428503E+00 0.45930487E+03</pdfrwt>
<pdfrwt beam="2">  1       21 0.40120865E-02 0.45930487E+03</pdfrwt>
<totfact> 0.13896885E+04</totfact>
</mgrwt>
</event>
<event>
 7    0  0.4752811E-002  0.4532610E+03  0.7546771E-02  0.1026754E+00
         21   -1    0    0  502  501  0.00000000000E+00  0.00000000000E+00  0.47751996212E+02  0.47751996212E+02  0.00000000000E+00 0. -1.
         21   -1    0    0  501  502 -0.00000000000E+00 -0.00000000000E+00 -0.10755861467E+04  0.10755861467E+04  0.00000000000E+00 0. -1.
      99926    2    1    2    0    0  0.17763568394E-14 -0.14210854715E-13 -0.10278341505E+04  0.11233381429E+04  0.45326100914E+03 0.  0.
      99925    2    3    3    0    0  0.11767936441E+02 -0.67650871969E+02 -0.86558296475E+03  0.90726389599E+03  0.26301859876E+03 0.  0.
         25    1    4    4    0    0  0.39383132522E+02 -0.18511703778E+02 -0.48270098720E+03  0.50054117258E+03  0.12509000000E+03 0.  0.
         25    1    3    3    0    0 -0.11767936441E+02  0.67650871969E+02 -0.16225118571E+03  0.21607424689E+03  0.12509000000E+03 0.  0.
         25    1    4    4    0    0 -0.27615196081E+02 -0.49139168191E+02 -0.38288197755E+03  0.40672272341E+03  0.12509000000E+03 0.  0.
<mgrwt>
<rscale>  2 0.45326101E+03</rscale>
<asrwt>0</asrwt>
<pdfrwt beam="1">  1       21 0.70223528E-02 0.45326101E+03</pdfrwt>
<pdfrwt beam="2">  1       21 0.15817442E+00 0.45326101E+03</pdfrwt>
<totfact> 0.35159356E+04</totfact>
</mgrwt>
</event>
<event>
 7    0  0.4752811E-002  0.4521886E+03  0.7546771E-02  0.1027071E+00
         21   -1    0    0  502  501  0.00000000000E+00  0.00000000000E+00  0.22963320835E+03  0.22963320835E+03  0.00000000000E+00 0. -1.
         21   -1    0    0  501  502 -0.00000000000E+00 -0.00000000000E+00 -0.22260988155E+03  0.22260988155E+03  0.00000000000E+00 0. -1.
      99926    2    1    2    0    0  0.14210854715E-13  0.17763568394E-14  0.70233267996E+01  0.45224308990E+03  0.45218855054E+03 0.  0.
      99925    2    3    3    0    0 -0.10736675383E+03  0.10720544183E+02 -0.19134639492E+02  0.28498790404E+03  0.26307683503E+03 0.  0.
         25    1    4    4    0    0 -0.38506380429E+02 -0.20644876575E+02  0.19113200463E+02  0.13387223310E+03  0.12509000000E+03 0.  0.
         25    1    4    4    0    0 -0.68860373401E+02  0.31365420758E+02 -0.38247839956E+02  0.15111567095E+03  0.12509000000E+03 0.  0.
         25    1    3    3    0    0  0.10736675383E+03 -0.10720544183E+02  0.26157966292E+02  0.16725518586E+03  0.12509000000E+03 0.  0.
<mgrwt>
<rscale>  2 0.45218855E+03</rscale>
<asrwt>0</asrwt>
<pdfrwt beam="1">  1       21 0.33769590E-01 0.45218855E+03</pdfrwt>
<pdfrwt beam="2">  1       21 0.32736747E-01 0.45218855E+03</pdfrwt>
<totfact> 0.70312323E+04</totfact>
</mgrwt>
</event>
<event>
 7    0  0.4752811E-002  0.4594034E+03  0.7546771E-02  0.1024954E+00
         21   -1    0    0  502  501  0.00000000000E+00  0.00000000000E+00  0.60392074893E+02  0.60392074893E+02  0.00000000000E+00 0. -1.
         21   -1    0    0  501  502 -0.00000000000E+00 -0.00000000000E+00 -0.87367225331E+03  0.87367225331E+03  0.00000000000E+00 0. -1.
      99926    2    1    2    0    0  0.00000000000E+00  0.00000000000E+00 -0.81328017842E+03  0.93406432821E+03  0.45940343993E+03 0.  0.
      99925    2    3    3    0    0  0.11290532851E+03  0.20741103672E+02 -0.46164597294E+03  0.54358778710E+03  0.26304537892E+03 0.  0.
         25    1    3    3    0    0 -0.11290532851E+03 -0.20741103672E+02 -0.35163420548E+03  0.39047654110E+03  0.12509000000E+03 0.  0.
         25    1    4    4    0    0  0.94280738715E+02  0.27623532838E+02 -0.23119961094E+03  0.28062908876E+03  0.12509000000E+03 0.  0.
         25    1    4    4    0    0  0.18624589793E+02 -0.68824291663E+01 -0.23044636200E+03  0.26295869834E+03  0.12509000000E+03 0.  0.
<mgrwt>
<rscale>  2 0.45940344E+03</rscale>
<asrwt>0</asrwt>
<pdfrwt beam="1">  1       21 0.88811884E-02 0.45940344E+03</pdfrwt>
<pdfrwt beam="2">  1       21 0.12848120E+00 0.45940344E+03</pdfrwt>
<totfact> 0.40384041E+04</totfact>
</mgrwt>
</event>
<event>
 7    0  0.4752811E-002  0.4284422E+03  0.7546771E-02  0.1034353E+00
         21   -1    0    0  502  501  0.00000000000E+00  0.00000000000E+00  0.12175410747E+04  0.12175410747E+04  0.00000000000E+00 0.  1.
         21   -1    0    0  501  502 -0.00000000000E+00 -0.00000000000E+00 -0.37691276415E+02  0.37691276415E+02  0.00000000000E+00 0.  1.
      99926    2    1    2    0    0  0.00000000000E+00  0.00000000000E+00  0.11798497983E+04  0.12552323512E+04  0.42844218837E+03 0.  0.
      99925    2    3    3    0    0  0.23543386691E+02  0.54687671103E+02  0.94281010735E+03  0.98067751943E+03  0.26323462189E+03 0.  0.
         25    1    4    4    0    0  0.29406373024E+02 -0.72377270623E+01  0.50351442077E+03  0.51970318403E+03  0.12509000000E+03 0.  0.
         25    1    4    4    0    0 -0.58629863333E+01  0.61925398165E+02  0.43929568659E+03  0.46097433540E+03  0.12509000000E+03 0.  0.
         25    1    3    3    0    0 -0.23543386691E+02 -0.54687671103E+02  0.23703969097E+03  0.27455483172E+03  0.12509000000E+03 0.  0.
<mgrwt>
<rscale>  2 0.42844219E+03</rscale>
<asrwt>0</asrwt>
<pdfrwt beam="1">  1       21 0.17905013E+00 0.42844219E+03</pdfrwt>
<pdfrwt beam="2">  1       21 0.55428356E-02 0.42844219E+03</pdfrwt>
<totfact> 0.37640346E+04</totfact>
</mgrwt>
</event>
<event>
 7    0  0.4752811E-002  0.4728516E+03  0.7546771E-02  0.1021118E+00
         21   -1    0    0  502  501  0.00000000000E+00  0.00000000000E+00  0.13440428866E+04  0.13440428866E+04  0.00000000000E+00 0.  1.
         21   -1    0    0  501  502 -0.00000000000E+00 -0.00000000000E+00 -0.41588820453E+02  0.41588820453E+02  0.00000000000E+00 0.  1.
      99926    2    1    2    0    0  0.00000000000E+00  0.28421709430E-13  0.13024540662E+04  0.13856317071E+04  0.47285159741E+03 0.  0.
      99925    2    3    3    0    0 -0.33998269915E+02  0.12467017160E+03  0.80322149876E+03  0.85499134063E+03  0.26295794803E+03 0.  0.
         25    1    3    3    0    0  0.33998269915E+02 -0.12467017160E+03  0.49923256743E+03  0.53064036647E+03  0.12509000000E+03 0.  0.
         25    1    4    4    0    0 -0.11153545740E+02  0.24358705196E+02  0.41710224789E+03  0.43627920120E+03  0.12509000000E+03 0.  0.
         25    1    4    4    0    0 -0.22844724175E+02  0.10031146640E+03  0.38611925087E+03  0.41871213943E+03  0.12509000000E+03 0.  0.
<mgrwt>
<rscale>  2 0.47285160E+03</rscale>
<asrwt>0</asrwt>
<pdfrwt beam="1">  1       21 0.19765334E+00 0.47285160E+03</pdfrwt>
<pdfrwt beam="2">  1       21 0.61160039E-02 0.47285160E+03</pdfrwt>
<totfact> 0.23311575E+04</totfact>
</mgrwt>
</event>
<event>
 7    0  0.4752811E-002  0.4506152E+03  0.7546771E-02  0.1027539E+00
         21   -1    0    0  502  501  0.00000000000E+00  0.00000000000E+00  0.51650530244E+03  0.51650530244E+03  0.00000000000E+00 0.  1.
         21   -1    0    0  501  502 -0.00000000000E+00 -0.00000000000E+00 -0.98282640443E+02  0.98282640443E+02  0.00000000000E+00 0.  1.
      99926    2    1    2    0    0 -0.71054273576E-14  0.88817841970E-15  0.41822266200E+03  0.61478794288E+03  0.45061515699E+03 0.  0.
      99925    2    3    3    0    0 -0.55319103739E+02 -0.41670885317E+01  0.13574326014E+03  0.30090948163E+03  0.26275980590E+03 0.  0.
         25    1    4    4    0    0 -0.10560612868E+02  0.20275459218E+02  0.33521558109E+02  0.13150598370E+03  0.12509000000E+03 0.  0.
         25    1    3    3    0    0  0.55319103739E+02  0.41670885317E+01  0.28247940185E+03  0.31387846125E+03  0.12509000000E+03 0.  0.
         25    1    4    4    0    0 -0.44758490870E+02 -0.24442547750E+02  0.10222170204E+03  0.16940349793E+03  0.12509000000E+03 0.  0.
<mgrwt>
<rscale>  2 0.45061516E+03</rscale>
<asrwt>0</asrwt>
<pdfrwt beam="1">  1       21 0.75956661E-01 0.45061516E+03</pdfrwt>
<pdfrwt beam="2">  1       21 0.14453330E-01 0.45061516E+03</pdfrwt>
<totfact> 0.59821998E+04</totfact>
</mgrwt>
</event>
<event>
 7    0  0.4752811E-002  0.4568467E+03  0.7546771E-02  0.1025700E+00
         21   -1    0    0  502  501  0.00000000000E+00  0.00000000000E+00  0.19291161541E+04  0.19291161541E+04  0.00000000000E+00 0. -1.
         21   -1    0    0  501  502 -0.00000000000E+00 -0.00000000000E+00 -0.27047220369E+02  0.27047220369E+02  0.00000000000E+00 0. -1.
      99926    2    1    2    0    0 -0.71054273576E-14  0.14210854715E-13  0.19020689337E+04  0.19561633745E+04  0.45684671276E+03 0.  0.
      99925    2    3    3    0    0  0.54600223323E+02 -0.92953024285E+02  0.10271607014E+04  0.10658076185E+04  0.26318306180E+03 0.  0.
         25    1    3    3    0    0 -0.54600223323E+02  0.92953024285E+02  0.87490823233E+03  0.89035575598E+03  0.12509000000E+03 0.  0.
         25    1    4    4    0    0  0.46728583575E+02 -0.16399160196E+02  0.56870687816E+03  0.58440355435E+03  0.12509000000E+03 0.  0.
         25    1    4    4    0    0  0.78716397479E+01 -0.76553864089E+02  0.45845382326E+03  0.48140406415E+03  0.12509000000E+03 0.  0.
<mgrwt>
<rscale>  2 0.45684671E+03</rscale>
<asrwt>0</asrwt>
<pdfrwt beam="1">  1       21 0.28369346E+00 0.45684671E+03</pdfrwt>
<pdfrwt beam="2">  1       21 0.39775337E-02 0.45684671E+03</pdfrwt>
<totfact> 0.14233945E+04</totfact>
</mgrwt>
</event>
<event>
 7    0  0.4752811E-002  0.4588364E+03  0.7546771E-02  0.1025119E+00
         21   -1    0    0  502  501  0.00000000000E+00  0.00000000000E+00  0.89290781624E+02  0.89290781624E+02  0.00000000000E+00 0. -1.
         21   -1    0    0  501  502 -0.00000000000E+00 -0.00000000000E+00 -0.58945289000E+03  0.58945289000E+03  0.00000000000E+00 0. -1.
      99926    2    1    2    0    0  0.00000000000E+00  0.00000000000E+00 -0.50016210837E+03  0.67874367162E+03  0.45883639471E+03 0.  0.
      99925    2    3    3    0    0  0.10215017206E+03  0.50641567081E+02 -0.35112586052E+03  0.45322529711E+03  0.26291552645E+03 0.  0.
         25    1    4    4    0    0  0.72455959996E+02 -0.40804816019E+01 -0.20673536436E+03  0.25229652286E+03  0.12509000000E+03 0.  0.
         25    1    4    4    0    0  0.29694212059E+02  0.54722048683E+02 -0.14439049616E+03  0.20092877425E+03  0.12509000000E+03 0.  0.
         25    1    3    3    0    0 -0.10215017206E+03 -0.50641567081E+02 -0.14903624785E+03  0.22551837451E+03  0.12509000000E+03 0.  0.
<mgrwt>
<rscale>  2 0.45883639E+03</rscale>
<asrwt>0</asrwt>
<pdfrwt beam="1">  1       21 0.13130998E-01 0.45883639E+03</pdfrwt>
<pdfrwt beam="2">  1       21 0.86684245E-01 0.45883639E+03</pdfrwt>
<totfact> 0.52468530E+04</totfact>
</mgrwt>
</event>
<event>
 7    0  0.4752811E-002  0.4624276E+03  0.7546771E-02  0.1024079E+00
         21   -1    0    0  502  501  0.00000000000E+00  0.00000000000E+00  0.36679409686E+03  0.36679409686E+03  0.00000000000E+00 0. -1.
         21   -1    0    0  501  502 -0.00000000000E+00 -0.00000000000E+00 -0.14574888003E+03  0.14574888003E+03  0.00000000000E+00 0. -1.
      99926    2    1    2    0    0  0.00000000000E+00  0.00000000000E+00  0.22104521683E+03  0.51254297688E+03  0.46242763247E+03 0.  0.
      99925    2    3    3    0    0  0.71694798735E+02  0.52757365397E+02  0.22720872642E+03  0.35889083495E+03  0.26316409763E+03 0.  0.
         25    1    4    4    0    0  0.42871074587E+02  0.65143899691E+01  0.66763752068E+02  0.14827431673E+03  0.12509000000E+03 0.  0.
         25    1    3    3    0    0 -0.71694798735E+02 -0.52757365397E+02 -0.61635095938E+01  0.15365214193E+03  0.12509000000E+03 0.  0.
         25    1    4    4    0    0  0.28823724148E+02  0.46242975428E+02  0.16044497435E+03  0.21061651822E+03  0.12509000000E+03 0.  0.
<mgrwt>
<rscale>  2 0.46242763E+03</rscale>
<asrwt>0</asrwt>
<pdfrwt beam="1">  1       21 0.53940308E-01 0.46242763E+03</pdfrwt>
<pdfrwt beam="2">  1       21 0.21433659E-01 0.46242763E+03</pdfrwt>
<totfact> 0.60737882E+04</totfact>
</mgrwt>
</event>
<event>
 7    0  0.4752811E-002  0.4648697E+03  0.7546771E-02  0.1023378E+00
         21   -1    0    0  502  501  0.00000000000E+00  0.00000000000E+00  0.12136257564E+03  0.12136257564E+03  0.00000000000E+00 0.  1.
         21   -1    0    0  501  502 -0.00000000000E+00 -0.00000000000E+00 -0.44516155071E+03  0.44516155071E+03  0.00000000000E+00 0.  1.
      99926    2    1    2    0    0  0.71054273576E-14  0.88817841970E-15 -0.32379897507E+03  0.56652412634E+03  0.46486966934E+03 0.  0.
      99925    2    3    3    0    0  0.11576334404E+02  0.44763628977E+01 -0.54053387954E+02  0.26892668145E+03  0.26314585671E+03 0.  0.
         25    1    3    3    0    0 -0.11576334404E+02 -0.44763628977E+01 -0.26974558711E+03  0.29759744490E+03  0.12509000000E+03 0.  0.
         25    1    4    4    0    0  0.46354741373E+02  0.29588525337E+01 -0.32071084327E+02  0.13723548887E+03  0.12509000000E+03 0.  0.
         25    1    4    4    0    0 -0.34778406968E+02  0.15175103640E+01 -0.21982303627E+02  0.13169119257E+03  0.12509000000E+03 0.  0.
<mgrwt>
<rscale>  2 0.46486967E+03</rscale>
<asrwt>0</asrwt>
<pdfrwt beam="1">  1       21 0.17847438E-01 0.46486967E+03</pdfrwt>
<pdfrwt beam="2">  1       21 0.65464933E-01 0.46486967E+03</pdfrwt>
<totfact> 0.56265392E+04</totfact>
</mgrwt>
</event>
<event>
 7    0  0.4752811E-002  0.4532757E+03  0.7546771E-02  0.1026750E+00
         21   -1    0    0  502  501  0.00000000000E+00  0.00000000000E+00  0.19023375819E+03  0.19023375819E+03  0.00000000000E+00 0. -1.
         21   -1    0    0  501  502 -0.00000000000E+00 -0.00000000000E+00 -0.27000835961E+03  0.27000835961E+03  0.00000000000E+00 0. -1.
      99926    2    1    2    0    0  0.14210854715E-13  0.00000000000E+00 -0.79774601425E+02  0.46024211780E+03  0.45327565560E+03 0.  0.
      99925    2    3    3    0    0  0.78365349421E+02 -0.76981244464E+02 -0.30683697584E+02  0.28667753348E+03  0.26301193683E+03 0.  0.
         25    1    4    4    0    0  0.54555852762E+02 -0.26625076782E+02 -0.51298074073E+02  0.14820336126E+03  0.12509000000E+03 0.  0.
         25    1    3    3    0    0 -0.78365349421E+02  0.76981244464E+02 -0.49090903841E+02  0.17356458432E+03  0.12509000000E+03 0.  0.
         25    1    4    4    0    0  0.23809496659E+02 -0.50356167682E+02  0.20614376489E+02  0.13847417222E+03  0.12509000000E+03 0.  0.
<mgrwt>
<rscale>  2 0.45327566E+03</rscale>
<asrwt>0</asrwt>
<pdfrwt beam="1">  1       21 0.27975553E-01 0.45327566E+03</pdfrwt>
<pdfrwt beam="2">  1       21 0.39707111E-01 0.45327566E+03</pdfrwt>
<totfact> 0.69107188E+04</totfact>
</mgrwt>
</event>
<event>
 7    0  0.4752811E-002  0.4389874E+03  0.7546771E-02  0.1031058E+00
         21   -1    0    0  502  501  0.00000000000E+00  0.00000000000E+00  0.14934193544E+04  0.14934193544E+04  0.00000000000E+00 0. -1.
         21   -1    0    0  501  502 -0.00000000000E+00 -0.00000000000E+00 -0.32259847433E+02  0.32259847433E+02  0.00000000000E+00 0. -1.
      99926    2    1    2    0    0  0.00000000000E+00  0.00000000000E+00  0.14611595070E+04  0.15256792018E+04  0.43898738262E+03 0.  0.
      99925    2    3    3    0    0 -0.84048988949E+02 -0.16847276770E+02  0.10944588721E+04  0.11288606955E+04  0.26294140750E+03 0.  0.
         25    1    4    4    0    0 -0.25718367290E+02 -0.42410217945E+02  0.59695445351E+03  0.61193315703E+03  0.12509000000E+03 0.  0.
         25    1    3    3    0    0  0.84048988949E+02  0.16847276770E+02  0.36670063480E+03  0.39681850630E+03  0.12509000000E+03 0.  0.
         25    1    4    4    0    0 -0.58330621659E+02  0.25562941174E+02  0.49750441864E+03  0.51692753849E+03  0.12509000000E+03 0.  0.
<mgrwt>
<rscale>  2 0.43898738E+03</rscale>
<asrwt>0</asrwt>
<pdfrwt beam="1">  1       21 0.21962045E+00 0.43898738E+03</pdfrwt>
<pdfrwt beam="2">  1       21 0.47440962E-02 0.43898738E+03</pdfrwt>
<totfact> 0.26275912E+04</totfact>
</mgrwt>
</event>
<event>
 7    0  0.4752811E-002  0.4628133E+03  0.7546771E-02  0.1023968E+00
         21   -1    0    0  502  501  0.00000000000E+00  0.00000000000E+00  0.10283321098E+03  0.10283321098E+03  0.00000000000E+00 0. -1.
         21   -1    0    0  501  502 -0.00000000000E+00 -0.00000000000E+00 -0.52073669636E+03  0.52073669636E+03  0.00000000000E+00 0. -1.
      99926    2    1    2    0    0 -0.14210854715E-13  0.00000000000E+00 -0.41790348537E+03  0.62356990734E+03  0.46281325203E+03 0.  0.
      99925    2    3    3    0    0  0.91365615475E+02 -0.75941713127E+02 -0.23551926571E+03  0.37251945192E+03  0.26303345425E+03 0.  0.
         25    1    3    3    0    0 -0.91365615475E+02  0.75941713127E+02 -0.18238421967E+03  0.25105045542E+03  0.12509000000E+03 0.  0.
         25    1    4    4    0    0  0.21219506713E+02 -0.18004609642E+02 -0.70171524842E+02  0.14610265033E+03  0.12509000000E+03 0.  0.
         25    1    4    4    0    0  0.70146108762E+02 -0.57937103485E+02 -0.16534774086E+03  0.22641680159E+03  0.12509000000E+03 0.  0.
<mgrwt>
<rscale>  2 0.46281325E+03</rscale>
<asrwt>0</asrwt>
<pdfrwt beam="1">  1       21 0.15122531E-01 0.46281325E+03</pdfrwt>
<pdfrwt beam="2">  1       21 0.76578926E-01 0.46281325E+03</pdfrwt>
<totfact> 0.53850490E+04</totfact>
</mgrwt>
</event>
<event>
 7    0  0.4752811E-002  0.4550634E+03  0.7546771E-02  0.1026223E+00
         21   -1    0    0  502  501  0.00000000000E+00  0.00000000000E+00  0.40888413294E+02  0.40888413294E+02  0.00000000000E+00 0.  1.
         21   -1    0    0  501  502 -0.00000000000E+00 -0.00000000000E+00 -0.12661453332E+04  0.12661453332E+04  0.00000000000E+00 0.  1.
      99926    2    1    2    0    0  0.00000000000E+00 -0.14210854715E-13 -0.12252569199E+04  0.13070337465E+04  0.45506339635E+03 0.  0.
      99925    2    3    3    0    0  0.82771280399E+02 -0.71417252630E+02 -0.85594655747E+03  0.90207799491E+03  0.26296138659E+03 0.  0.
         25    1    4    4    0    0  0.15935360212E+02 -0.66633564216E+02 -0.44798287269E+03  0.47013841569E+03  0.12509000000E+03 0.  0.
         25    1    4    4    0    0  0.66835920187E+02 -0.47836884146E+01 -0.40796368478E+03  0.43193957922E+03  0.12509000000E+03 0.  0.
         25    1    3    3    0    0 -0.82771280399E+02  0.71417252630E+02 -0.36931036242E+03  0.40495575156E+03  0.12509000000E+03 0.  0.
<mgrwt>
<rscale>  2 0.45506340E+03</rscale>
<asrwt>0</asrwt>
<pdfrwt beam="1">  1       21 0.60130026E-02 0.45506340E+03</pdfrwt>
<pdfrwt beam="2">  1       21 0.18619782E+00 0.45506340E+03</pdfrwt>
<totfact> 0.28896843E+04</totfact>
</mgrwt>
</event>
<event>
 7    0  0.4752811E-002  0.4917426E+03  0.7546771E-02  0.1015957E+00
         21   -1    0    0  502  501  0.00000000000E+00  0.00000000000E+00  0.53511369750E+02  0.53511369750E+02  0.00000000000E+00 0. -1.
         21   -1    0    0  501  502 -0.00000000000E+00 -0.00000000000E+00 -0.11297168119E+04  0.11297168119E+04  0.00000000000E+00 0. -1.
      99926    2    1    2    0    0  0.00000000000E+00  0.00000000000E+00 -0.10762054422E+04  0.11832281817E+04  0.49174259135E+03 0.  0.
      99925    2    3    3    0    0  0.10501795346E+03 -0.26799528965E+02 -0.42507419629E+03  0.51139011132E+03  0.26283985297E+03 0.  0.
         25    1    4    4    0    0  0.18884551075E+02  0.22595208882E+01 -0.22953269693E+03  0.26209635397E+03  0.12509000000E+03 0.  0.
         25    1    4    4    0    0  0.86133402389E+02 -0.29059049853E+02 -0.19554149936E+03  0.24929375736E+03  0.12509000000E+03 0.  0.
         25    1    3    3    0    0 -0.10501795346E+03  0.26799528965E+02 -0.65113124588E+03  0.67183807034E+03  0.12509000000E+03 0.  0.
<mgrwt>
<rscale>  2 0.49174259E+03</rscale>
<asrwt>0</asrwt>
<pdfrwt beam="1">  1       21 0.78693190E-02 0.49174259E+03</pdfrwt>
<pdfrwt beam="2">  1       21 0.16613483E+00 0.49174259E+03</pdfrwt>
<totfact> 0.24795802E+04</totfact>
</mgrwt>
</event>
<event>
 7    0  0.4752811E-002  0.4752077E+03  0.7546771E-02  0.1020461E+00
         21   -1    0    0  502  501  0.00000000000E+00  0.00000000000E+00  0.30292424986E+03  0.30292424986E+03  0.00000000000E+00 0. -1.
         21   -1    0    0  501  502 -0.00000000000E+00 -0.00000000000E+00 -0.18636865337E+03  0.18636865337E+03  0.00000000000E+00 0. -1.
      99926    2    1    2    0    0 -0.71054273576E-14 -0.14210854715E-13  0.11655559650E+03  0.48929290323E+03  0.47520767889E+03 0.  0.
      99925    2    3    3    0    0  0.58691389517E+02  0.11366085258E+03  0.42146474199E+02  0.29552062917E+03  0.26304495502E+03 0.  0.
         25    1    4    4    0    0  0.52479943042E+02  0.29396780680E+02  0.40389247489E+02  0.14455834306E+03  0.12509000000E+03 0.  0.
         25    1    4    4    0    0  0.62114464748E+01  0.84264071902E+02  0.17572267103E+01  0.15096228611E+03  0.12509000000E+03 0.  0.
         25    1    3    3    0    0 -0.58691389517E+02 -0.11366085258E+03  0.74409122299E+02  0.19377227406E+03  0.12509000000E+03 0.  0.
<mgrwt>
<rscale>  2 0.47520768E+03</rscale>
<asrwt>0</asrwt>
<pdfrwt beam="1">  1       21 0.44547684E-01 0.47520768E+03</pdfrwt>
<pdfrwt beam="2">  1       21 0.27407155E-01 0.47520768E+03</pdfrwt>
<totfact> 0.56422271E+04</totfact>
</mgrwt>
</event>
<event>
 7    0  0.4752811E-002  0.4589545E+03  0.7546771E-02  0.1025085E+00
         21   -1    0    0  502  501  0.00000000000E+00  0.00000000000E+00  0.39432419307E+02  0.39432419307E+02  0.00000000000E+00 0. -1.
         21   -1    0    0  501  502 -0.00000000000E+00 -0.00000000000E+00 -0.13354443124E+04  0.13354443124E+04  0.00000000000E+00 0. -1.
      99926    2    1    2    0    0  0.00000000000E+00  0.35527136788E-14 -0.12960118931E+04  0.13748767317E+04  0.45895446435E+03 0.  0.
      99925    2    3    3    0    0 -0.85539941108E+02 -0.20531825619E+02 -0.10430967533E+04  0.10793226530E+04  0.26295991177E+03 0.  0.
         25    1    4    4    0    0 -0.26637588330E+02  0.16886158771E+02 -0.39295714354E+03  0.41359101565E+03  0.12509000000E+03 0.  0.
         25    1    4    4    0    0 -0.58902352777E+02 -0.37417984391E+02 -0.65013960978E+03  0.66573163739E+03  0.12509000000E+03 0.  0.
         25    1    3    3    0    0  0.85539941108E+02  0.20531825619E+02 -0.25291513978E+03  0.29555407867E+03  0.12509000000E+03 0.  0.
<mgrwt>
<rscale>  2 0.45895446E+03</rscale>
<asrwt>0</asrwt>
<pdfrwt beam="1">  1       21 0.57988864E-02 0.45895446E+03</pdfrwt>
<pdfrwt beam="2">  1       21 0.19638883E+00 0.45895446E+03</pdfrwt>
<totfact> 0.26194879E+04</totfact>
</mgrwt>
</event>
<event>
 7    0  0.4752811E-002  0.4576221E+03  0.7546771E-02  0.1025473E+00
         21   -1    0    0  502  501  0.00000000000E+00  0.00000000000E+00  0.25975510495E+03  0.25975510495E+03  0.00000000000E+00 0. -1.
         21   -1    0    0  501  502 -0.00000000000E+00 -0.00000000000E+00 -0.20155327388E+03  0.20155327388E+03  0.00000000000E+00 0. -1.
      99926    2    1    2    0    0  0.00000000000E+00  0.00000000000E+00  0.58201831070E+02  0.46130837883E+03  0.45762207906E+03 0.  0.
      99925    2    3    3    0    0  0.38910210916E+02 -0.97412368189E+02  0.85524055596E+02  0.29578742535E+03  0.26300696363E+03 0.  0.
         25    1    4    4    0    0  0.15541542766E+02 -0.91437738578E+02  0.44716469107E+02  0.16201688275E+03  0.12509000000E+03 0.  0.
         25    1    3    3    0    0 -0.38910210916E+02  0.97412368189E+02 -0.27322224526E+02  0.16552095349E+03  0.12509000000E+03 0.  0.
         25    1    4    4    0    0  0.23368668151E+02 -0.59746296111E+01  0.40807586489E+02  0.13377054259E+03  0.12509000000E+03 0.  0.
<mgrwt>
<rscale>  2 0.45762208E+03</rscale>
<asrwt>0</asrwt>
<pdfrwt beam="1">  1       21 0.38199280E-01 0.45762208E+03</pdfrwt>
<pdfrwt beam="2">  1       21 0.29640187E-01 0.45762208E+03</pdfrwt>
<totfact> 0.66680022E+04</totfact>
</mgrwt>
</event>
<event>
 7    0  0.4752811E-002  0.4660311E+03  0.7546771E-02  0.1023046E+00
         21   -1    0    0  502  501  0.00000000000E+00  0.00000000000E+00  0.51149689706E+03  0.51149689706E+03  0.00000000000E+00 0.  1.
         21   -1    0    0  501  502 -0.00000000000E+00 -0.00000000000E+00 -0.10615168351E+03  0.10615168351E+03  0.00000000000E+00 0.  1.
      99926    2    1    2    0    0  0.71054273576E-14  0.00000000000E+00  0.40534521355E+03  0.61764858057E+03  0.46603114374E+03 0.  0.
      99925    2    3    3    0    0  0.61579433654E+02 -0.44358107644E+02  0.38141812598E+03  0.46939311868E+03  0.26285061284E+03 0.  0.
         25    1    3    3    0    0 -0.61579433654E+02  0.44358107644E+02  0.23927087571E+02  0.14825546190E+03  0.12509000000E+03 0.  0.
         25    1    4    4    0    0 -0.77327385209E+01 -0.10358101771E+02  0.19422568141E+03  0.23138325120E+03  0.12509000000E+03 0.  0.
         25    1    4    4    0    0  0.69312172175E+02 -0.34000005873E+02  0.18719244457E+03  0.23800986748E+03  0.12509000000E+03 0.  0.
<mgrwt>
<rscale>  2 0.46603114E+03</rscale>
<asrwt>0</asrwt>
<pdfrwt beam="1">  1       21 0.75220131E-01 0.46603114E+03</pdfrwt>
<pdfrwt beam="2">  1       21 0.15610542E-01 0.46603114E+03</pdfrwt>
<totfact> 0.52848071E+04</totfact>
</mgrwt>
</event>
<event>
 7    0  0.4752811E-002  0.4561629E+03  0.7546771E-02  0.1025900E+00
         21   -1    0    0  502  501  0.00000000000E+00  0.00000000000E+00  0.35246017116E+03  0.35246017116E+03  0.00000000000E+00 0. -1.
         21   -1    0    0  501  502 -0.00000000000E+00 -0.00000000000E+00 -0.14759436895E+03  0.14759436895E+03  0.00000000000E+00 0. -1.
      99926    2    1    2    0    0 -0.71054273576E-14  0.00000000000E+00  0.20486580221E+03  0.50005454011E+03  0.45616285050E+03 0.  0.
      99925    2    3    3    0    0 -0.53680870538E+02  0.74495797231E+02  0.20331360360E+03  0.34487342951E+03  0.26300190362E+03 0.  0.
         25    1    3    3    0    0  0.53680870538E+02 -0.74495797231E+02  0.15521986015E+01  0.15518111060E+03  0.12509000000E+03 0.  0.
         25    1    4    4    0    0 -0.57343645224E+02  0.19205773187E+02  0.77972334082E+02  0.15932466336E+03  0.12509000000E+03 0.  0.
         25    1    4    4    0    0  0.36627746860E+01  0.55290024044E+02  0.12534126952E+03  0.18554876616E+03  0.12509000000E+03 0.  0.
<mgrwt>
<rscale>  2 0.45616285E+03</rscale>
<asrwt>0</asrwt>
<pdfrwt beam="1">  1       21 0.51832378E-01 0.45616285E+03</pdfrwt>
<pdfrwt beam="2">  1       21 0.21705054E-01 0.45616285E+03</pdfrwt>
<totfact> 0.64667826E+04</totfact>
</mgrwt>
</event>
<event>
 7    0  0.4752811E-002  0.4555111E+03  0.7546771E-02  0.1026091E+00
         21   -1    0    0  502  501  0.00000000000E+00  0.00000000000E+00  0.20645741642E+03  0.20645741642E+03  0.00000000000E+00 0.  1.
         21   -1    0    0  501  502 -0.00000000000E+00 -0.00000000000E+00 -0.25125080963E+03  0.25125080963E+03  0.00000000000E+00 0.  1.
      99926    2    1    2    0    0  0.35527136788E-14 -0.71054273576E-14 -0.44793393213E+02  0.45770822605E+03  0.45551111086E+03 0.  0.
      99925    2    3    3    0    0 -0.15449104590E+02  0.45006806079E+02  0.75501657641E+02  0.27775630251E+03  0.26302808947E+03 0.  0.
         25    1    4    4    0    0  0.30420525376E+02  0.11074890129E+02  0.45868697256E+02  0.13711129437E+03  0.12509000000E+03 0.  0.
         25    1    4    4    0    0 -0.45869629966E+02  0.33931915950E+02  0.29632960385E+02  0.14064500814E+03  0.12509000000E+03 0.  0.
         25    1    3    3    0    0  0.15449104590E+02 -0.45006806079E+02 -0.12029505085E+03  0.17995192354E+03  0.12509000000E+03 0.  0.
<mgrwt>
<rscale>  2 0.45551111E+03</rscale>
<asrwt>0</asrwt>
<pdfrwt beam="1">  1       21 0.30361385E-01 0.45551111E+03</pdfrwt>
<pdfrwt beam="2">  1       21 0.36948649E-01 0.45551111E+03</pdfrwt>
<totfact> 0.68069832E+04</totfact>
</mgrwt>
</event>
<event>
 7    0  0.4752811E-002  0.4560571E+03  0.7546771E-02  0.1025931E+00
         21   -1    0    0  502  501  0.00000000000E+00  0.00000000000E+00  0.51816593995E+03  0.51816593995E+03  0.00000000000E+00 0.  1.
         21   -1    0    0  501  502 -0.00000000000E+00 -0.00000000000E+00 -0.10034820608E+03  0.10034820608E+03  0.00000000000E+00 0.  1.
      99926    2    1    2    0    0  0.00000000000E+00  0.00000000000E+00  0.41781773387E+03  0.61851414603E+03  0.45605711277E+03 0.  0.
      99925    2    3    3    0    0 -0.75724114641E+02  0.84567522092E+02  0.27720340495E+03  0.39872855750E+03  0.26316710948E+03 0.  0.
         25    1    4    4    0    0 -0.57007482698E+02  0.11055329528E+02  0.16031880483E+03  0.21147505923E+03  0.12509000000E+03 0.  0.
         25    1    3    3    0    0  0.75724114641E+02 -0.84567522092E+02  0.14061432892E+03  0.21978558853E+03  0.12509000000E+03 0.  0.
         25    1    4    4    0    0 -0.18716631943E+02  0.73512192564E+02  0.11688460012E+03  0.18725349827E+03  0.12509000000E+03 0.  0.
<mgrwt>
<rscale>  2 0.45605711E+03</rscale>
<asrwt>0</asrwt>
<pdfrwt beam="1">  1       21 0.76200872E-01 0.45605711E+03</pdfrwt>
<pdfrwt beam="2">  1       21 0.14757089E-01 0.45605711E+03</pdfrwt>
<totfact> 0.57074953E+04</totfact>
</mgrwt>
</event>
<event>
 7    0  0.4752811E-002  0.4501726E+03  0.7546771E-02  0.1027671E+00
         21   -1    0    0  502  501  0.00000000000E+00  0.00000000000E+00  0.16289519724E+03  0.16289519724E+03  0.00000000000E+00 0. -1.
         21   -1    0    0  501  502 -0.00000000000E+00 -0.00000000000E+00 -0.31102116035E+03  0.31102116035E+03  0.00000000000E+00 0. -1.
      99926    2    1    2    0    0 -0.14210854715E-13 -0.17763568394E-14 -0.14812596311E+03  0.47391635759E+03  0.45017264804E+03 0.  0.
      99925    2    3    3    0    0 -0.72216670035E+02  0.15911193587E+02 -0.99524776553E+01  0.27339744652E+03  0.26301843745E+03 0.  0.
         25    1    4    4    0    0 -0.47578831891E+02  0.43205685731E+02  0.12138150613E+02  0.14115707323E+03  0.12509000000E+03 0.  0.
         25    1    3    3    0    0  0.72216670035E+02 -0.15911193587E+02 -0.13817348545E+03  0.20051891107E+03  0.12509000000E+03 0.  0.
         25    1    4    4    0    0 -0.24637838144E+02 -0.27294492144E+02 -0.22090628268E+02  0.13224037329E+03  0.12509000000E+03 0.  0.
<mgrwt>
<rscale>  2 0.45017265E+03</rscale>
<asrwt>0</asrwt>
<pdfrwt beam="1">  1       21 0.23955177E-01 0.45017265E+03</pdfrwt>
<pdfrwt beam="2">  1       21 0.45738405E-01 0.45017265E+03</pdfrwt>
<totfact> 0.69781058E+04</totfact>
</mgrwt>
</event>
<event>
 7    0  0.4752811E-002  0.3997966E+03  0.7546771E-02  0.1043850E+00
         21   -1    0    0  502  501  0.00000000000E+00  0.00000000000E+00  0.23197149706E+03  0.23197149706E+03  0.00000000000E+00 0. -1.
         21   -1    0    0  501  502 -0.00000000000E+00 -0.00000000000E+00 -0.17225967330E+03  0.17225967330E+03  0.00000000000E+00 0. -1.
      99926    2    1    2    0    0  0.00000000000E+00  0.35527136788E-14  0.59711823758E+02  0.40423117036E+03  0.39979661978E+03 0.  0.
      99925    2    3    3    0    0 -0.35487058301E+02 -0.25606749664E+02  0.28300251470E+02  0.26803560542E+03  0.26292041496E+03 0.  0.
         25    1    4    4    0    0 -0.11531723696E+02  0.23624798119E+02 -0.33574677514E+01  0.12786669788E+03  0.12509000000E+03 0.  0.
         25    1    3    3    0    0  0.35487058301E+02  0.25606749664E+02  0.31411572288E+02  0.13619556494E+03  0.12509000000E+03 0.  0.
         25    1    4    4    0    0 -0.23955334605E+02 -0.49231547783E+02  0.31657719221E+02  0.14016890753E+03  0.12509000000E+03 0.  0.
<mgrwt>
<rscale>  2 0.39979662E+03</rscale>
<asrwt>0</asrwt>
<pdfrwt beam="1">  1       21 0.34113456E-01 0.39979662E+03</pdfrwt>
<pdfrwt beam="2">  1       21 0.25332305E-01 0.39979662E+03</pdfrwt>
<totfact> 0.11552163E+05</totfact>
</mgrwt>
</event>
<event>
 7    0  0.4752811E-002  0.4525747E+03  0.7546771E-02  0.1026957E+00
         21   -1    0    0  502  501  0.00000000000E+00  0.00000000000E+00  0.23716310334E+03  0.23716310334E+03  0.00000000000E+00 0.  1.
         21   -1    0    0  501  502 -0.00000000000E+00 -0.00000000000E+00 -0.21591036451E+03  0.21591036451E+03  0.00000000000E+00 0.  1.
      99926    2    1    2    0    0  0.53290705182E-14 -0.17763568394E-14  0.21252738833E+02  0.45307346786E+03  0.45257473236E+03 0.  0.
      99925    2    3    3    0    0 -0.10408354600E+02  0.11975048376E+02 -0.96423419312E+02  0.28060050787E+03  0.26303504253E+03 0.  0.
         25    1    4    4    0    0 -0.35567220707E+02  0.30038585853E+02 -0.62275012767E+02  0.14728553610E+03  0.12509000000E+03 0.  0.
         25    1    3    3    0    0  0.10408354600E+02 -0.11975048376E+02  0.11767615814E+03  0.17247295998E+03  0.12509000000E+03 0.  0.
         25    1    4    4    0    0  0.25158866107E+02 -0.18063537476E+02 -0.34148406545E+02  0.13331497178E+03  0.12509000000E+03 0.  0.
<mgrwt>
<rscale>  2 0.45257473E+03</rscale>
<asrwt>0</asrwt>
<pdfrwt beam="1">  1       21 0.34876927E-01 0.45257473E+03</pdfrwt>
<pdfrwt beam="2">  1       21 0.31751524E-01 0.45257473E+03</pdfrwt>
<totfact> 0.70032598E+04</totfact>
</mgrwt>
</event>
<event>
 7    0  0.4752811E-002  0.4514743E+03  0.7546771E-02  0.1027283E+00
         21   -1    0    0  502  501  0.00000000000E+00  0.00000000000E+00  0.17846340375E+03  0.17846340375E+03  0.00000000000E+00 0. -1.
         21   -1    0    0  501  502 -0.00000000000E+00 -0.00000000000E+00 -0.28553334367E+03  0.28553334367E+03  0.00000000000E+00 0. -1.
      99926    2    1    2    0    0  0.71054273576E-14 -0.14210854715E-13 -0.10706993992E+03  0.46399674742E+03  0.45147426237E+03 0.  0.
      99925    2    3    3    0    0 -0.46158096983E+02  0.74155758308E+02 -0.13607821473E+03  0.30869499433E+03  0.26295564757E+03 0.  0.
         25    1    4    4    0    0 -0.42541426917E+02  0.41094012499E+01 -0.49371962665E+02  0.14110903224E+03  0.12509000000E+03 0.  0.
         25    1    3    3    0    0  0.46158096983E+02 -0.74155758308E+02  0.29008274813E+02  0.15530175310E+03  0.12509000000E+03 0.  0.
         25    1    4    4    0    0 -0.36166700652E+01  0.70046357058E+02 -0.86706252070E+02  0.16758596208E+03  0.12509000000E+03 0.  0.
<mgrwt>
<rscale>  2 0.45147426E+03</rscale>
<asrwt>0</asrwt>
<pdfrwt beam="1">  1       21 0.26244618E-01 0.45147426E+03</pdfrwt>
<pdfrwt beam="2">  1       21 0.41990197E-01 0.45147426E+03</pdfrwt>
<totfact> 0.69817266E+04</totfact>
</mgrwt>
</event>
<event>
 7    0  0.4752811E-002  0.4439099E+03  0.7546771E-02  0.1029554E+00
         21   -1    0    0  502  501  0.00000000000E+00  0.00000000000E+00  0.13305859865E+03  0.13305859865E+03  0.00000000000E+00 0.  1.
         21   -1    0    0  501  502 -0.00000000000E+00 -0.00000000000E+00 -0.37024291066E+03  0.37024291066E+03  0.00000000000E+00 0.  1.
      99926    2    1    2    0    0 -0.88817841970E-15  0.14210854715E-13 -0.23718431200E+03  0.50330150931E+03  0.44390991362E+03 0.  0.
      99925    2    3    3    0    0 -0.44715399557E+01 -0.84973928647E+02 -0.86015873118E+02  0.28943246472E+03  0.26292937832E+03 0.  0.
         25    1    4    4    0    0  0.14652001701E+02 -0.43798305573E+01 -0.32498466479E+02  0.13014423726E+03  0.12509000000E+03 0.  0.
         25    1    4    4    0    0 -0.19123541657E+02 -0.80594098090E+02 -0.53517406639E+02  0.15928822746E+03  0.12509000000E+03 0.  0.
         25    1    3    3    0    0  0.44715399557E+01  0.84973928647E+02 -0.15116843888E+03  0.21386904459E+03  0.12509000000E+03 0.  0.
<mgrwt>
<rscale>  2 0.44390991E+03</rscale>
<asrwt>0</asrwt>
<pdfrwt beam="1">  1       21 0.19567441E-01 0.44390991E+03</pdfrwt>
<pdfrwt beam="2">  1       21 0.54447486E-01 0.44390991E+03</pdfrwt>
<totfact> 0.71093540E+04</totfact>
</mgrwt>
</event>
<event>
 7    0  0.4752811E-002  0.4528872E+03  0.7546771E-02  0.1026865E+00
         21   -1    0    0  502  501  0.00000000000E+00  0.00000000000E+00  0.91119726056E+02  0.91119726056E+02  0.00000000000E+00 0.  1.
         21   -1    0    0  501  502 -0.00000000000E+00 -0.00000000000E+00 -0.56273998183E+03  0.56273998183E+03  0.00000000000E+00 0.  1.
      99926    2    1    2    0    0  0.00000000000E+00  0.00000000000E+00 -0.47162025577E+03  0.65385970788E+03  0.45288723976E+03 0.  0.
      99925    2    3    3    0    0  0.10035036325E+03 -0.47661197535E+02 -0.29713204804E+03  0.41212549870E+03  0.26309349583E+03 0.  0.
         25    1    4    4    0    0  0.27087585458E+02 -0.17578405459E+02 -0.18837438027E+03  0.22841881023E+03  0.12509000000E+03 0.  0.
         25    1    3    3    0    0 -0.10035036325E+03  0.47661197535E+02 -0.17448820773E+03  0.24173420919E+03  0.12509000000E+03 0.  0.
         25    1    4    4    0    0  0.73262777790E+02 -0.30082792075E+02 -0.10875766777E+03  0.18370668847E+03  0.12509000000E+03 0.  0.
<mgrwt>
<rscale>  2 0.45288724E+03</rscale>
<asrwt>0</asrwt>
<pdfrwt beam="1">  1       21 0.13399960E-01 0.45288724E+03</pdfrwt>
<pdfrwt beam="2">  1       21 0.82755879E-01 0.45288724E+03</pdfrwt>
<totfact> 0.56413961E+04</totfact>
</mgrwt>
</event>
<event>
 7    0  0.4752811E-002  0.4573104E+03  0.7546771E-02  0.1025564E+00
         21   -1    0    0  502  501  0.00000000000E+00  0.00000000000E+00  0.80422928853E+02  0.80422928853E+02  0.00000000000E+00 0.  1.
         21   -1    0    0  501  502 -0.00000000000E+00 -0.00000000000E+00 -0.65010325011E+03  0.65010325011E+03  0.00000000000E+00 0.  1.
      99926    2    1    2    0    0  0.00000000000E+00  0.00000000000E+00 -0.56968032125E+03  0.73052617896E+03  0.45731043037E+03 0.  0.
      99925    2    3    3    0    0  0.11409957677E+03 -0.96907549399E+01 -0.33407198066E+03  0.44023077354E+03  0.26284295988E+03 0.  0.
         25    1    4    4    0    0  0.71472790769E+02  0.14358570703E+02 -0.22327012190E+03  0.26610446033E+03  0.12509000000E+03 0.  0.
         25    1    3    3    0    0 -0.11409957677E+03  0.96907549399E+01 -0.23560834059E+03  0.29029540542E+03  0.12509000000E+03 0.  0.
         25    1    4    4    0    0  0.42626786000E+02 -0.24049325643E+02 -0.11080185876E+03  0.17412631321E+03  0.12509000000E+03 0.  0.
<mgrwt>
<rscale>  2 0.45731043E+03</rscale>
<asrwt>0</asrwt>
<pdfrwt beam="1">  1       21 0.11826901E-01 0.45731043E+03</pdfrwt>
<pdfrwt beam="2">  1       21 0.95603419E-01 0.45731043E+03</pdfrwt>
<totfact> 0.50355645E+04</totfact>
</mgrwt>
</event>
<event>
 7    0  0.4752811E-002  0.4516770E+03  0.7546771E-02  0.1027223E+00
         21   -1    0    0  502  501  0.00000000000E+00  0.00000000000E+00  0.10691417391E+04  0.10691417391E+04  0.00000000000E+00 0.  1.
         21   -1    0    0  501  502 -0.00000000000E+00 -0.00000000000E+00 -0.47704645131E+02  0.47704645131E+02  0.00000000000E+00 0.  1.
      99926    2    1    2    0    0 -0.17763568394E-14  0.00000000000E+00  0.10214370940E+04  0.11168463843E+04  0.45167699636E+03 0.  0.
      99925    2    3    3    0    0  0.13440070390E+02  0.14731682955E+02  0.37721397627E+03  0.46028824404E+03  0.26301563781E+03 0.  0.
         25    1    4    4    0    0  0.30533005606E+02  0.29955536826E+02  0.15028121595E+03  0.20015381731E+03  0.12509000000E+03 0.  0.
         25    1    3    3    0    0 -0.13440070390E+02 -0.14731682955E+02  0.64422311773E+03  0.65655814023E+03  0.12509000000E+03 0.  0.
         25    1    4    4    0    0 -0.17092935216E+02 -0.15223853871E+02  0.22693276032E+03  0.26013442672E+03  0.12509000000E+03 0.  0.
<mgrwt>
<rscale>  2 0.45167700E+03</rscale>
<asrwt>0</asrwt>
<pdfrwt beam="1">  1       21 0.15722671E+00 0.45167700E+03</pdfrwt>
<pdfrwt beam="2">  1       21 0.70153897E-02 0.45167700E+03</pdfrwt>
<totfact> 0.35827999E+04</totfact>
</mgrwt>
</event>
<event>
 7    0  0.4752811E-002  0.4556449E+03  0.7546771E-02  0.1026052E+00
         21   -1    0    0  502  501  0.00000000000E+00  0.00000000000E+00  0.23599392059E+04  0.23599392059E+04  0.00000000000E+00 0. -1.
         21   -1    0    0  501  502 -0.00000000000E+00 -0.00000000000E+00 -0.21993389609E+02  0.21993389609E+02  0.00000000000E+00 0. -1.
      99926    2    1    2    0    0  0.17763568394E-14  0.00000000000E+00  0.23379458163E+04  0.23819325955E+04  0.45564487228E+03 0.  0.
      99925    2    3    3    0    0  0.98868694858E+01  0.10125253081E+03  0.17370512343E+04  0.17597817842E+04  0.26293556703E+03 0.  0.
         25    1    3    3    0    0 -0.98868694858E+01 -0.10125253081E+03  0.60089458204E+03  0.62215081131E+03  0.12509000000E+03 0.  0.
         25    1    4    4    0    0 -0.12389334001E+02  0.89481822726E+02  0.96359057665E+03  0.97586617920E+03  0.12509000000E+03 0.  0.
         25    1    4    4    0    0  0.22276203487E+02  0.11770708087E+02  0.77346065761E+03  0.78391560501E+03  0.12509000000E+03 0.  0.
<mgrwt>
<rscale>  2 0.45564487E+03</rscale>
<asrwt>0</asrwt>
<pdfrwt beam="1">  1       21 0.34704971E+00 0.45564487E+03</pdfrwt>
<pdfrwt beam="2">  1       21 0.32343236E-02 0.45564487E+03</pdfrwt>
<totfact> 0.83743854E+03</totfact>
</mgrwt>
</event>
<event>
 7    0  0.4752811E-002  0.4592783E+03  0.7546771E-02  0.1024991E+00
         21   -1    0    0  502  501  0.00000000000E+00  0.00000000000E+00  0.88180537970E+03  0.88180537970E+03  0.00000000000E+00 0. -1.
         21   -1    0    0  501  502 -0.00000000000E+00 -0.00000000000E+00 -0.59802461087E+02  0.59802461087E+02  0.00000000000E+00 0. -1.
      99926    2    1    2    0    0  0.00000000000E+00 -0.14210854715E-13  0.82200291861E+03  0.94160784079E+03  0.45927826818E+03 0.  0.
      99925    2    3    3    0    0  0.14693855062E+02  0.68314001279E+02  0.70841812138E+03  0.75876439297E+03  0.26264892383E+03 0.  0.
         25    1    4    4    0    0  0.16818911722E+02  0.38431186930E+02  0.46622163452E+03  0.48453065178E+03  0.12509000000E+03 0.  0.
         25    1    3    3    0    0 -0.14693855062E+02 -0.68314001279E+02  0.11358479723E+03  0.18284344782E+03  0.12509000000E+03 0.  0.
         25    1    4    4    0    0 -0.21250566601E+01  0.29882814349E+02  0.24219648686E+03  0.27423374119E+03  0.12509000000E+03 0.  0.
<mgrwt>
<rscale>  2 0.45927827E+03</rscale>
<asrwt>0</asrwt>
<pdfrwt beam="1">  1       21 0.12967725E+00 0.45927827E+03</pdfrwt>
<pdfrwt beam="2">  1       21 0.87944801E-02 0.45927827E+03</pdfrwt>
<totfact> 0.40123125E+04</totfact>
</mgrwt>
</event>
<event>
 7    0  0.4752811E-002  0.4339670E+03  0.7546771E-02  0.1032614E+00
         21   -1    0    0  502  501  0.00000000000E+00  0.00000000000E+00  0.64010613942E+02  0.64010613942E+02  0.00000000000E+00 0.  1.
         21   -1    0    0  501  502 -0.00000000000E+00 -0.00000000000E+00 -0.73553165686E+03  0.73553165686E+03  0.00000000000E+00 0.  1.
      99926    2    1    2    0    0  0.00000000000E+00 -0.35527136788E-14 -0.67152104292E+03  0.79954227080E+03  0.43396697077E+03 0.  0.
      99925    2    3    3    0    0 -0.80358846431E+02  0.62014639137E+01 -0.34868941644E+03  0.44406545087E+03  0.26289506113E+03 0.  0.
         25    1    3    3    0    0  0.80358846431E+02 -0.62014639137E+01 -0.32283162648E+03  0.35547681993E+03  0.12509000000E+03 0.  0.
         25    1    4    4    0    0 -0.39469694887E+02 -0.30717351109E+02 -0.20877959025E+03  0.24847100008E+03  0.12509000000E+03 0.  0.
         25    1    4    4    0    0 -0.40889151544E+02  0.36918815022E+02 -0.13990982618E+03  0.19559445079E+03  0.12509000000E+03 0.  0.
<mgrwt>
<rscale>  2 0.43396697E+03</rscale>
<asrwt>0</asrwt>
<pdfrwt beam="1">  1       21 0.94133262E-02 0.43396697E+03</pdfrwt>
<pdfrwt beam="2">  1       21 0.10816641E+00 0.43396697E+03</pdfrwt>
<totfact> 0.56561295E+04</totfact>
</mgrwt>
</event>
<event>
 7    0  0.4752811E-002  0.4434898E+03  0.7546771E-02  0.1029681E+00
         21   -1    0    0  502  501  0.00000000000E+00  0.00000000000E+00  0.39820364375E+02  0.39820364375E+02  0.00000000000E+00 0.  1.
         21   -1    0    0  501  502 -0.00000000000E+00 -0.00000000000E+00 -0.12348155586E+04  0.12348155586E+04  0.00000000000E+00 0.  1.
      99926    2    1    2    0    0  0.00000000000E+00  0.71054273576E-14 -0.11949951942E+04  0.12746359230E+04  0.44348982166E+03 0.  0.
      99925    2    3    3    0    0 -0.48270210099E+02 -0.45373217025E+02 -0.98368576052E+03  0.10202977094E+04  0.26264233926E+03 0.  0.
         25    1    4    4    0    0  0.57824356979E+01 -0.38949823876E+02 -0.40291566088E+03  0.42372050131E+03  0.12509000000E+03 0.  0.
         25    1    4    4    0    0 -0.54052645797E+02 -0.64233931488E+01 -0.58077009964E+03  0.59657720811E+03  0.12509000000E+03 0.  0.
         25    1    3    3    0    0  0.48270210099E+02  0.45373217025E+02 -0.21130943371E+03  0.25433821357E+03  0.12509000000E+03 0.  0.
<mgrwt>
<rscale>  2 0.44348982E+03</rscale>
<asrwt>0</asrwt>
<pdfrwt beam="1">  1       21 0.58559351E-02 0.44348982E+03</pdfrwt>
<pdfrwt beam="2">  1       21 0.18159055E+00 0.44348982E+03</pdfrwt>
<totfact> 0.32690867E+04</totfact>
</mgrwt>
</event>
<event>
 7    0  0.4752811E-002  0.4371595E+03  0.7546771E-02  0.1031622E+00
         21   -1    0    0  502  501  0.00000000000E+00  0.00000000000E+00  0.10928495305E+04  0.10928495305E+04  0.00000000000E+00 0.  1.
         21   -1    0    0  501  502 -0.00000000000E+00 -0.00000000000E+00 -0.43717909673E+02  0.43717909673E+02  0.00000000000E+00 0.  1.
      99926    2    1    2    0    0  0.00000000000E+00  0.00000000000E+00  0.10491316208E+04  0.11365674402E+04  0.43715945402E+03 0.  0.
      99925    2    3    3    0    0  0.88586966212E+02 -0.35532591569E+02  0.65591009501E+03  0.71303362557E+03  0.26284726137E+03 0.  0.
         25    1    4    4    0    0  0.45279601109E+02 -0.32964684683E+01  0.22840423197E+03  0.26434278932E+03  0.12509000000E+03 0.  0.
         25    1    3    3    0    0 -0.88586966212E+02  0.35532591569E+02  0.39322152581E+03  0.42353381460E+03  0.12509000000E+03 0.  0.
         25    1    4    4    0    0  0.43307365103E+02 -0.32236123100E+02  0.42750586304E+03  0.44869083625E+03  0.12509000000E+03 0.  0.
<mgrwt>
<rscale>  2 0.43715945E+03</rscale>
<asrwt>0</asrwt>
<pdfrwt beam="1">  1       21 0.16071315E+00 0.43715945E+03</pdfrwt>
<pdfrwt beam="2">  1       21 0.64291051E-02 0.43715945E+03</pdfrwt>
<totfact> 0.39439767E+04</totfact>
</mgrwt>
</event>
<event>
 7    0  0.4752811E-002  0.4557814E+03  0.7546771E-02  0.1026012E+00
         21   -1    0    0  502  501  0.00000000000E+00  0.00000000000E+00  0.91783514018E+02  0.91783514018E+02  0.00000000000E+00 0. -1.
         21   -1    0    0  501  502 -0.00000000000E+00 -0.00000000000E+00 -0.56583330878E+03  0.56583330878E+03  0.00000000000E+00 0. -1.
      99926    2    1    2    0    0  0.17763568394E-14  0.00000000000E+00 -0.47404979476E+03  0.65761682280E+03  0.45578139246E+03 0.  0.
      99925    2    3    3    0    0 -0.15361849239E+02 -0.73119182318E+02 -0.42217488082E+03  0.50295294197E+03  0.26295937065E+03 0.  0.
         25    1    4    4    0    0 -0.46160306362E+02 -0.46014783978E+02 -0.23591672761E+03  0.27486786770E+03  0.12509000000E+03 0.  0.
         25    1    4    4    0    0  0.30798457123E+02 -0.27104398340E+02 -0.18625815321E+03  0.22808507428E+03  0.12509000000E+03 0.  0.
         25    1    3    3    0    0  0.15361849239E+02  0.73119182318E+02 -0.51874913948E+02  0.15466388083E+03  0.12509000000E+03 0.  0.
<mgrwt>
<rscale>  2 0.45578139E+03</rscale>
<asrwt>0</asrwt>
<pdfrwt beam="1">  1       21 0.13497576E-01 0.45578139E+03</pdfrwt>
<pdfrwt beam="2">  1       21 0.83210776E-01 0.45578139E+03</pdfrwt>
<totfact> 0.54925408E+04</totfact>
</mgrwt>
</event>
<event>
 7    0  0.4752811E-002  0.4350531E+03  0.7546771E-02  0.1032276E+00
         21   -1    0    0  502  501  0.00000000000E+00  0.00000000000E+00  0.47898294195E+03  0.47898294195E+03  0.00000000000E+00 0. -1.
         21   -1    0    0  501  502 -0.00000000000E+00 -0.00000000000E+00 -0.98788087095E+02  0.98788087095E+02  0.00000000000E+00 0. -1.
      99926    2    1    2    0    0 -0.14210854715E-13 -0.35527136788E-14  0.38019485485E+03  0.57777102904E+03  0.43505313968E+03 0.  0.
      99925    2    3    3    0    0  0.89199019192E+02  0.26863275465E+02  0.24104308379E+03  0.36875231198E+03  0.26305588523E+03 0.  0.
         25    1    3    3    0    0 -0.89199019192E+02 -0.26863275465E+02  0.13915177106E+03  0.20901871707E+03  0.12509000000E+03 0.  0.
         25    1    4    4    0    0  0.84623198492E+02  0.13591948587E+02  0.11224439453E+03  0.18865878986E+03  0.12509000000E+03 0.  0.
         25    1    4    4    0    0  0.45758207001E+01  0.13271326878E+02  0.12879868926E+03  0.18009352211E+03  0.12509000000E+03 0.  0.
<mgrwt>
<rscale>  2 0.43505314E+03</rscale>
<asrwt>0</asrwt>
<pdfrwt beam="1">  1       21 0.70438667E-01 0.43505314E+03</pdfrwt>
<pdfrwt beam="2">  1       21 0.14527660E-01 0.43505314E+03</pdfrwt>
<totfact> 0.70552536E+04</totfact>
</mgrwt>
</event>
<event>
 7    0  0.4752811E-002  0.4589866E+03  0.7546771E-02  0.1025076E+00
         21   -1    0    0  502  501  0.00000000000E+00  0.00000000000E+00  0.24795929875E+03  0.24795929875E+03  0.00000000000E+00 0.  1.
         21   -1    0    0  501  502 -0.00000000000E+00 -0.00000000000E+00 -0.21240247790E+03  0.21240247790E+03  0.00000000000E+00 0.  1.
      99926    2    1    2    0    0  0.00000000000E+00  0.00000000000E+00  0.35556820848E+02  0.46036177665E+03  0.45898657703E+03 0.  0.
      99925    2    3    3    0    0  0.89700987138E+02  0.30653612274E+02  0.90453787621E+02  0.29408761720E+03  0.26328639892E+03 0.  0.
         25    1    3    3    0    0 -0.89700987138E+02 -0.30653612274E+02 -0.54896966773E+02  0.16627415945E+03  0.12509000000E+03 0.  0.
         25    1    4    4    0    0  0.54648003554E+02  0.37919875640E+01  0.85947618210E+02  0.16135453089E+03  0.12509000000E+03 0.  0.
         25    1    4    4    0    0  0.35052983584E+02  0.26861624710E+02  0.45061694106E+01  0.13273308632E+03  0.12509000000E+03 0.  0.
<mgrwt>
<rscale>  2 0.45898658E+03</rscale>
<asrwt>0</asrwt>
<pdfrwt beam="1">  1       21 0.36464603E-01 0.45898658E+03</pdfrwt>
<pdfrwt beam="2">  1       21 0.31235658E-01 0.45898658E+03</pdfrwt>
<totfact> 0.66029423E+04</totfact>
</mgrwt>
</event>
<event>
 7    0  0.4752811E-002  0.4652199E+03  0.7546771E-02  0.1023278E+00
         21   -1    0    0  502  501  0.00000000000E+00  0.00000000000E+00  0.17280560007E+03  0.17280560007E+03  0.00000000000E+00 0. -1.
         21   -1    0    0  501  502 -0.00000000000E+00 -0.00000000000E+00 -0.31311135251E+03  0.31311135251E+03  0.00000000000E+00 0. -1.
      99926    2    1    2    0    0  0.00000000000E+00  0.00000000000E+00 -0.14030575244E+03  0.48591695258E+03  0.46521992717E+03 0.  0.
      99925    2    3    3    0    0  0.46529664541E+02 -0.11015502278E+03 -0.11496521025E+03  0.31102044059E+03  0.26309233393E+03 0.  0.
         25    1    4    4    0    0  0.48762499426E+02 -0.35531520593E+02 -0.83291044924E+02  0.16194189257E+03  0.12509000000E+03 0.  0.
         25    1    3    3    0    0 -0.46529664541E+02  0.11015502278E+03 -0.25340542186E+02  0.17489651199E+03  0.12509000000E+03 0.  0.
         25    1    4    4    0    0 -0.22328348847E+01 -0.74623502190E+02 -0.31674165330E+02  0.14907854802E+03  0.12509000000E+03 0.  0.
<mgrwt>
<rscale>  2 0.46521993E+03</rscale>
<asrwt>0</asrwt>
<pdfrwt beam="1">  1       21 0.25412588E-01 0.46521993E+03</pdfrwt>
<pdfrwt beam="2">  1       21 0.46045787E-01 0.46521993E+03</pdfrwt>
<totfact> 0.61158132E+04</totfact>
</mgrwt>
</event>
<event>
 7    0  0.4752811E-002  0.4512896E+03  0.7546771E-02  0.1027338E+00
         21   -1    0    0  502  501  0.00000000000E+00  0.00000000000E+00  0.35834898584E+03  0.35834898584E+03  0.00000000000E+00 0.  1.
         21   -1    0    0  501  502 -0.00000000000E+00 -0.00000000000E+00 -0.14208377942E+03  0.14208377942E+03  0.00000000000E+00 0.  1.
      99926    2    1    2    0    0  0.00000000000E+00  0.00000000000E+00  0.21626520642E+03  0.50043276526E+03  0.45128961105E+03 0.  0.
      99925    2    3    3    0    0 -0.52131441424E+02 -0.94493351062E+02  0.15746657808E+03  0.32507180218E+03  0.26311456208E+03 0.  0.
         25    1    3    3    0    0  0.52131441424E+02  0.94493351062E+02  0.58798628335E+02  0.17536096308E+03  0.12509000000E+03 0.  0.
         25    1    4    4    0    0 -0.67483950196E+02 -0.52120044490E+02  0.86501490513E+02  0.17435767414E+03  0.12509000000E+03 0.  0.
         25    1    4    4    0    0  0.15352508773E+02 -0.42373306572E+02  0.70965087572E+02  0.15071412804E+03  0.12509000000E+03 0.  0.
<mgrwt>
<rscale>  2 0.45128961E+03</rscale>
<asrwt>0</asrwt>
<pdfrwt beam="1">  1       21 0.52698380E-01 0.45128961E+03</pdfrwt>
<pdfrwt beam="2">  1       21 0.20894673E-01 0.45128961E+03</pdfrwt>
<totfact> 0.67197668E+04</totfact>
</mgrwt>
</event>
<event>
 7    0  0.4752811E-002  0.4569744E+03  0.7546771E-02  0.1025662E+00
         21   -1    0    0  502  501  0.00000000000E+00  0.00000000000E+00  0.24999068621E+03  0.24999068621E+03  0.00000000000E+00 0.  1.
         21   -1    0    0  501  502 -0.00000000000E+00 -0.00000000000E+00 -0.20883339627E+03  0.20883339627E+03  0.00000000000E+00 0.  1.
      99926    2    1    2    0    0  0.00000000000E+00 -0.35527136788E-14  0.41157289940E+02  0.45882408247E+03  0.45697441520E+03 0.  0.
      99925    2    3    3    0    0 -0.61387264718E+02  0.31706870293E+02  0.11813464387E+03  0.29650728417E+03  0.26303432018E+03 0.  0.
         25    1    3    3    0    0  0.61387264718E+02 -0.31706870293E+02 -0.76977353927E+02  0.16231679830E+03  0.12509000000E+03 0.  0.
         25    1    4    4    0    0 -0.16820273592E+02  0.53703814269E+02  0.65159217705E+02  0.15185602728E+03  0.12509000000E+03 0.  0.
         25    1    4    4    0    0 -0.44566991126E+02 -0.21996943976E+02  0.52975426162E+02  0.14465125689E+03  0.12509000000E+03 0.  0.
<mgrwt>
<rscale>  2 0.45697442E+03</rscale>
<asrwt>0</asrwt>
<pdfrwt beam="1">  1       21 0.36763336E-01 0.45697442E+03</pdfrwt>
<pdfrwt beam="2">  1       21 0.30710794E-01 0.45697442E+03</pdfrwt>
<totfact> 0.67201671E+04</totfact>
</mgrwt>
</event>
<event>
 7    0  0.4752811E-002  0.4542838E+03  0.7546771E-02  0.1026452E+00
         21   -1    0    0  502  501  0.00000000000E+00  0.00000000000E+00  0.29615283752E+03  0.29615283752E+03  0.00000000000E+00 0.  1.
         21   -1    0    0  501  502 -0.00000000000E+00 -0.00000000000E+00 -0.17421224256E+03  0.17421224256E+03  0.00000000000E+00 0.  1.
      99926    2    1    2    0    0  0.00000000000E+00  0.00000000000E+00  0.12194059496E+03  0.47036508008E+03  0.45428383183E+03 0.  0.
      99925    2    3    3    0    0 -0.20798107107E+02  0.94112230295E+02  0.16774692417E+02  0.28063619902E+03  0.26303158127E+03 0.  0.
         25    1    4    4    0    0  0.26421158687E+02  0.57626278429E+02 -0.50825766718E+01  0.14032892174E+03  0.12509000000E+03 0.  0.
         25    1    4    4    0    0 -0.47219265794E+02  0.36485951865E+02  0.21857269089E+02  0.14030727728E+03  0.12509000000E+03 0.  0.
         25    1    3    3    0    0  0.20798107107E+02 -0.94112230295E+02  0.10516590254E+03  0.18972888106E+03  0.12509000000E+03 0.  0.
<mgrwt>
<rscale>  2 0.45428383E+03</rscale>
<asrwt>0</asrwt>
<pdfrwt beam="1">  1       21 0.43551888E-01 0.45428383E+03</pdfrwt>
<pdfrwt beam="2">  1       21 0.25619448E-01 0.45428383E+03</pdfrwt>
<totfact> 0.67792921E+04</totfact>
</mgrwt>
</event>
<event>
 7    0  0.4752811E-002  0.4548648E+03  0.7546771E-02  0.1026281E+00
         21   -1    0    0  502  501  0.00000000000E+00  0.00000000000E+00  0.18938791353E+03  0.18938791353E+03  0.00000000000E+00 0. -1.
         21   -1    0    0  501  502 -0.00000000000E+00 -0.00000000000E+00 -0.27311926357E+03  0.27311926357E+03  0.00000000000E+00 0. -1.
      99926    2    1    2    0    0  0.71054273576E-14  0.00000000000E+00 -0.83731350039E+02  0.46250717710E+03  0.45486476000E+03 0.  0.
      99925    2    3    3    0    0  0.49911077420E+02 -0.27740569791E+02 -0.15193573065E+03  0.30901450465E+03  0.26295407009E+03 0.  0.
         25    1    3    3    0    0 -0.49911077420E+02  0.27740569791E+02  0.68204380614E+02  0.15349267245E+03  0.12509000000E+03 0.  0.
         25    1    4    4    0    0  0.55597516972E+02  0.91471790997E+01 -0.93284347601E+02  0.16590428682E+03  0.12509000000E+03 0.  0.
         25    1    4    4    0    0 -0.56864395522E+01 -0.36887748891E+02 -0.58651383051E+02  0.14311021783E+03  0.12509000000E+03 0.  0.
<mgrwt>
<rscale>  2 0.45486476E+03</rscale>
<asrwt>0</asrwt>
<pdfrwt beam="1">  1       21 0.27851164E-01 0.45486476E+03</pdfrwt>
<pdfrwt beam="2">  1       21 0.40164597E-01 0.45486476E+03</pdfrwt>
<totfact> 0.68068737E+04</totfact>
</mgrwt>
</event>
<event>
 6    0  0.4752811E-002  0.4568195E+03  0.7546771E-02  0.1025708E+00
         21   -1    0    0  502  501  0.00000000000E+00  0.00000000000E+00  0.47745488415E+03  0.47745488415E+03  0.00000000000E+00 0. -1.
         21   -1    0    0  501  502 -0.00000000000E+00 -0.00000000000E+00 -0.10926897284E+03  0.10926897284E+03  0.00000000000E+00 0. -1.
      99926    2    1    2    0    0  0.00000000000E+00  0.00000000000E+00  0.36818591130E+03  0.58672385699E+03  0.45681946005E+03 0.  0.
         25    1    3    3    0    0 -0.38876671232E+02 -0.17536023979E+02  0.26731803683E+02  0.13483695759E+03  0.12509000000E+03 0.  0.
         25    1    3    3    0    0 -0.36762843936E+02 -0.39005069467E+02  0.12606326817E+03  0.18550568137E+03  0.12509000000E+03 0.  0.
         25    1    3    3    0    0  0.75639515168E+02  0.56541093446E+02  0.21539083945E+03  0.26638121803E+03  0.12509000000E+03 0.  0.
<mgrwt>
<rscale>  2 0.45681946E+03</rscale>
<asrwt>0</asrwt>
<pdfrwt beam="1">  1       21 0.70213953E-01 0.45681946E+03</pdfrwt>
<pdfrwt beam="2">  1       21 0.16068967E-01 0.45681946E+03</pdfrwt>
<totfact> 0.58654869E+04</totfact>
</mgrwt>
</event>
<event>
 7    0  0.4752811E-002  0.4584962E+03  0.7546771E-02  0.1025218E+00
         21   -1    0    0  502  501  0.00000000000E+00  0.00000000000E+00  0.43363872298E+02  0.43363872298E+02  0.00000000000E+00 0. -1.
         21   -1    0    0  501  502 -0.00000000000E+00 -0.00000000000E+00 -0.12119464679E+04  0.12119464679E+04  0.00000000000E+00 0. -1.
      99926    2    1    2    0    0 -0.35527136788E-14  0.00000000000E+00 -0.11685825956E+04  0.12553103402E+04  0.45849620224E+03 0.  0.
      99925    2    3    3    0    0  0.24911090096E+02 -0.10875488146E+03 -0.82409119712E+03  0.87220458668E+03  0.26299496802E+03 0.  0.
         25    1    4    4    0    0  0.36456496067E+02 -0.81575552612E+02 -0.51506292377E+03  0.53751369325E+03  0.12509000000E+03 0.  0.
         25    1    4    4    0    0 -0.11545405971E+02 -0.27179328851E+02 -0.30902827335E+03  0.33469089343E+03  0.12509000000E+03 0.  0.
         25    1    3    3    0    0 -0.24911090096E+02  0.10875488146E+03 -0.34449139852E+03  0.38310575355E+03  0.12509000000E+03 0.  0.
<mgrwt>
<rscale>  2 0.45849620E+03</rscale>
<asrwt>0</asrwt>
<pdfrwt beam="1">  1       21 0.63770418E-02 0.45849620E+03</pdfrwt>
<pdfrwt beam="2">  1       21 0.17822737E+00 0.45849620E+03</pdfrwt>
<totfact> 0.29626179E+04</totfact>
</mgrwt>
</event>
<event>
 7    0  0.4752811E-002  0.4611139E+03  0.7546771E-02  0.1024459E+00
         21   -1    0    0  502  501  0.00000000000E+00  0.00000000000E+00  0.22208769353E+03  0.22208769353E+03  0.00000000000E+00 0. -1.
         21   -1    0    0  501  502 -0.00000000000E+00 -0.00000000000E+00 -0.23934921649E+03  0.23934921649E+03  0.00000000000E+00 0. -1.
      99926    2    1    2    0    0  0.00000000000E+00  0.00000000000E+00 -0.17261522962E+02  0.46143691002E+03  0.46111393577E+03 0.  0.
      99925    2    3    3    0    0  0.19849449401E+02  0.85545635108E+02 -0.90816112405E+02  0.29182015951E+03  0.26305775582E+03 0.  0.
         25    1    4    4    0    0  0.19147259403E+02  0.51963920759E+02 -0.58667411385E+01  0.13692623326E+03  0.12509000000E+03 0.  0.
         25    1    3    3    0    0 -0.19849449401E+02 -0.85545635108E+02  0.73554589443E+02  0.16961675052E+03  0.12509000000E+03 0.  0.
         25    1    4    4    0    0  0.70218999790E+00  0.33581714349E+02 -0.84949371267E+02  0.15489392625E+03  0.12509000000E+03 0.  0.
<mgrwt>
<rscale>  2 0.46111394E+03</rscale>
<asrwt>0</asrwt>
<pdfrwt beam="1">  1       21 0.32659955E-01 0.46111394E+03</pdfrwt>
<pdfrwt beam="2">  1       21 0.35198414E-01 0.46111394E+03</pdfrwt>
<totfact> 0.64854803E+04</totfact>
</mgrwt>
</event>
<event>
 7    0  0.4752811E-002  0.4497420E+03  0.7546771E-02  0.1027799E+00
         21   -1    0    0  502  501  0.00000000000E+00  0.00000000000E+00  0.15059208206E+04  0.15059208206E+04  0.00000000000E+00 0. -1.
         21   -1    0    0  501  502 -0.00000000000E+00 -0.00000000000E+00 -0.33578764251E+02  0.33578764251E+02  0.00000000000E+00 0. -1.
      99926    2    1    2    0    0  0.00000000000E+00  0.00000000000E+00  0.14723420564E+04  0.15394995849E+04  0.44974197143E+03 0.  0.
      99925    2    3    3    0    0 -0.20410655768E+02  0.91846096450E+02  0.11133950185E+04  0.11479095130E+04  0.26305034211E+03 0.  0.
         25    1    4    4    0    0 -0.18283267641E+01  0.48202054424E+02  0.39412438034E+03  0.41630315410E+03  0.12509000000E+03 0.  0.
         25    1    3    3    0    0  0.20410655768E+02 -0.91846096450E+02  0.35894703785E+03  0.39159007187E+03  0.12509000000E+03 0.  0.
         25    1    4    4    0    0 -0.18582329004E+02  0.43644042026E+02  0.71927063818E+03  0.73160635891E+03  0.12509000000E+03 0.  0.
<mgrwt>
<rscale>  2 0.44974197E+03</rscale>
<asrwt>0</asrwt>
<pdfrwt beam="1">  1       21 0.22145890E+00 0.44974197E+03</pdfrwt>
<pdfrwt beam="2">  1       21 0.49380546E-02 0.44974197E+03</pdfrwt>
<totfact> 0.23784009E+04</totfact>
</mgrwt>
</event>
<event>
 7    0  0.4752811E-002  0.4480521E+03  0.7546771E-02  0.1028305E+00
         21   -1    0    0  502  501  0.00000000000E+00  0.00000000000E+00  0.11763579165E+03  0.11763579165E+03  0.00000000000E+00 0.  1.
         21   -1    0    0  501  502 -0.00000000000E+00 -0.00000000000E+00 -0.42663603002E+03  0.42663603002E+03  0.00000000000E+00 0.  1.
      99926    2    1    2    0    0  0.00000000000E+00  0.00000000000E+00 -0.30900023838E+03  0.54427182167E+03  0.44805208241E+03 0.  0.
      99925    2    3    3    0    0  0.37146192540E+02 -0.82089323625E+02 -0.12674176737E+03  0.30555827990E+03  0.26302830673E+03 0.  0.
         25    1    4    4    0    0  0.11873737209E+02 -0.79525805226E+02 -0.84893510247E+02  0.17123012444E+03  0.12509000000E+03 0.  0.
         25    1    3    3    0    0 -0.37146192540E+02  0.82089323625E+02 -0.18225847101E+03  0.23871354177E+03  0.12509000000E+03 0.  0.
         25    1    4    4    0    0  0.25272455331E+02 -0.25635183987E+01 -0.41848257126E+02  0.13432815546E+03  0.12509000000E+03 0.  0.
<mgrwt>
<rscale>  2 0.44805208E+03</rscale>
<asrwt>0</asrwt>
<pdfrwt beam="1">  1       21 0.17299382E-01 0.44805208E+03</pdfrwt>
<pdfrwt beam="2">  1       21 0.62740590E-01 0.44805208E+03</pdfrwt>
<totfact> 0.65789738E+04</totfact>
</mgrwt>
</event>
<event>
 7    0  0.4752811E-002  0.4529985E+03  0.7546771E-02  0.1026832E+00
         21   -1    0    0  502  501  0.00000000000E+00  0.00000000000E+00  0.21898257853E+03  0.21898257853E+03  0.00000000000E+00 0.  1.
         21   -1    0    0  501  502 -0.00000000000E+00 -0.00000000000E+00 -0.23427396853E+03  0.23427396853E+03  0.00000000000E+00 0.  1.
      99926    2    1    2    0    0  0.00000000000E+00 -0.14210854715E-13 -0.15291389992E+02  0.45325654706E+03  0.45299853294E+03 0.  0.
      99925    2    3    3    0    0  0.25118679241E+02 -0.10725583242E+03  0.75212021764E+01  0.28502253119E+03  0.26276703211E+03 0.  0.
         25    1    4    4    0    0 -0.17214045151E+02 -0.69516082122E+02  0.25913515407E+02  0.14645076785E+03  0.12509000000E+03 0.  0.
         25    1    3    3    0    0 -0.25118679241E+02  0.10725583242E+03 -0.22812592169E+02  0.16823401588E+03  0.12509000000E+03 0.  0.
         25    1    4    4    0    0  0.42332724392E+02 -0.37739750303E+02 -0.18392313230E+02  0.13857176333E+03  0.12509000000E+03 0.  0.
<mgrwt>
<rscale>  2 0.45299853E+03</rscale>
<asrwt>0</asrwt>
<pdfrwt beam="1">  1       21 0.32203320E-01 0.45299853E+03</pdfrwt>
<pdfrwt beam="2">  1       21 0.34452054E-01 0.45299853E+03</pdfrwt>
<totfact> 0.69781456E+04</totfact>
</mgrwt>
</event>
<event>
 7    0  0.4752811E-002  0.4671355E+03  0.7546771E-02  0.1022732E+00
         21   -1    0    0  502  501  0.00000000000E+00  0.00000000000E+00  0.79246025775E+03  0.79246025775E+03  0.00000000000E+00 0. -1.
         21   -1    0    0  501  502 -0.00000000000E+00 -0.00000000000E+00 -0.68841177043E+02  0.68841177043E+02  0.00000000000E+00 0. -1.
      99926    2    1    2    0    0  0.14210854715E-13  0.00000000000E+00  0.72361908071E+03  0.86130143480E+03  0.46713551312E+03 0.  0.
      99925    2    3    3    0    0 -0.10878434537E+03  0.46951565808E+02  0.52130490660E+03  0.59556281044E+03  0.26248385131E+03 0.  0.
         25    1    4    4    0    0 -0.95283193710E+02  0.13904510449E+02  0.29088098993E+03  0.33095540608E+03  0.12509000000E+03 0.  0.
         25    1    3    3    0    0  0.10878434537E+03 -0.46951565808E+02  0.20231417411E+03  0.26573862436E+03  0.12509000000E+03 0.  0.
         25    1    4    4    0    0 -0.13501151665E+02  0.33047055359E+02  0.23042391667E+03  0.26460740435E+03  0.12509000000E+03 0.  0.
<mgrwt>
<rscale>  2 0.46713551E+03</rscale>
<asrwt>0</asrwt>
<pdfrwt beam="1">  1       21 0.11653827E+00 0.46713551E+03</pdfrwt>
<pdfrwt beam="2">  1       21 0.10123703E-01 0.46713551E+03</pdfrwt>
<totfact> 0.40903212E+04</totfact>
</mgrwt>
</event>
<event>
 7    0  0.4752811E-002  0.4496427E+03  0.7546771E-02  0.1027829E+00
         21   -1    0    0  502  501  0.00000000000E+00  0.00000000000E+00  0.94552764433E+03  0.94552764433E+03  0.00000000000E+00 0.  1.
         21   -1    0    0  501  502 -0.00000000000E+00 -0.00000000000E+00 -0.53456552112E+02  0.53456552112E+02  0.00000000000E+00 0.  1.
      99926    2    1    2    0    0  0.00000000000E+00  0.00000000000E+00  0.89207109222E+03  0.99898419644E+03  0.44964273726E+03 0.  0.
      99925    2    3    3    0    0  0.79710628003E+02  0.69341526235E+02  0.61489825213E+03  0.67706134410E+03  0.26296420237E+03 0.  0.
         25    1    4    4    0    0  0.74869713716E+02  0.20687216498E+02  0.28288619278E+03  0.31891306201E+03  0.12509000000E+03 0.  0.
         25    1    3    3    0    0 -0.79710628003E+02 -0.69341526235E+02  0.27717284008E+03  0.32192285234E+03  0.12509000000E+03 0.  0.
         25    1    4    4    0    0  0.48409142869E+01  0.48654309736E+02  0.33201205936E+03  0.35814828209E+03  0.12509000000E+03 0.  0.
<mgrwt>
<rscale>  2 0.44964274E+03</rscale>
<asrwt>0</asrwt>
<pdfrwt beam="1">  1       21 0.13904817E+00 0.44964274E+03</pdfrwt>
<pdfrwt beam="2">  1       21 0.78612582E-02 0.44964274E+03</pdfrwt>
<totfact> 0.40890562E+04</totfact>
</mgrwt>
</event>
<event>
 7    0  0.4752811E-002  0.4548326E+03  0.7546771E-02  0.1026291E+00
         21   -1    0    0  502  501  0.00000000000E+00  0.00000000000E+00  0.36053958476E+03  0.36053958476E+03  0.00000000000E+00 0.  1.
         21   -1    0    0  501  502 -0.00000000000E+00 -0.00000000000E+00 -0.14344656361E+03  0.14344656361E+03  0.00000000000E+00 0.  1.
      99926    2    1    2    0    0  0.14210854715E-13  0.00000000000E+00  0.21709302115E+03  0.50398614837E+03  0.45483256031E+03 0.  0.
      99925    2    3    3    0    0  0.84032904160E+02  0.36957288926E+02  0.20974193119E+03  0.34865129455E+03  0.26294234597E+03 0.  0.
         25    1    4    4    0    0  0.21591222621E+02  0.46921701121E+02  0.77518672108E+02  0.15596307113E+03  0.12509000000E+03 0.  0.
         25    1    3    3    0    0 -0.84032904160E+02 -0.36957288926E+02  0.73510899579E+01  0.15533485382E+03  0.12509000000E+03 0.  0.
         25    1    4    4    0    0  0.62441681539E+02 -0.99644121954E+01  0.13222325908E+03  0.19268822342E+03  0.12509000000E+03 0.  0.
<mgrwt>
<rscale>  2 0.45483256E+03</rscale>
<asrwt>0</asrwt>
<pdfrwt beam="1">  1       21 0.53020527E-01 0.45483256E+03</pdfrwt>
<pdfrwt beam="2">  1       21 0.21095083E-01 0.45483256E+03</pdfrwt>
<totfact> 0.65077970E+04</totfact>
</mgrwt>
</event>
<event>
 7    0  0.4752811E-002  0.4480265E+03  0.7546771E-02  0.1028312E+00
         21   -1    0    0  502  501  0.00000000000E+00  0.00000000000E+00  0.32750867429E+03  0.32750867429E+03  0.00000000000E+00 0.  1.
         21   -1    0    0  501  502 -0.00000000000E+00 -0.00000000000E+00 -0.15322319385E+03  0.15322319385E+03  0.00000000000E+00 0.  1.
      99926    2    1    2    0    0 -0.14210854715E-13  0.00000000000E+00  0.17428548044E+03  0.48073186814E+03  0.44802645050E+03 0.  0.
      99925    2    3    3    0    0 -0.66798696783E+02 -0.82695249240E+02  0.11771510498E+03  0.30709925133E+03  0.26296869412E+03 0.  0.
         25    1    3    3    0    0  0.66798696783E+02  0.82695249240E+02  0.56570375463E+02  0.17363261681E+03  0.12509000000E+03 0.  0.
         25    1    4    4    0    0  0.11764232709E+01 -0.42600168482E+02  0.79937802449E+02  0.15444649134E+03  0.12509000000E+03 0.  0.
         25    1    4    4    0    0 -0.67975120054E+02 -0.40095080758E+02  0.37777302533E+02  0.15265275999E+03  0.12509000000E+03 0.  0.
<mgrwt>
<rscale>  2 0.44802645E+03</rscale>
<asrwt>0</asrwt>
<pdfrwt beam="1">  1       21 0.48163040E-01 0.44802645E+03</pdfrwt>
<pdfrwt beam="2">  1       21 0.22532823E-01 0.44802645E+03</pdfrwt>
<totfact> 0.70467777E+04</totfact>
</mgrwt>
</event>
<event>
 7    0  0.4752811E-002  0.4482564E+03  0.7546771E-02  0.1028243E+00
         21   -1    0    0  502  501  0.00000000000E+00  0.00000000000E+00  0.82527042538E+02  0.82527042538E+02  0.00000000000E+00 0.  1.
         21   -1    0    0  501  502 -0.00000000000E+00 -0.00000000000E+00 -0.60869076078E+03  0.60869076078E+03  0.00000000000E+00 0.  1.
      99926    2    1    2    0    0  0.00000000000E+00  0.00000000000E+00 -0.52616371824E+03  0.69121780332E+03  0.44825639229E+03 0.  0.
      99925    2    3    3    0    0 -0.72547566385E+02 -0.77249083289E+02 -0.31408412026E+03  0.42315841766E+03  0.26302783423E+03 0.  0.
         25    1    4    4    0    0 -0.30014451639E+02 -0.79509839331E+02 -0.15963011447E+03  0.21989079882E+03  0.12509000000E+03 0.  0.
         25    1    4    4    0    0 -0.42533114746E+02  0.22607560413E+01 -0.15445400578E+03  0.20326761884E+03  0.12509000000E+03 0.  0.
         25    1    3    3    0    0  0.72547566385E+02  0.77249083289E+02 -0.21207959799E+03  0.26805938566E+03  0.12509000000E+03 0.  0.
<mgrwt>
<rscale>  2 0.44825639E+03</rscale>
<asrwt>0</asrwt>
<pdfrwt beam="1">  1       21 0.12136329E-01 0.44825639E+03</pdfrwt>
<pdfrwt beam="2">  1       21 0.89513350E-01 0.44825639E+03</pdfrwt>
<totfact> 0.56312673E+04</totfact>
</mgrwt>
</event>
<event>
 7    0  0.4752811E-002  0.4633353E+03  0.7546771E-02  0.1023818E+00
         21   -1    0    0  502  501  0.00000000000E+00  0.00000000000E+00  0.19666599073E+03  0.19666599073E+03  0.00000000000E+00 0.  1.
         21   -1    0    0  501  502 -0.00000000000E+00 -0.00000000000E+00 -0.27289873177E+03  0.27289873177E+03  0.00000000000E+00 0.  1.
      99926    2    1    2    0    0  0.00000000000E+00  0.00000000000E+00 -0.76232741035E+02  0.46956472250E+03  0.46333529739E+03 0.  0.
      99925    2    3    3    0    0 -0.26125593995E+02 -0.71674125771E+02  0.47215034829E+02  0.27797508700E+03  0.26309914958E+03 0.  0.
         25    1    4    4    0    0 -0.33457578991E+02 -0.43493188683E+02 -0.10846298905E+02  0.13702633818E+03  0.12509000000E+03 0.  0.
         25    1    3    3    0    0  0.26125593995E+02  0.71674125771E+02 -0.12344777586E+03  0.19158963550E+03  0.12509000000E+03 0.  0.
         25    1    4    4    0    0  0.73319849967E+01 -0.28180937088E+02  0.58061333733E+02  0.14094874882E+03  0.12509000000E+03 0.  0.
<mgrwt>
<rscale>  2 0.46333530E+03</rscale>
<asrwt>0</asrwt>
<pdfrwt beam="1">  1       21 0.28921469E-01 0.46333530E+03</pdfrwt>
<pdfrwt beam="2">  1       21 0.40132167E-01 0.46333530E+03</pdfrwt>
<totfact> 0.63181261E+04</totfact>
</mgrwt>
</event>
<event>
 7    0  0.4752811E-002  0.3968538E+03  0.7546771E-02  0.1044875E+00
         21   -1    0    0  502  501  0.00000000000E+00  0.00000000000E+00  0.75487230521E+02  0.75487230521E+02  0.00000000000E+00 0.  1.
         21   -1    0    0  501  502 -0.00000000000E+00 -0.00000000000E+00 -0.52158803960E+03  0.52158803960E+03  0.00000000000E+00 0.  1.
      99926    2    1    2    0    0 -0.61062266354E-15  0.00000000000E+00 -0.44610080908E+03  0.59707527013E+03  0.39685380977E+03 0.  0.
      99925    2    3    3    0    0 -0.35947837217E+00  0.24782022427E+02 -0.34383850905E+03  0.43361468170E+03  0.26302565278E+03 0.  0.
         25    1    4    4    0    0  0.65971295022E+01  0.50795494629E+02 -0.15716211677E+03  0.20729482251E+03  0.12509000000E+03 0.  0.
         25    1    4    4    0    0 -0.69566078744E+01 -0.26013472202E+02 -0.18667639227E+03  0.22631985918E+03  0.12509000000E+03 0.  0.
         25    1    3    3    0    0  0.35947837217E+00 -0.24782022427E+02 -0.10226230004E+03  0.16346058843E+03  0.12509000000E+03 0.  0.
<mgrwt>
<rscale>  2 0.39685381E+03</rscale>
<asrwt>0</asrwt>
<pdfrwt beam="1">  1       21 0.11101063E-01 0.39685381E+03</pdfrwt>
<pdfrwt beam="2">  1       21 0.76704123E-01 0.39685381E+03</pdfrwt>
<totfact> 0.95864794E+04</totfact>
</mgrwt>
</event>
<event>
 7    0  0.4752811E-002  0.4747956E+03  0.7546771E-02  0.1020575E+00
         21   -1    0    0  502  501  0.00000000000E+00  0.00000000000E+00  0.14381965583E+04  0.14381965583E+04  0.00000000000E+00 0.  1.
         21   -1    0    0  501  502 -0.00000000000E+00 -0.00000000000E+00 -0.39186381134E+02  0.39186381134E+02  0.00000000000E+00 0.  1.
      99926    2    1    2    0    0  0.00000000000E+00  0.00000000000E+00  0.13990101772E+04  0.14773829395E+04  0.47479561279E+03 0.  0.
      99925    2    3    3    0    0 -0.90651959513E+02  0.89052614527E+02  0.96505414258E+03  0.10082203941E+04  0.26273697684E+03 0.  0.
         25    1    4    4    0    0 -0.19496436663E+02  0.39658291505E+02  0.56085827731E+03  0.57633532466E+03  0.12509000000E+03 0.  0.
         25    1    4    4    0    0 -0.71155522850E+02  0.49394323021E+02  0.40419586528E+03  0.43188506942E+03  0.12509000000E+03 0.  0.
         25    1    3    3    0    0  0.90651959513E+02 -0.89052614527E+02  0.43395603462E+03  0.46916254540E+03  0.12509000000E+03 0.  0.
<mgrwt>
<rscale>  2 0.47479561E+03</rscale>
<asrwt>0</asrwt>
<pdfrwt beam="1">  1       21 0.21149946E+00 0.47479561E+03</pdfrwt>
<pdfrwt beam="2">  1       21 0.57627041E-02 0.47479561E+03</pdfrwt>
<totfact> 0.20930690E+04</totfact>
</mgrwt>
</event>
<event>
 7    0  0.4752811E-002  0.4576200E+03  0.7546771E-02  0.1025474E+00
         21   -1    0    0  502  501  0.00000000000E+00  0.00000000000E+00  0.75024736495E+02  0.75024736495E+02  0.00000000000E+00 0.  1.
         21   -1    0    0  501  502 -0.00000000000E+00 -0.00000000000E+00 -0.69782346785E+03  0.69782346785E+03  0.00000000000E+00 0.  1.
      99926    2    1    2    0    0  0.00000000000E+00  0.00000000000E+00 -0.62279873135E+03  0.77284820434E+03  0.45762002489E+03 0.  0.
      99925    2    3    3    0    0  0.77509941450E+02  0.78609738604E+02 -0.44929146207E+03  0.53214182175E+03  0.26291599141E+03 0.  0.
         25    1    4    4    0    0  0.76213000091E+02  0.31338687208E+02 -0.20887080770E+03  0.25703123761E+03  0.12509000000E+03 0.  0.
         25    1    3    3    0    0 -0.77509941450E+02 -0.78609738604E+02 -0.17350726928E+03  0.24070638259E+03  0.12509000000E+03 0.  0.
         25    1    4    4    0    0  0.12969413585E+01  0.47271051396E+02 -0.24042065438E+03  0.27511058414E+03  0.12509000000E+03 0.  0.
<mgrwt>
<rscale>  2 0.45762002E+03</rscale>
<asrwt>0</asrwt>
<pdfrwt beam="1">  1       21 0.11033050E-01 0.45762002E+03</pdfrwt>
<pdfrwt beam="2">  1       21 0.10262109E+00 0.45762002E+03</pdfrwt>
<totfact> 0.48109042E+04</totfact>
</mgrwt>
</event>
<event>
 7    0  0.4752811E-002  0.4579221E+03  0.7546771E-02  0.1025386E+00
         21   -1    0    0  502  501  0.00000000000E+00  0.00000000000E+00  0.14497599638E+04  0.14497599638E+04  0.00000000000E+00 0. -1.
         21   -1    0    0  501  502 -0.00000000000E+00 -0.00000000000E+00 -0.36159889017E+02  0.36159889017E+02  0.00000000000E+00 0. -1.
      99926    2    1    2    0    0  0.00000000000E+00 -0.71054273576E-14  0.14136000748E+04  0.14859198528E+04  0.45792208679E+03 0.  0.
      99925    2    3    3    0    0 -0.38299087471E+02  0.53546516208E+02  0.57804704524E+03  0.63849409041E+03  0.26306323857E+03 0.  0.
         25    1    4    4    0    0  0.56401214811E+00  0.48346726368E+02  0.35881542052E+03  0.38305840046E+03  0.12509000000E+03 0.  0.
         25    1    3    3    0    0  0.38299087471E+02 -0.53546516208E+02  0.83555302953E+03  0.84742576239E+03  0.12509000000E+03 0.  0.
         25    1    4    4    0    0 -0.38863099619E+02  0.51997898396E+01  0.21923162471E+03  0.25543568995E+03  0.12509000000E+03 0.  0.
<mgrwt>
<rscale>  2 0.45792209E+03</rscale>
<asrwt>0</asrwt>
<pdfrwt beam="1">  1       21 0.21319996E+00 0.45792209E+03</pdfrwt>
<pdfrwt beam="2">  1       21 0.53176317E-02 0.45792209E+03</pdfrwt>
<totfact> 0.23586416E+04</totfact>
</mgrwt>
</event>
<event>
 7    0  0.4752811E-002  0.4436000E+03  0.7546771E-02  0.1029648E+00
         21   -1    0    0  502  501  0.00000000000E+00  0.00000000000E+00  0.19158553598E+04  0.19158553598E+04  0.00000000000E+00 0. -1.
         21   -1    0    0  501  502 -0.00000000000E+00 -0.00000000000E+00 -0.25677954233E+02  0.25677954233E+02  0.00000000000E+00 0. -1.
      99926    2    1    2    0    0  0.00000000000E+00  0.71054273576E-14  0.18901774056E+04  0.19415333141E+04  0.44360002817E+03 0.  0.
      99925    2    3    3    0    0 -0.73462227577E+02 -0.62175825747E+02  0.13420457207E+04  0.13711313643E+04  0.26391659587E+03 0.  0.
         25    1    4    4    0    0 -0.32727691921E+02 -0.27883156616E+02  0.45890099886E+03  0.47758371736E+03  0.12509000000E+03 0.  0.
         25    1    3    3    0    0  0.73462227577E+02  0.62175825747E+02  0.54813168492E+03  0.57040194977E+03  0.12509000000E+03 0.  0.
         25    1    4    4    0    0 -0.40734535656E+02 -0.34292669131E+02  0.88314472182E+03  0.89354764692E+03  0.12509000000E+03 0.  0.
<mgrwt>
<rscale>  2 0.44360003E+03</rscale>
<asrwt>0</asrwt>
<pdfrwt beam="1">  1       21 0.28174334E+00 0.44360003E+03</pdfrwt>
<pdfrwt beam="2">  1       21 0.37761711E-02 0.44360003E+03</pdfrwt>
<totfact> 0.16063030E+04</totfact>
</mgrwt>
</event>
<event>
 7    0  0.4752811E-002  0.4519169E+03  0.7546771E-02  0.1027152E+00
         21   -1    0    0  502  501  0.00000000000E+00  0.00000000000E+00  0.11369299507E+03  0.11369299507E+03  0.00000000000E+00 0. -1.
         21   -1    0    0  501  502 -0.00000000000E+00 -0.00000000000E+00 -0.44907976884E+03  0.44907976884E+03  0.00000000000E+00 0. -1.
      99926    2    1    2    0    0  0.00000000000E+00  0.00000000000E+00 -0.33538677377E+03  0.56277276391E+03  0.45191691248E+03 0.  0.
      99925    2    3    3    0    0 -0.60516453617E+02 -0.68855479738E+02 -0.13529382721E+03  0.30961665869E+03  0.26297288341E+03 0.  0.
         25    1    4    4    0    0 -0.35105328321E+02 -0.15366469727E+02 -0.10545369972E+03  0.16803720824E+03  0.12509000000E+03 0.  0.
         25    1    3    3    0    0  0.60516453617E+02  0.68855479738E+02 -0.20009294656E+03  0.25315610522E+03  0.12509000000E+03 0.  0.
         25    1    4    4    0    0 -0.25411125297E+02 -0.53489010011E+02 -0.29840127486E+02  0.14157945045E+03  0.12509000000E+03 0.  0.
<mgrwt>
<rscale>  2 0.45191691E+03</rscale>
<asrwt>0</asrwt>
<pdfrwt beam="1">  1       21 0.16719558E-01 0.45191691E+03</pdfrwt>
<pdfrwt beam="2">  1       21 0.66041143E-01 0.45191691E+03</pdfrwt>
<totfact> 0.62541460E+04</totfact>
</mgrwt>
</event>
<event>
 7    0  0.4752811E-002  0.4777023E+03  0.7546771E-02  0.1019769E+00
         21   -1    0    0  502  501  0.00000000000E+00  0.00000000000E+00  0.22738209043E+02  0.22738209043E+02  0.00000000000E+00 0.  1.
         21   -1    0    0  501  502 -0.00000000000E+00 -0.00000000000E+00 -0.25089874203E+04  0.25089874203E+04  0.00000000000E+00 0.  1.
      99926    2    1    2    0    0  0.00000000000E+00  0.14210854715E-13 -0.24862492112E+04  0.25317256293E+04  0.47770233598E+03 0.  0.
      99925    2    3    3    0    0 -0.43583683849E+02 -0.98066980137E+02 -0.11166144837E+04  0.11522099661E+04  0.26314108514E+03 0.  0.
         25    1    4    4    0    0 -0.58891050214E+02 -0.59970535478E+02 -0.53050819393E+03  0.55149893277E+03  0.12509000000E+03 0.  0.
         25    1    4    4    0    0  0.15307366365E+02 -0.38096444659E+02 -0.58610628977E+03  0.60071103334E+03  0.12509000000E+03 0.  0.
         25    1    3    3    0    0  0.43583683849E+02  0.98066980137E+02 -0.13696347275E+04  0.13795156632E+04  0.12509000000E+03 0.  0.
<mgrwt>
<rscale>  2 0.47770234E+03</rscale>
<asrwt>0</asrwt>
<pdfrwt beam="1">  1       21 0.33438562E-02 0.47770234E+03</pdfrwt>
<pdfrwt beam="2">  1       21 0.36896852E+00 0.47770234E+03</pdfrwt>
<totfact> 0.57321323E+03</totfact>
</mgrwt>
</event>
<event>
 7    0  0.4752811E-002  0.5036138E+03  0.7546771E-02  0.1012840E+00
         21   -1    0    0  502  501  0.00000000000E+00  0.00000000000E+00  0.34471489577E+03  0.34471489577E+03  0.00000000000E+00 0.  1.
         21   -1    0    0  501  502 -0.00000000000E+00 -0.00000000000E+00 -0.18393960312E+03  0.18393960312E+03  0.00000000000E+00 0.  1.
      99926    2    1    2    0    0  0.00000000000E+00  0.00000000000E+00  0.16077529265E+03  0.52865449889E+03  0.50361382474E+03 0.  0.
      99925    2    3    3    0    0  0.99171488871E+02 -0.10497155590E+03  0.41469065567E+02  0.30340908679E+03  0.26359700073E+03 0.  0.
         25    1    3    3    0    0 -0.99171488871E+02  0.10497155590E+03  0.11930622708E+03  0.22524541210E+03  0.12509000000E+03 0.  0.
         25    1    4    4    0    0  0.22396085583E+02 -0.25256517327E+02 -0.62141419068E+01  0.12971353043E+03  0.12509000000E+03 0.  0.
         25    1    4    4    0    0  0.76775403288E+02 -0.79715038569E+02  0.47683207474E+02  0.17369555636E+03  0.12509000000E+03 0.  0.
<mgrwt>
<rscale>  2 0.50361382E+03</rscale>
<asrwt>0</asrwt>
<pdfrwt beam="1">  1       21 0.50693367E-01 0.50361382E+03</pdfrwt>
<pdfrwt beam="2">  1       21 0.27049942E-01 0.50361382E+03</pdfrwt>
<totfact> 0.43801019E+04</totfact>
</mgrwt>
</event>
<event>
 7    0  0.4752811E-002  0.4485100E+03  0.7546771E-02  0.1028167E+00
         21   -1    0    0  502  501  0.00000000000E+00  0.00000000000E+00  0.18733584622E+03  0.18733584622E+03  0.00000000000E+00 0. -1.
         21   -1    0    0  501  502 -0.00000000000E+00 -0.00000000000E+00 -0.26844994741E+03  0.26844994741E+03  0.00000000000E+00 0. -1.
      99926    2    1    2    0    0  0.00000000000E+00  0.71054273576E-14 -0.81114101190E+02  0.45578579362E+03  0.44850996896E+03 0.  0.
      99925    2    3    3    0    0 -0.54765247251E+02 -0.48659458651E+02  0.27959823465E+02  0.27437023651E+03  0.26292641505E+03 0.  0.
         25    1    3    3    0    0  0.54765247251E+02  0.48659458651E+02 -0.10907392465E+03  0.18141555711E+03  0.12509000000E+03 0.  0.
         25    1    4    4    0    0 -0.25698063084E+02 -0.59207660043E+02 -0.67498547118E+01  0.14092198584E+03  0.12509000000E+03 0.  0.
         25    1    4    4    0    0 -0.29067184166E+02  0.10548201393E+02  0.34709678177E+02  0.13344825067E+03  0.12509000000E+03 0.  0.
<mgrwt>
<rscale>  2 0.44850997E+03</rscale>
<asrwt>0</asrwt>
<pdfrwt beam="1">  1       21 0.27549389E-01 0.44850997E+03</pdfrwt>
<pdfrwt beam="2">  1       21 0.39477933E-01 0.44850997E+03</pdfrwt>
<totfact> 0.72150777E+04</totfact>
</mgrwt>
</event>
<event>
 7    0  0.4752811E-002  0.4580984E+03  0.7546771E-02  0.1025334E+00
         21   -1    0    0  502  501  0.00000000000E+00  0.00000000000E+00  0.40069856242E+02  0.40069856242E+02  0.00000000000E+00 0.  1.
         21   -1    0    0  501  502 -0.00000000000E+00 -0.00000000000E+00 -0.13093016194E+04  0.13093016194E+04  0.00000000000E+00 0.  1.
      99926    2    1    2    0    0  0.00000000000E+00  0.00000000000E+00 -0.12692317632E+04  0.13493714756E+04  0.45809836353E+03 0.  0.
      99925    2    3    3    0    0 -0.53635520660E+02  0.44325625021E+02 -0.52290243212E+03  0.58943956515E+03  0.26300288466E+03 0.  0.
         25    1    4    4    0    0 -0.41729139533E+02  0.41415693861E+01 -0.33325252032E+03  0.35841766709E+03  0.12509000000E+03 0.  0.
         25    1    3    3    0    0  0.53635520660E+02 -0.44325625021E+02 -0.74632933104E+03  0.75993191049E+03  0.12509000000E+03 0.  0.
         25    1    4    4    0    0 -0.11906381128E+02  0.40184055635E+02 -0.18964991179E+03  0.23102189806E+03  0.12509000000E+03 0.  0.
<mgrwt>
<rscale>  2 0.45809836E+03</rscale>
<asrwt>0</asrwt>
<pdfrwt beam="1">  1       21 0.58926262E-02 0.45809836E+03</pdfrwt>
<pdfrwt beam="2">  1       21 0.19254435E+00 0.45809836E+03</pdfrwt>
<totfact> 0.27055421E+04</totfact>
</mgrwt>
</event>
<event>
 7    0  0.4752811E-002  0.4589772E+03  0.7546771E-02  0.1025078E+00
         21   -1    0    0  502  501  0.00000000000E+00  0.00000000000E+00  0.12561643879E+04  0.12561643879E+04  0.00000000000E+00 0. -1.
         21   -1    0    0  501  502 -0.00000000000E+00 -0.00000000000E+00 -0.41925259956E+02  0.41925259956E+02  0.00000000000E+00 0. -1.
      99926    2    1    2    0    0  0.00000000000E+00  0.00000000000E+00  0.12142391279E+04  0.12980896478E+04  0.45897720427E+03 0.  0.
      99925    2    3    3    0    0  0.10520097075E+02  0.10144714788E+03  0.92257942335E+03  0.96475034978E+03  0.26303659205E+03 0.  0.
         25    1    3    3    0    0 -0.10520097075E+02 -0.10144714788E+03  0.29165970456E+03  0.33333929805E+03  0.12509000000E+03 0.  0.
         25    1    4    4    0    0  0.51172786292E+01  0.16213234264E+02  0.33604398519E+03  0.35897370877E+03  0.12509000000E+03 0.  0.
         25    1    4    4    0    0  0.54028184459E+01  0.85233913614E+02  0.58653543816E+03  0.60577664101E+03  0.12509000000E+03 0.  0.
<mgrwt>
<rscale>  2 0.45897720E+03</rscale>
<asrwt>0</asrwt>
<pdfrwt beam="1">  1       21 0.18473003E+00 0.45897720E+03</pdfrwt>
<pdfrwt beam="2">  1       21 0.61654802E-02 0.45897720E+03</pdfrwt>
<totfact> 0.28285029E+04</totfact>
</mgrwt>
</event>
<event>
 7    0  0.4752811E-002  0.4533927E+03  0.7546771E-02  0.1026715E+00
         21   -1    0    0  502  501  0.00000000000E+00  0.00000000000E+00  0.37104731498E+03  0.37104731498E+03  0.00000000000E+00 0.  1.
         21   -1    0    0  501  502 -0.00000000000E+00 -0.00000000000E+00 -0.13850318283E+03  0.13850318283E+03  0.00000000000E+00 0.  1.
      99926    2    1    2    0    0 -0.17763568394E-14  0.00000000000E+00  0.23254413215E+03  0.50955049781E+03  0.45339269560E+03 0.  0.
      99925    2    3    3    0    0  0.90641599415E+01  0.99946237861E+02  0.20125963103E+03  0.34615638051E+03  0.26314899055E+03 0.  0.
         25    1    3    3    0    0 -0.90641599415E+01 -0.99946237861E+02  0.31284501124E+02  0.16339411730E+03  0.12509000000E+03 0.  0.
         25    1    4    4    0    0 -0.13347014487E+02  0.10543066699E+02  0.88403331429E+02  0.15411669656E+03  0.12509000000E+03 0.  0.
         25    1    4    4    0    0  0.22411174428E+02  0.89403171162E+02  0.11285629960E+03  0.19203968395E+03  0.12509000000E+03 0.  0.
<mgrwt>
<rscale>  2 0.45339270E+03</rscale>
<asrwt>0</asrwt>
<pdfrwt beam="1">  1       21 0.54565781E-01 0.45339270E+03</pdfrwt>
<pdfrwt beam="2">  1       21 0.20368115E-01 0.45339270E+03</pdfrwt>
<totfact> 0.65435494E+04</totfact>
</mgrwt>
</event>
<event>
 7    0  0.4752811E-002  0.4533414E+03  0.7546771E-02  0.1026730E+00
         21   -1    0    0  502  501  0.00000000000E+00  0.00000000000E+00  0.24011298845E+04  0.24011298845E+04  0.00000000000E+00 0.  1.
         21   -1    0    0  501  502 -0.00000000000E+00 -0.00000000000E+00 -0.21398097712E+02  0.21398097712E+02  0.00000000000E+00 0.  1.
      99926    2    1    2    0    0  0.00000000000E+00  0.00000000000E+00  0.23797317868E+04  0.24225279822E+04  0.45334142492E+03 0.  0.
      99925    2    3    3    0    0  0.97726264422E+02  0.53820357431E+02  0.15264207401E+04  0.15529106502E+04  0.26291473537E+03 0.  0.
         25    1    3    3    0    0 -0.97726264422E+02 -0.53820357431E+02  0.85331104668E+03  0.86961733200E+03  0.12509000000E+03 0.  0.
         25    1    4    4    0    0  0.27562023134E+02  0.28601159770E+02  0.53561631491E+03  0.55146172701E+03  0.12509000000E+03 0.  0.
         25    1    4    4    0    0  0.70164241288E+02  0.25219197661E+02  0.99080442520E+03  0.10014489232E+04  0.12509000000E+03 0.  0.
<mgrwt>
<rscale>  2 0.45334142E+03</rscale>
<asrwt>0</asrwt>
<pdfrwt beam="1">  1       21 0.35310715E+00 0.45334142E+03</pdfrwt>
<pdfrwt beam="2">  1       21 0.31467807E-02 0.45334142E+03</pdfrwt>
<totfact> 0.80606721E+03</totfact>
</mgrwt>
</event>
<event>
 7    0  0.4752811E-002  0.4573546E+03  0.7546771E-02  0.1025551E+00
         21   -1    0    0  502  501  0.00000000000E+00  0.00000000000E+00  0.22604171313E+03  0.22604171313E+03  0.00000000000E+00 0. -1.
         21   -1    0    0  501  502 -0.00000000000E+00 -0.00000000000E+00 -0.23134366264E+03  0.23134366264E+03  0.00000000000E+00 0. -1.
      99926    2    1    2    0    0  0.00000000000E+00  0.00000000000E+00 -0.53019495107E+01  0.45738537577E+03  0.45735464500E+03 0.  0.
      99925    2    3    3    0    0 -0.48607175375E+02 -0.10539744521E+02  0.99886691667E+02  0.28654655686E+03  0.26392770670E+03 0.  0.
         25    1    3    3    0    0  0.48607175375E+02  0.10539744521E+02 -0.10518864118E+03  0.17083881891E+03  0.12509000000E+03 0.  0.
         25    1    4    4    0    0 -0.58674459817E+02  0.15759677123E+02  0.37938664576E+02  0.14414544747E+03  0.12509000000E+03 0.  0.
         25    1    4    4    0    0  0.10067284442E+02 -0.26299421644E+02  0.61948027091E+02  0.14240110939E+03  0.12509000000E+03 0.  0.
<mgrwt>
<rscale>  2 0.45735464E+03</rscale>
<asrwt>0</asrwt>
<pdfrwt beam="1">  1       21 0.33241428E-01 0.45735464E+03</pdfrwt>
<pdfrwt beam="2">  1       21 0.34021127E-01 0.45735464E+03</pdfrwt>
<totfact> 0.67101821E+04</totfact>
</mgrwt>
</event>
<event>
 7    0  0.4752811E-002  0.4637775E+03  0.7546771E-02  0.1023691E+00
         21   -1    0    0  502  501  0.00000000000E+00  0.00000000000E+00  0.44421452459E+03  0.44421452459E+03  0.00000000000E+00 0. -1.
         21   -1    0    0  501  502 -0.00000000000E+00 -0.00000000000E+00 -0.12105052797E+03  0.12105052797E+03  0.00000000000E+00 0. -1.
      99926    2    1    2    0    0  0.00000000000E+00  0.00000000000E+00  0.32316399661E+03  0.56526505256E+03  0.46377754466E+03 0.  0.
      99925    2    3    3    0    0  0.79684241047E+02 -0.83432530802E+02  0.24747862112E+03  0.37902233557E+03  0.26287201730E+03 0.  0.
         25    1    4    4    0    0  0.31719984423E+01 -0.34569879601E+02  0.13899067748E+03  0.19018689407E+03  0.12509000000E+03 0.  0.
         25    1    3    3    0    0 -0.79684241047E+02  0.83432530802E+02  0.75685375496E+02  0.18624271699E+03  0.12509000000E+03 0.  0.
         25    1    4    4    0    0  0.76512242604E+02 -0.48862651200E+02  0.10848794364E+03  0.18883544150E+03  0.12509000000E+03 0.  0.
<mgrwt>
<rscale>  2 0.46377754E+03</rscale>
<asrwt>0</asrwt>
<pdfrwt beam="1">  1       21 0.65325665E-01 0.46377754E+03</pdfrwt>
<pdfrwt beam="2">  1       21 0.17801548E-01 0.46377754E+03</pdfrwt>
<totfact> 0.56820409E+04</totfact>
</mgrwt>
</event>
<event>
 7    0  0.4752811E-002  0.4564846E+03  0.7546771E-02  0.1025806E+00
         21   -1    0    0  502  501  0.00000000000E+00  0.00000000000E+00  0.13834476567E+03  0.13834476567E+03  0.00000000000E+00 0.  1.
         21   -1    0    0  501  502 -0.00000000000E+00 -0.00000000000E+00 -0.37655591426E+03  0.37655591426E+03  0.00000000000E+00 0.  1.
      99926    2    1    2    0    0 -0.35527136788E-14  0.17763568394E-14 -0.23821114859E+03  0.51490067993E+03  0.45648456587E+03 0.  0.
      99925    2    3    3    0    0 -0.10224881866E+02 -0.15529032883E+02 -0.27718488564E+03  0.38256716433E+03  0.26302181530E+03 0.  0.
         25    1    4    4    0    0 -0.34430221631E+02 -0.35936250633E+02 -0.14370783441E+03  0.19691699785E+03  0.12509000000E+03 0.  0.
         25    1    3    3    0    0  0.10224881866E+02  0.15529032883E+02  0.38973737046E+02  0.13233351560E+03  0.12509000000E+03 0.  0.
         25    1    4    4    0    0  0.24205339764E+02  0.20407217749E+02 -0.13347705123E+03  0.18565016648E+03  0.12509000000E+03 0.  0.
<mgrwt>
<rscale>  2 0.45648457E+03</rscale>
<asrwt>0</asrwt>
<pdfrwt beam="1">  1       21 0.20344819E-01 0.45648457E+03</pdfrwt>
<pdfrwt beam="2">  1       21 0.55375869E-01 0.45648457E+03</pdfrwt>
<totfact> 0.63484833E+04</totfact>
</mgrwt>
</event>
<event>
 7    0  0.4752811E-002  0.4539255E+03  0.7546771E-02  0.1026558E+00
         21   -1    0    0  502  501  0.00000000000E+00  0.00000000000E+00  0.89889850493E+03  0.89889850493E+03  0.00000000000E+00 0. -1.
         21   -1    0    0  501  502 -0.00000000000E+00 -0.00000000000E+00 -0.57305779787E+02  0.57305779787E+02  0.00000000000E+00 0. -1.
      99926    2    1    2    0    0 -0.35527136788E-14  0.00000000000E+00  0.84159272514E+03  0.95620428472E+03  0.45392545544E+03 0.  0.
      99925    2    3    3    0    0  0.23424867411E+02  0.87780134265E+02  0.39122669164E+03  0.48004134137E+03  0.26292068916E+03 0.  0.
         25    1    3    3    0    0 -0.23424867411E+02 -0.87780134265E+02  0.45036603350E+03  0.47616294335E+03  0.12509000000E+03 0.  0.
         25    1    4    4    0    0  0.33203523889E+02  0.74275153586E+02  0.17804332903E+03  0.23230627962E+03  0.12509000000E+03 0.  0.
         25    1    4    4    0    0 -0.97786564775E+01  0.13504980678E+02  0.21318336262E+03  0.24773506175E+03  0.12509000000E+03 0.  0.
<mgrwt>
<rscale>  2 0.45392546E+03</rscale>
<asrwt>0</asrwt>
<pdfrwt beam="1">  1       21 0.13219095E+00 0.45392546E+03</pdfrwt>
<pdfrwt beam="2">  1       21 0.84273211E-02 0.45392546E+03</pdfrwt>
<totfact> 0.41235993E+04</totfact>
</mgrwt>
</event>
<event>
 7    0  0.4752811E-002  0.4574877E+03  0.7546771E-02  0.1025512E+00
         21   -1    0    0  502  501  0.00000000000E+00  0.00000000000E+00  0.99917953453E+02  0.99917953453E+02  0.00000000000E+00 0.  1.
         21   -1    0    0  501  502 -0.00000000000E+00 -0.00000000000E+00 -0.52366722458E+03  0.52366722458E+03  0.00000000000E+00 0.  1.
      99926    2    1    2    0    0  0.00000000000E+00  0.00000000000E+00 -0.42374927112E+03  0.62358517803E+03  0.45748773697E+03 0.  0.
      99925    2    3    3    0    0  0.68160308408E+02  0.26733928107E+00 -0.13892963542E+03  0.30512696712E+03  0.26297361722E+03 0.  0.
         25    1    4    4    0    0  0.34563357509E+01 -0.18492396819E+02 -0.42621938186E+02  0.13348427889E+03  0.12509000000E+03 0.  0.
         25    1    3    3    0    0 -0.68160308408E+02 -0.26733928107E+00 -0.28481963570E+03  0.31845821090E+03  0.12509000000E+03 0.  0.
         25    1    4    4    0    0  0.64703972657E+02  0.18759736100E+02 -0.96307697237E+02  0.17164268823E+03  0.12509000000E+03 0.  0.
<mgrwt>
<rscale>  2 0.45748774E+03</rscale>
<asrwt>0</asrwt>
<pdfrwt beam="1">  1       21 0.14693817E-01 0.45748774E+03</pdfrwt>
<pdfrwt beam="2">  1       21 0.77009885E-01 0.45748774E+03</pdfrwt>
<totfact> 0.56138662E+04</totfact>
</mgrwt>
</event>
<event>
 7    0  0.4752811E-002  0.4522006E+03  0.7546771E-02  0.1027068E+00
         21   -1    0    0  502  501  0.00000000000E+00  0.00000000000E+00  0.38854210326E+03  0.38854210326E+03  0.00000000000E+00 0. -1.
         21   -1    0    0  501  502 -0.00000000000E+00 -0.00000000000E+00 -0.13157220885E+03  0.13157220885E+03  0.00000000000E+00 0. -1.
      99926    2    1    2    0    0  0.00000000000E+00  0.00000000000E+00  0.25696989441E+03  0.52011431211E+03  0.45220058716E+03 0.  0.
      99925    2    3    3    0    0  0.93627967194E+02 -0.12786751254E+01  0.22959593336E+03  0.36148054176E+03  0.26303242805E+03 0.  0.
         25    1    3    3    0    0 -0.93627967194E+02  0.12786751254E+01  0.27373961048E+02  0.15863377035E+03  0.12509000000E+03 0.  0.
         25    1    4    4    0    0  0.78394256373E+02 -0.18846085660E+01  0.15926005735E+03  0.21716464986E+03  0.12509000000E+03 0.  0.
         25    1    4    4    0    0  0.15233710821E+02  0.60593344059E+00  0.70335876006E+02  0.14431589190E+03  0.12509000000E+03 0.  0.
<mgrwt>
<rscale>  2 0.45220059E+03</rscale>
<asrwt>0</asrwt>
<pdfrwt beam="1">  1       21 0.57138544E-01 0.45220059E+03</pdfrwt>
<pdfrwt beam="2">  1       21 0.19348854E-01 0.45220059E+03</pdfrwt>
<totfact> 0.65318075E+04</totfact>
</mgrwt>
</event>
<event>
 7    0  0.4752811E-002  0.4524490E+03  0.7546771E-02  0.1026994E+00
         21   -1    0    0  502  501  0.00000000000E+00  0.00000000000E+00  0.29508903153E+03  0.29508903153E+03  0.00000000000E+00 0. -1.
         21   -1    0    0  501  502 -0.00000000000E+00 -0.00000000000E+00 -0.17343075496E+03  0.17343075496E+03  0.00000000000E+00 0. -1.
      99926    2    1    2    0    0  0.71054273576E-14  0.00000000000E+00  0.12165827658E+03  0.46851978649E+03  0.45244895190E+03 0.  0.
      99925    2    3    3    0    0  0.61242140221E+02  0.90269428385E+02  0.96328671803E+02  0.30062617012E+03  0.26305457934E+03 0.  0.
         25    1    4    4    0    0  0.30002073247E+02  0.85663712537E+02  0.38677312470E+02  0.15931678708E+03  0.12509000000E+03 0.  0.
         25    1    3    3    0    0 -0.61242140221E+02 -0.90269428385E+02  0.25329604775E+02  0.16789361637E+03  0.12509000000E+03 0.  0.
         25    1    4    4    0    0  0.31240066974E+02  0.46057158483E+01  0.57651359333E+02  0.14130938304E+03  0.12509000000E+03 0.  0.
<mgrwt>
<rscale>  2 0.45244895E+03</rscale>
<asrwt>0</asrwt>
<pdfrwt beam="1">  1       21 0.43395446E-01 0.45244895E+03</pdfrwt>
<pdfrwt beam="2">  1       21 0.25504523E-01 0.45244895E+03</pdfrwt>
<totfact> 0.68930436E+04</totfact>
</mgrwt>
</event>
<event>
 7    0  0.4752811E-002  0.4534188E+03  0.7546771E-02  0.1026707E+00
         21   -1    0    0  502  501  0.00000000000E+00  0.00000000000E+00  0.10239528888E+04  0.10239528888E+04  0.00000000000E+00 0. -1.
         21   -1    0    0  501  502 -0.00000000000E+00 -0.00000000000E+00 -0.50194840307E+02  0.50194840307E+02  0.00000000000E+00 0. -1.
      99926    2    1    2    0    0  0.00000000000E+00 -0.35527136788E-14  0.97375804849E+03  0.10741477291E+04  0.45341879862E+03 0.  0.
      99925    2    3    3    0    0 -0.48053782879E+02 -0.78636461246E+01  0.37517652941E+03  0.46069981276E+03  0.26289900395E+03 0.  0.
         25    1    3    3    0    0  0.48053782879E+02  0.78636461246E+01  0.59858151908E+03  0.61344791634E+03  0.12509000000E+03 0.  0.
         25    1    4    4    0    0 -0.65570303016E+00 -0.36922391806E+02  0.18771350745E+03  0.22857725596E+03  0.12509000000E+03 0.  0.
         25    1    4    4    0    0 -0.47398079849E+02  0.29058745682E+02  0.18746302196E+03  0.23212255680E+03  0.12509000000E+03 0.  0.
<mgrwt>
<rscale>  2 0.45341880E+03</rscale>
<asrwt>0</asrwt>
<pdfrwt beam="1">  1       21 0.15058129E+00 0.45341880E+03</pdfrwt>
<pdfrwt beam="2">  1       21 0.73815948E-02 0.45341880E+03</pdfrwt>
<totfact> 0.36856286E+04</totfact>
</mgrwt>
</event>
<event>
 7    0  0.4752811E-002  0.4605436E+03  0.7546771E-02  0.1024624E+00
         21   -1    0    0  502  501  0.00000000000E+00  0.00000000000E+00  0.10455534956E+03  0.10455534956E+03  0.00000000000E+00 0.  1.
         21   -1    0    0  501  502 -0.00000000000E+00 -0.00000000000E+00 -0.50714869391E+03  0.50714869391E+03  0.00000000000E+00 0.  1.
      99926    2    1    2    0    0  0.35527136788E-14  0.00000000000E+00 -0.40259334435E+03  0.61170404347E+03  0.46054363081E+03 0.  0.
      99925    2    3    3    0    0  0.17932450916E+02  0.11429160767E+03 -0.21824598970E+03  0.36067496220E+03  0.26281356882E+03 0.  0.
         25    1    4    4    0    0  0.40596466321E+02  0.41940106733E+02 -0.80741543023E+02  0.15991794927E+03  0.12509000000E+03 0.  0.
         25    1    4    4    0    0 -0.22664015405E+02  0.72351500933E+02 -0.13750444668E+03  0.20075701293E+03  0.12509000000E+03 0.  0.
         25    1    3    3    0    0 -0.17932450916E+02 -0.11429160767E+03 -0.18434735465E+03  0.25102908127E+03  0.12509000000E+03 0.  0.
<mgrwt>
<rscale>  2 0.46054363E+03</rscale>
<asrwt>0</asrwt>
<pdfrwt beam="1">  1       21 0.15375787E-01 0.46054363E+03</pdfrwt>
<pdfrwt beam="2">  1       21 0.74580691E-01 0.46054363E+03</pdfrwt>
<totfact> 0.55493424E+04</totfact>
</mgrwt>
</event>
<event>
 7    0  0.4752811E-002  0.4571678E+03  0.7546771E-02  0.1025606E+00
         21   -1    0    0  502  501  0.00000000000E+00  0.00000000000E+00  0.24812863547E+03  0.24812863547E+03  0.00000000000E+00 0.  1.
         21   -1    0    0  501  502 -0.00000000000E+00 -0.00000000000E+00 -0.21057864468E+03  0.21057864468E+03  0.00000000000E+00 0.  1.
      99926    2    1    2    0    0  0.00000000000E+00 -0.88817841970E-15  0.37549990794E+02  0.45870728015E+03  0.45716776686E+03 0.  0.
      99925    2    3    3    0    0  0.75906161403E+02  0.61247329241E+01 -0.62560675743E+02  0.28131249064E+03  0.26348362671E+03 0.  0.
         25    1    4    4    0    0  0.67463919537E+02 -0.25272199104E+02 -0.23191438935E+02  0.14620333589E+03  0.12509000000E+03 0.  0.
         25    1    3    3    0    0 -0.75906161403E+02 -0.61247329241E+01  0.10011066654E+03  0.17739478951E+03  0.12509000000E+03 0.  0.
         25    1    4    4    0    0  0.84422418665E+01  0.31396932028E+02 -0.39369236808E+02  0.13510915474E+03  0.12509000000E+03 0.  0.
<mgrwt>
<rscale>  2 0.45716777E+03</rscale>
<asrwt>0</asrwt>
<pdfrwt beam="1">  1       21 0.36489505E-01 0.45716777E+03</pdfrwt>
<pdfrwt beam="2">  1       21 0.30967448E-01 0.45716777E+03</pdfrwt>
<totfact> 0.67106871E+04</totfact>
</mgrwt>
</event>
<event>
 7    0  0.4752811E-002  0.4606701E+03  0.7546771E-02  0.1024587E+00
         21   -1    0    0  502  501  0.00000000000E+00  0.00000000000E+00  0.20817458384E+03  0.20817458384E+03  0.00000000000E+00 0. -1.
         21   -1    0    0  501  502 -0.00000000000E+00 -0.00000000000E+00 -0.25485455719E+03  0.25485455719E+03  0.00000000000E+00 0. -1.
      99926    2    1    2    0    0  0.00000000000E+00  0.00000000000E+00 -0.46679973350E+02  0.46302914103E+03  0.46067012658E+03 0.  0.
      99925    2    3    3    0    0 -0.72203186383E+02  0.30397105346E+02  0.60072458884E+02  0.28087296072E+03  0.26295177430E+03 0.  0.
         25    1    4    4    0    0 -0.33511457583E+02 -0.15132234801E+02  0.56773256276E+02  0.14220658581E+03  0.12509000000E+03 0.  0.
         25    1    4    4    0    0 -0.38691728801E+02  0.45529340147E+02  0.32992026082E+01  0.13866637491E+03  0.12509000000E+03 0.  0.
         25    1    3    3    0    0  0.72203186383E+02 -0.30397105346E+02 -0.10675243223E+03  0.18215618031E+03  0.12509000000E+03 0.  0.
<mgrwt>
<rscale>  2 0.46067013E+03</rscale>
<asrwt>0</asrwt>
<pdfrwt beam="1">  1       21 0.30613909E-01 0.46067013E+03</pdfrwt>
<pdfrwt beam="2">  1       21 0.37478611E-01 0.46067013E+03</pdfrwt>
<totfact> 0.64972100E+04</totfact>
</mgrwt>
</event>
<event>
 7    0  0.4752811E-002  0.4435026E+03  0.7546771E-02  0.1029678E+00
         21   -1    0    0  502  501  0.00000000000E+00  0.00000000000E+00  0.44955180870E+02  0.44955180870E+02  0.00000000000E+00 0.  1.
         21   -1    0    0  501  502 -0.00000000000E+00 -0.00000000000E+00 -0.10938369329E+04  0.10938369329E+04  0.00000000000E+00 0.  1.
      99926    2    1    2    0    0  0.00000000000E+00  0.00000000000E+00 -0.10488817520E+04  0.11387921138E+04  0.44350259147E+03 0.  0.
      99925    2    3    3    0    0 -0.73281997779E+02 -0.14959848903E+02 -0.48925718266E+03  0.56050047885E+03  0.26304780502E+03 0.  0.
         25    1    4    4    0    0 -0.74664783993E+02 -0.18392858932E+02 -0.29308870136E+03  0.32781339538E+03  0.12509000000E+03 0.  0.
         25    1    3    3    0    0  0.73281997779E+02  0.14959848903E+02 -0.55962456937E+03  0.57829163493E+03  0.12509000000E+03 0.  0.
         25    1    4    4    0    0  0.13827862138E+01  0.34330100298E+01 -0.19616848130E+03  0.23268708347E+03  0.12509000000E+03 0.  0.
<mgrwt>
<rscale>  2 0.44350259E+03</rscale>
<asrwt>0</asrwt>
<pdfrwt beam="1">  1       21 0.66110560E-02 0.44350259E+03</pdfrwt>
<pdfrwt beam="2">  1       21 0.16085837E+00 0.44350259E+03</pdfrwt>
<totfact> 0.37399705E+04</totfact>
</mgrwt>
</event>
<event>
 7    0  0.4752811E-002  0.4542392E+03  0.7546771E-02  0.1026465E+00
         21   -1    0    0  502  501  0.00000000000E+00  0.00000000000E+00  0.49137398344E+03  0.49137398344E+03  0.00000000000E+00 0. -1.
         21   -1    0    0  501  502 -0.00000000000E+00 -0.00000000000E+00 -0.10497772080E+03  0.10497772080E+03  0.00000000000E+00 0. -1.
      99926    2    1    2    0    0  0.71054273576E-14  0.71054273576E-14  0.38639626265E+03  0.59635170424E+03  0.45423923583E+03 0.  0.
      99925    2    3    3    0    0 -0.35767371155E+02 -0.35769109421E+02  0.11115465586E+03  0.28981592455E+03  0.26282918136E+03 0.  0.
         25    1    4    4    0    0 -0.54631302448E+02 -0.15381853883E+01  0.52938673211E+02  0.14641364842E+03  0.12509000000E+03 0.  0.
         25    1    4    4    0    0  0.18863931292E+02 -0.34230924032E+02  0.58215982654E+02  0.14340227613E+03  0.12509000000E+03 0.  0.
         25    1    3    3    0    0  0.35767371155E+02  0.35769109421E+02  0.27524160678E+03  0.30653577969E+03  0.12509000000E+03 0.  0.
<mgrwt>
<rscale>  2 0.45423924E+03</rscale>
<asrwt>0</asrwt>
<pdfrwt beam="1">  1       21 0.72260879E-01 0.45423924E+03</pdfrwt>
<pdfrwt beam="2">  1       21 0.15437900E-01 0.45423924E+03</pdfrwt>
<totfact> 0.59258831E+04</totfact>
</mgrwt>
</event>
<event>
 7    0  0.4752811E-002  0.4571909E+03  0.7546771E-02  0.1025599E+00
         21   -1    0    0  502  501  0.00000000000E+00  0.00000000000E+00  0.14495507904E+03  0.14495507904E+03  0.00000000000E+00 0.  1.
         21   -1    0    0  501  502 -0.00000000000E+00 -0.00000000000E+00 -0.36049703864E+03  0.36049703864E+03  0.00000000000E+00 0.  1.
      99926    2    1    2    0    0 -0.35527136788E-14  0.00000000000E+00 -0.21554195959E+03  0.50545211768E+03  0.45719088674E+03 0.  0.
      99925    2    3    3    0    0 -0.31747909198E+02 -0.95362037015E+02 -0.72718482788E+02  0.29063149141E+03  0.26282472909E+03 0.  0.
         25    1    4    4    0    0 -0.33709068072E+02 -0.70875116618E+02 -0.85666377136E+01  0.14792051517E+03  0.12509000000E+03 0.  0.
         25    1    3    3    0    0  0.31747909198E+02  0.95362037015E+02 -0.14282347681E+03  0.21482062627E+03  0.12509000000E+03 0.  0.
         25    1    4    4    0    0  0.19611588737E+01 -0.24486920397E+02 -0.64151845074E+02  0.14271097625E+03  0.12509000000E+03 0.  0.
<mgrwt>
<rscale>  2 0.45719089E+03</rscale>
<asrwt>0</asrwt>
<pdfrwt beam="1">  1       21 0.21316924E-01 0.45719089E+03</pdfrwt>
<pdfrwt beam="2">  1       21 0.53014269E-01 0.45719089E+03</pdfrwt>
<totfact> 0.63773057E+04</totfact>
</mgrwt>
</event>
<event>
 7    0  0.4752811E-002  0.4590552E+03  0.7546771E-02  0.1025056E+00
         21   -1    0    0  502  501  0.00000000000E+00  0.00000000000E+00  0.66556153267E+03  0.66556153267E+03  0.00000000000E+00 0.  1.
         21   -1    0    0  501  502 -0.00000000000E+00 -0.00000000000E+00 -0.79155589210E+02  0.79155589210E+02  0.00000000000E+00 0.  1.
      99926    2    1    2    0    0  0.48849813084E-14  0.00000000000E+00  0.58640594346E+03  0.74471712188E+03  0.45905518306E+03 0.  0.
      99925    2    3    3    0    0 -0.22530560328E+01  0.15267543295E+02  0.17931470829E+03  0.31856109882E+03  0.26284831164E+03 0.  0.
         25    1    4    4    0    0  0.36333128373E+02 -0.80768313946E+00  0.74239867156E+02  0.14993270005E+03  0.12509000000E+03 0.  0.
         25    1    4    4    0    0 -0.38586184406E+02  0.16075226434E+02  0.10507484114E+03  0.16862839877E+03  0.12509000000E+03 0.  0.
         25    1    3    3    0    0  0.22530560328E+01 -0.15267543295E+02  0.40709123516E+03  0.42615602306E+03  0.12509000000E+03 0.  0.
<mgrwt>
<rscale>  2 0.45905518E+03</rscale>
<asrwt>0</asrwt>
<pdfrwt beam="1">  1       21 0.97876693E-01 0.45905518E+03</pdfrwt>
<pdfrwt beam="2">  1       21 0.11640528E-01 0.45905518E+03</pdfrwt>
<totfact> 0.48961951E+04</totfact>
</mgrwt>
</event>
<event>
 7    0  0.4752811E-002  0.4536379E+03  0.7546771E-02  0.1026643E+00
         21   -1    0    0  502  501  0.00000000000E+00  0.00000000000E+00  0.10719137266E+03  0.10719137266E+03  0.00000000000E+00 0. -1.
         21   -1    0    0  501  502 -0.00000000000E+00 -0.00000000000E+00 -0.47995304343E+03  0.47995304343E+03  0.00000000000E+00 0. -1.
      99926    2    1    2    0    0  0.00000000000E+00  0.33306690739E-14 -0.37276167077E+03  0.58714441609E+03  0.45363785353E+03 0.  0.
      99925    2    3    3    0    0  0.11089641231E+03 -0.18566886255E+01 -0.21669555758E+03  0.35844023742E+03  0.26309879812E+03 0.  0.
         25    1    4    4    0    0  0.81117030126E+02  0.29014622130E+02 -0.98109754688E+02  0.18081718098E+03  0.12509000000E+03 0.  0.
         25    1    4    4    0    0  0.29779382180E+02 -0.30871310756E+02 -0.11858580289E+03  0.17762305644E+03  0.12509000000E+03 0.  0.
         25    1    3    3    0    0 -0.11089641231E+03  0.18566886255E+01 -0.15606611320E+03  0.22870417868E+03  0.12509000000E+03 0.  0.
<mgrwt>
<rscale>  2 0.45363785E+03</rscale>
<asrwt>0</asrwt>
<pdfrwt beam="1">  1       21 0.15763437E-01 0.45363785E+03</pdfrwt>
<pdfrwt beam="2">  1       21 0.70581329E-01 0.45363785E+03</pdfrwt>
<totfact> 0.60121310E+04</totfact>
</mgrwt>
</event>
<event>
 7    0  0.4752811E-002  0.4581097E+03  0.7546771E-02  0.1025331E+00
         21   -1    0    0  502  501  0.00000000000E+00  0.00000000000E+00  0.13899766749E+03  0.13899766749E+03  0.00000000000E+00 0. -1.
         21   -1    0    0  501  502 -0.00000000000E+00 -0.00000000000E+00 -0.37746043367E+03  0.37746043367E+03  0.00000000000E+00 0. -1.
      99926    2    1    2    0    0  0.35527136788E-14 -0.14210854715E-13 -0.23846276618E+03  0.51645810116E+03  0.45810968053E+03 0.  0.
      99925    2    3    3    0    0 -0.30395753706E+02  0.10524082772E+03 -0.10605304447E+03  0.30390369361E+03  0.26288908895E+03 0.  0.
         25    1    4    4    0    0 -0.43193571686E+02  0.81429080914E+02 -0.73281983724E+02  0.17179679011E+03  0.12509000000E+03 0.  0.
         25    1    3    3    0    0  0.30395753706E+02 -0.10524082772E+03 -0.13240972171E+03  0.21255440754E+03  0.12509000000E+03 0.  0.
         25    1    4    4    0    0  0.12797817980E+02  0.23811746804E+02 -0.32771060742E+02  0.13210690350E+03  0.12509000000E+03 0.  0.
<mgrwt>
<rscale>  2 0.45810968E+03</rscale>
<asrwt>0</asrwt>
<pdfrwt beam="1">  1       21 0.20440834E-01 0.45810968E+03</pdfrwt>
<pdfrwt beam="2">  1       21 0.55508886E-01 0.45810968E+03</pdfrwt>
<totfact> 0.62570922E+04</totfact>
</mgrwt>
</event>
<event>
 7    0  0.4752811E-002  0.4561869E+03  0.7546771E-02  0.1025893E+00
         21   -1    0    0  502  501  0.00000000000E+00  0.00000000000E+00  0.31909939966E+03  0.31909939966E+03  0.00000000000E+00 0.  1.
         21   -1    0    0  501  502 -0.00000000000E+00 -0.00000000000E+00 -0.16304208455E+03  0.16304208455E+03  0.00000000000E+00 0.  1.
      99926    2    1    2    0    0  0.00000000000E+00 -0.35527136788E-14  0.15605731511E+03  0.48214148420E+03  0.45618694106E+03 0.  0.
      99925    2    3    3    0    0  0.92534717969E+02 -0.20813004053E+02  0.31061242168E+02  0.28147414377E+03  0.26318631742E+03 0.  0.
         25    1    4    4    0    0  0.61935116179E+02  0.24975563045E+02  0.29251924569E+02  0.14478577470E+03  0.12509000000E+03 0.  0.
         25    1    4    4    0    0  0.30599601790E+02 -0.45788567098E+02  0.18093175996E+01  0.13668836906E+03  0.12509000000E+03 0.  0.
         25    1    3    3    0    0 -0.92534717969E+02  0.20813004053E+02  0.12499607294E+03  0.20066734044E+03  0.12509000000E+03 0.  0.
<mgrwt>
<rscale>  2 0.45618694E+03</rscale>
<asrwt>0</asrwt>
<pdfrwt beam="1">  1       21 0.46926382E-01 0.45618694E+03</pdfrwt>
<pdfrwt beam="2">  1       21 0.23976777E-01 0.45618694E+03</pdfrwt>
<totfact> 0.65921262E+04</totfact>
</mgrwt>
</event>
<event>
 7    0  0.4752811E-002  0.4501153E+03  0.7546771E-02  0.1027688E+00
         21   -1    0    0  502  501  0.00000000000E+00  0.00000000000E+00  0.23360668432E+03  0.23360668432E+03  0.00000000000E+00 0.  1.
         21   -1    0    0  501  502 -0.00000000000E+00 -0.00000000000E+00 -0.21682151301E+03  0.21682151301E+03  0.00000000000E+00 0.  1.
      99926    2    1    2    0    0  0.71054273576E-14  0.00000000000E+00  0.16785171306E+02  0.45042819733E+03  0.45011533963E+03 0.  0.
      99925    2    3    3    0    0 -0.61859232380E+02 -0.71789488223E+02  0.63568851868E+02  0.28667070554E+03  0.26298060620E+03 0.  0.
         25    1    4    4    0    0 -0.22483557405E+02 -0.60175862627E+02  0.65213344546E+02  0.15500623601E+03  0.12509000000E+03 0.  0.
         25    1    4    4    0    0 -0.39375674975E+02 -0.11613625596E+02 -0.16444926785E+01  0.13166446953E+03  0.12509000000E+03 0.  0.
         25    1    3    3    0    0  0.61859232380E+02  0.71789488223E+02 -0.46783680562E+02  0.16375749179E+03  0.12509000000E+03 0.  0.
<mgrwt>
<rscale>  2 0.45011534E+03</rscale>
<asrwt>0</asrwt>
<pdfrwt beam="1">  1       21 0.34353924E-01 0.45011534E+03</pdfrwt>
<pdfrwt beam="2">  1       21 0.31885516E-01 0.45011534E+03</pdfrwt>
<totfact> 0.71633455E+04</totfact>
</mgrwt>
</event>
<event>
 7    0  0.4752811E-002  0.4464479E+03  0.7546771E-02  0.1028787E+00
         21   -1    0    0  502  501  0.00000000000E+00  0.00000000000E+00  0.34972690700E+02  0.34972690700E+02  0.00000000000E+00 0. -1.
         21   -1    0    0  501  502 -0.00000000000E+00 -0.00000000000E+00 -0.14247953803E+04  0.14247953803E+04  0.00000000000E+00 0. -1.
      99926    2    1    2    0    0 -0.14210854715E-13  0.00000000000E+00 -0.13898226896E+04  0.14597680710E+04  0.44644788340E+03 0.  0.
      99925    2    3    3    0    0 -0.83923276347E+02  0.62307263827E+02 -0.91297657834E+03  0.95582855740E+03  0.26297659044E+03 0.  0.
         25    1    3    3    0    0  0.83923276347E+02 -0.62307263827E+02 -0.47684611131E+03  0.50393951364E+03  0.12509000000E+03 0.  0.
         25    1    4    4    0    0 -0.24477264454E+02  0.90732889599E+01 -0.32000493981E+03  0.34457529025E+03  0.12509000000E+03 0.  0.
         25    1    4    4    0    0 -0.59446011892E+02  0.53233974867E+02 -0.59297163853E+03  0.61125326716E+03  0.12509000000E+03 0.  0.
<mgrwt>
<rscale>  2 0.44644788E+03</rscale>
<asrwt>0</asrwt>
<pdfrwt beam="1">  1       21 0.51430427E-02 0.44644788E+03</pdfrwt>
<pdfrwt beam="2">  1       21 0.20952873E+00 0.44644788E+03</pdfrwt>
<totfact> 0.26499276E+04</totfact>
</mgrwt>
</event>
<event>
 7    0  0.4752811E-002  0.4663394E+03  0.7546771E-02  0.1022959E+00
         21   -1    0    0  502  501  0.00000000000E+00  0.00000000000E+00  0.49116979855E+03  0.49116979855E+03  0.00000000000E+00 0. -1.
         21   -1    0    0  501  502 -0.00000000000E+00 -0.00000000000E+00 -0.11069104983E+03  0.11069104983E+03  0.00000000000E+00 0. -1.
      99926    2    1    2    0    0  0.00000000000E+00  0.14210854715E-13  0.38047874871E+03  0.60186084838E+03  0.46633936418E+03 0.  0.
      99925    2    3    3    0    0 -0.39489006395E+02  0.10183296987E+03  0.31140471810E+03  0.42200516961E+03  0.26303256329E+03 0.  0.
         25    1    4    4    0    0  0.14599111714E+02  0.36852020502E+02  0.17340583027E+03  0.21745872149E+03  0.12509000000E+03 0.  0.
         25    1    3    3    0    0  0.39489006395E+02 -0.10183296987E+03  0.69074030618E+02  0.17985567876E+03  0.12509000000E+03 0.  0.
         25    1    4    4    0    0 -0.54088118109E+02  0.64980949364E+02  0.13799888782E+03  0.20454644813E+03  0.12509000000E+03 0.  0.
<mgrwt>
<rscale>  2 0.46633936E+03</rscale>
<asrwt>0</asrwt>
<pdfrwt beam="1">  1       21 0.72230852E-01 0.46633936E+03</pdfrwt>
<pdfrwt beam="2">  1       21 0.16278096E-01 0.46633936E+03</pdfrwt>
<totfact> 0.53597884E+04</totfact>
</mgrwt>
</event>
<event>
 7    0  0.4752811E-002  0.4594447E+03  0.7546771E-02  0.1024942E+00
         21   -1    0    0  502  501  0.00000000000E+00  0.00000000000E+00  0.14886758813E+03  0.14886758813E+03  0.00000000000E+00 0. -1.
         21   -1    0    0  501  502 -0.00000000000E+00 -0.00000000000E+00 -0.35449185395E+03  0.35449185395E+03  0.00000000000E+00 0. -1.
      99926    2    1    2    0    0 -0.35527136788E-14  0.00000000000E+00 -0.20562426582E+03  0.50335944208E+03  0.45944465307E+03 0.  0.
      99925    2    3    3    0    0  0.21306873895E+02 -0.11305665764E+03 -0.15400377423E+03  0.32574194867E+03  0.26297312398E+03 0.  0.
         25    1    3    3    0    0 -0.21306873895E+02  0.11305665764E+03 -0.51620491596E+02  0.17761749341E+03  0.12509000000E+03 0.  0.
         25    1    4    4    0    0  0.24060013903E+02 -0.56343480719E+02 -0.34100613006E+02  0.14340094838E+03  0.12509000000E+03 0.  0.
         25    1    4    4    0    0 -0.27531400080E+01 -0.56713176925E+02 -0.11990316122E+03  0.18234100029E+03  0.12509000000E+03 0.  0.
<mgrwt>
<rscale>  2 0.45944465E+03</rscale>
<asrwt>0</asrwt>
<pdfrwt beam="1">  1       21 0.21892292E-01 0.45944465E+03</pdfrwt>
<pdfrwt beam="2">  1       21 0.52131155E-01 0.45944465E+03</pdfrwt>
<totfact> 0.62790539E+04</totfact>
</mgrwt>
</event>
<event>
 7    0  0.4752811E-002  0.4532642E+03  0.7546771E-02  0.1026753E+00
         21   -1    0    0  502  501  0.00000000000E+00  0.00000000000E+00  0.64121552117E+03  0.64121552117E+03  0.00000000000E+00 0. -1.
         21   -1    0    0  501  502 -0.00000000000E+00 -0.00000000000E+00 -0.80101156199E+02  0.80101156199E+02  0.00000000000E+00 0. -1.
      99926    2    1    2    0    0  0.14210854715E-13 -0.71054273576E-14  0.56111436498E+03  0.72131667737E+03  0.45326418177E+03 0.  0.
      99925    2    3    3    0    0  0.10573658438E+03 -0.34332360231E+02  0.33859838728E+03  0.44289289128E+03  0.26295685775E+03 0.  0.
         25    1    4    4    0    0  0.22516010806E+02  0.13345300617E+02  0.14691266037E+03  0.19472007002E+03  0.12509000000E+03 0.  0.
         25    1    3    3    0    0 -0.10573658438E+03  0.34332360231E+02  0.22251597769E+03  0.27842378610E+03  0.12509000000E+03 0.  0.
         25    1    4    4    0    0  0.83220573573E+02 -0.47677660847E+02  0.19168572692E+03  0.24817282126E+03  0.12509000000E+03 0.  0.
<mgrwt>
<rscale>  2 0.45326418E+03</rscale>
<asrwt>0</asrwt>
<pdfrwt beam="1">  1       21 0.94296398E-01 0.45326418E+03</pdfrwt>
<pdfrwt beam="2">  1       21 0.11779582E-01 0.45326418E+03</pdfrwt>
<totfact> 0.52473622E+04</totfact>
</mgrwt>
</event>
<event>
 7    0  0.4752811E-002  0.4614935E+03  0.7546771E-02  0.1024349E+00
         21   -1    0    0  502  501  0.00000000000E+00  0.00000000000E+00  0.19332277706E+03  0.19332277706E+03  0.00000000000E+00 0.  1.
         21   -1    0    0  501  502 -0.00000000000E+00 -0.00000000000E+00 -0.27541535245E+03  0.27541535245E+03  0.00000000000E+00 0.  1.
      99926    2    1    2    0    0  0.35527136788E-14  0.00000000000E+00 -0.82092575394E+02  0.46873812951E+03  0.46149349196E+03 0.  0.
      99925    2    3    3    0    0 -0.13267759157E+02 -0.90668096952E+02 -0.12881035572E+03  0.30679123594E+03  0.26292968161E+03 0.  0.
         25    1    3    3    0    0  0.13267759157E+02  0.90668096952E+02  0.46717780328E+02  0.16194689357E+03  0.12509000000E+03 0.  0.
         25    1    4    4    0    0 -0.17001885136E+02 -0.83478093321E+02 -0.87442937998E+02  0.17478967838E+03  0.12509000000E+03 0.  0.
         25    1    4    4    0    0  0.37341259795E+01 -0.71900036310E+01 -0.41367417724E+02  0.13200155756E+03  0.12509000000E+03 0.  0.
<mgrwt>
<rscale>  2 0.46149349E+03</rscale>
<asrwt>0</asrwt>
<pdfrwt beam="1">  1       21 0.28429820E-01 0.46149349E+03</pdfrwt>
<pdfrwt beam="2">  1       21 0.40502258E-01 0.46149349E+03</pdfrwt>
<totfact> 0.64157308E+04</totfact>
</mgrwt>
</event>
<event>
 7    0  0.4752811E-002  0.4436724E+03  0.7546771E-02  0.1029626E+00
         21   -1    0    0  502  501  0.00000000000E+00  0.00000000000E+00  0.37417237662E+02  0.37417237662E+02  0.00000000000E+00 0.  1.
         21   -1    0    0  501  502 -0.00000000000E+00 -0.00000000000E+00 -0.13152040871E+04  0.13152040871E+04  0.00000000000E+00 0.  1.
      99926    2    1    2    0    0  0.71054273576E-14  0.00000000000E+00 -0.12777868495E+04  0.13526213248E+04  0.44367241925E+03 0.  0.
      99925    2    3    3    0    0 -0.58125225013E+02  0.72851150950E+02 -0.68520227285E+03  0.73984908282E+03  0.26303740924E+03 0.  0.
         25    1    4    4    0    0 -0.23050165067E+02  0.39289769051E+02 -0.44759506249E+03  0.46697306574E+03  0.12509000000E+03 0.  0.
         25    1    3    3    0    0  0.58125225013E+02 -0.72851150950E+02 -0.59258457662E+03  0.61277224197E+03  0.12509000000E+03 0.  0.
         25    1    4    4    0    0 -0.35075059946E+02  0.33561381899E+02 -0.23760721036E+03  0.27287601708E+03  0.12509000000E+03 0.  0.
<mgrwt>
<rscale>  2 0.44367242E+03</rscale>
<asrwt>0</asrwt>
<pdfrwt beam="1">  1       21 0.55025356E-02 0.44367242E+03</pdfrwt>
<pdfrwt beam="2">  1       21 0.19341234E+00 0.44367242E+03</pdfrwt>
<totfact> 0.30194857E+04</totfact>
</mgrwt>
</event>
<event>
 7    0  0.4752811E-002  0.4633396E+03  0.7546771E-02  0.1023817E+00
         21   -1    0    0  502  501  0.00000000000E+00  0.00000000000E+00  0.45696791605E+03  0.45696791605E+03  0.00000000000E+00 0. -1.
         21   -1    0    0  501  502 -0.00000000000E+00 -0.00000000000E+00 -0.11745003726E+03  0.11745003726E+03  0.00000000000E+00 0. -1.
      99926    2    1    2    0    0  0.14210854715E-13  0.00000000000E+00  0.33951787879E+03  0.57441795331E+03  0.46333961095E+03 0.  0.
      99925    2    3    3    0    0 -0.10981014559E+03  0.41106439780E+02  0.17473856290E+03  0.33662026933E+03  0.26273871601E+03 0.  0.
         25    1    3    3    0    0  0.10981014559E+03 -0.41106439780E+02  0.16477931589E+03  0.23779768399E+03  0.12509000000E+03 0.  0.
         25    1    4    4    0    0 -0.29411289940E+02  0.29111451699E+02  0.11844543035E+03  0.17717033800E+03  0.12509000000E+03 0.  0.
         25    1    4    4    0    0 -0.80398855645E+02  0.11994988080E+02  0.56293132553E+02  0.15944993133E+03  0.12509000000E+03 0.  0.
<mgrwt>
<rscale>  2 0.46333961E+03</rscale>
<asrwt>0</asrwt>
<pdfrwt beam="1">  1       21 0.67201164E-01 0.46333961E+03</pdfrwt>
<pdfrwt beam="2">  1       21 0.17272064E-01 0.46333961E+03</pdfrwt>
<totfact> 0.56464660E+04</totfact>
</mgrwt>
</event>
<event>
 7    0  0.4752811E-002  0.4519022E+03  0.7546771E-02  0.1027156E+00
         21   -1    0    0  502  501  0.00000000000E+00  0.00000000000E+00  0.10039292309E+03  0.10039292309E+03  0.00000000000E+00 0. -1.
         21   -1    0    0  501  502 -0.00000000000E+00 -0.00000000000E+00 -0.50854074412E+03  0.50854074412E+03  0.00000000000E+00 0. -1.
      99926    2    1    2    0    0 -0.14210854715E-13  0.00000000000E+00 -0.40814782103E+03  0.60893366722E+03  0.45190216559E+03 0.  0.
      99925    2    3    3    0    0 -0.79048164378E+02  0.77107620879E+02 -0.25005906776E+03  0.37907771342E+03  0.26263316232E+03 0.  0.
         25    1    3    3    0    0  0.79048164378E+02 -0.77107620879E+02 -0.15808875327E+03  0.22985595380E+03  0.12509000000E+03 0.  0.
         25    1    4    4    0    0 -0.75266860517E+02  0.40528016009E+02 -0.10679459222E+03  0.18536508140E+03  0.12509000000E+03 0.  0.
         25    1    4    4    0    0 -0.37813038613E+01  0.36579604870E+02 -0.14326447554E+03  0.19371263202E+03  0.12509000000E+03 0.  0.
<mgrwt>
<rscale>  2 0.45190217E+03</rscale>
<asrwt>0</asrwt>
<pdfrwt beam="1">  1       21 0.14763665E-01 0.45190217E+03</pdfrwt>
<pdfrwt beam="2">  1       21 0.74785404E-01 0.45190217E+03</pdfrwt>
<totfact> 0.59576218E+04</totfact>
</mgrwt>
</event>
<event>
 7    0  0.4752811E-002  0.4537828E+03  0.7546771E-02  0.1026600E+00
         21   -1    0    0  502  501  0.00000000000E+00  0.00000000000E+00  0.57959778370E+03  0.57959778370E+03  0.00000000000E+00 0. -1.
         21   -1    0    0  501  502 -0.00000000000E+00 -0.00000000000E+00 -0.88819698330E+02  0.88819698330E+02  0.00000000000E+00 0. -1.
      99926    2    1    2    0    0  0.71054273576E-14  0.14210854715E-13  0.49077808537E+03  0.66841748203E+03  0.45378276874E+03 0.  0.
      99925    2    3    3    0    0  0.47620386402E+02  0.96050987268E+02  0.35942285331E+03  0.45771580087E+03  0.26234609493E+03 0.  0.
         25    1    4    4    0    0  0.83639377165E+01  0.69765798117E+02  0.23341282443E+03  0.27398225626E+03  0.12509000000E+03 0.  0.
         25    1    4    4    0    0  0.39256448686E+02  0.26285189151E+02  0.12601002889E+03  0.18373354460E+03  0.12509000000E+03 0.  0.
         25    1    3    3    0    0 -0.47620386402E+02 -0.96050987268E+02  0.13135523206E+03  0.21070168116E+03  0.12509000000E+03 0.  0.
<mgrwt>
<rscale>  2 0.45378277E+03</rscale>
<asrwt>0</asrwt>
<pdfrwt beam="1">  1       21 0.85234967E-01 0.45378277E+03</pdfrwt>
<pdfrwt beam="2">  1       21 0.13061721E-01 0.45378277E+03</pdfrwt>
<totfact> 0.55179024E+04</totfact>
</mgrwt>
</event>
<event>
 7    0  0.4752811E-002  0.4459982E+03  0.7546771E-02  0.1028922E+00
         21   -1    0    0  502  501  0.00000000000E+00  0.00000000000E+00  0.82240414994E+02  0.82240414994E+02  0.00000000000E+00 0. -1.
         21   -1    0    0  501  502 -0.00000000000E+00 -0.00000000000E+00 -0.60467343905E+03  0.60467343905E+03  0.00000000000E+00 0. -1.
      99926    2    1    2    0    0  0.00000000000E+00  0.00000000000E+00 -0.52243302406E+03  0.68691385405E+03  0.44599818190E+03 0.  0.
      99925    2    3    3    0    0  0.20231313634E+02 -0.60770465279E+02 -0.45868472702E+03  0.53259694319E+03  0.26299328811E+03 0.  0.
         25    1    3    3    0    0 -0.20231313634E+02  0.60770465279E+02 -0.63748297041E+02  0.15431691086E+03  0.12509000000E+03 0.  0.
         25    1    4    4    0    0  0.19080086339E+02  0.65382899447E+01 -0.24804799207E+03  0.27853565912E+03  0.12509000000E+03 0.  0.
         25    1    4    4    0    0  0.11512272957E+01 -0.67308755223E+02 -0.21063673495E+03  0.25406128407E+03  0.12509000000E+03 0.  0.
<mgrwt>
<rscale>  2 0.44599818E+03</rscale>
<asrwt>0</asrwt>
<pdfrwt beam="1">  1       21 0.12094178E-01 0.44599818E+03</pdfrwt>
<pdfrwt beam="2">  1       21 0.88922566E-01 0.44599818E+03</pdfrwt>
<totfact> 0.57593612E+04</totfact>
</mgrwt>
</event>
<event>
 7    0  0.4752811E-002  0.4579041E+03  0.7546771E-02  0.1025391E+00
         21   -1    0    0  502  501  0.00000000000E+00  0.00000000000E+00  0.16371087507E+03  0.16371087507E+03  0.00000000000E+00 0.  1.
         21   -1    0    0  501  502 -0.00000000000E+00 -0.00000000000E+00 -0.32019273260E+03  0.32019273260E+03  0.00000000000E+00 0.  1.
      99926    2    1    2    0    0  0.00000000000E+00  0.00000000000E+00 -0.15648185754E+03  0.48390360767E+03  0.45790406176E+03 0.  0.
      99925    2    3    3    0    0  0.17885449720E+01  0.94327684606E+02 -0.27110971444E+02  0.28071589828E+03  0.26299334554E+03 0.  0.
         25    1    4    4    0    0 -0.18645305576E+02  0.58104035821E+02 -0.48048366055E+02  0.14724089099E+03  0.12509000000E+03 0.  0.
         25    1    4    4    0    0  0.20433850548E+02  0.36223648785E+02  0.20937394611E+02  0.13347500730E+03  0.12509000000E+03 0.  0.
         25    1    3    3    0    0 -0.17885449720E+01 -0.94327684606E+02 -0.12937088609E+03  0.20318770938E+03  0.12509000000E+03 0.  0.
<mgrwt>
<rscale>  2 0.45790406E+03</rscale>
<asrwt>0</asrwt>
<pdfrwt beam="1">  1       21 0.24075129E-01 0.45790406E+03</pdfrwt>
<pdfrwt beam="2">  1       21 0.47087166E-01 0.45790406E+03</pdfrwt>
<totfact> 0.64907804E+04</totfact>
</mgrwt>
</event>
<event>
 7    0  0.4752811E-002  0.4700934E+03  0.7546771E-02  0.1021894E+00
         21   -1    0    0  502  501  0.00000000000E+00  0.00000000000E+00  0.23846731869E+03  0.23846731869E+03  0.00000000000E+00 0.  1.
         21   -1    0    0  501  502 -0.00000000000E+00 -0.00000000000E+00 -0.23167517362E+03  0.23167517362E+03  0.00000000000E+00 0.  1.
      99926    2    1    2    0    0 -0.14210854715E-13  0.00000000000E+00  0.67921450751E+01  0.47014249231E+03  0.47009342672E+03 0.  0.
      99925    2    3    3    0    0 -0.91563377083E+02  0.44201738756E+02 -0.71514906590E+02  0.29092991415E+03  0.26303647532E+03 0.  0.
         25    1    4    4    0    0 -0.28443899041E+02  0.13002455725E+02 -0.71392370256E+02  0.14738554162E+03  0.12509000000E+03 0.  0.
         25    1    3    3    0    0  0.91563377083E+02 -0.44201738756E+02  0.78307051665E+02  0.17921257816E+03  0.12509000000E+03 0.  0.
         25    1    4    4    0    0 -0.63119478042E+02  0.31199283031E+02 -0.12253633395E+00  0.14354437253E+03  0.12509000000E+03 0.  0.
<mgrwt>
<rscale>  2 0.47009343E+03</rscale>
<asrwt>0</asrwt>
<pdfrwt beam="1">  1       21 0.35068723E-01 0.47009343E+03</pdfrwt>
<pdfrwt beam="2">  1       21 0.34069879E-01 0.47009343E+03</pdfrwt>
<totfact> 0.59904496E+04</totfact>
</mgrwt>
</event>
<event>
 7    0  0.4752811E-002  0.4452215E+03  0.7546771E-02  0.1029157E+00
         21   -1    0    0  502  501  0.00000000000E+00  0.00000000000E+00  0.25589655477E+03  0.25589655477E+03  0.00000000000E+00 0. -1.
         21   -1    0    0  501  502 -0.00000000000E+00 -0.00000000000E+00 -0.19365457431E+03  0.19365457431E+03  0.00000000000E+00 0. -1.
      99926    2    1    2    0    0  0.00000000000E+00  0.00000000000E+00  0.62241980463E+02  0.44955112908E+03  0.44522146571E+03 0.  0.
      99925    2    3    3    0    0  0.13655509545E+02  0.10156518386E+03  0.55935053750E+02  0.28772021443E+03  0.26296811981E+03 0.  0.
         25    1    4    4    0    0  0.21064544999E+02  0.60019148304E+02 -0.89520546063E+01  0.14061884867E+03  0.12509000000E+03 0.  0.
         25    1    3    3    0    0 -0.13655509545E+02 -0.10156518386E+03  0.63069267130E+01  0.16183091466E+03  0.12509000000E+03 0.  0.
         25    1    4    4    0    0 -0.74090354543E+01  0.41546035560E+02  0.64887108356E+02  0.14710136576E+03  0.12509000000E+03 0.  0.
<mgrwt>
<rscale>  2 0.44522147E+03</rscale>
<asrwt>0</asrwt>
<pdfrwt beam="1">  1       21 0.37631847E-01 0.44522147E+03</pdfrwt>
<pdfrwt beam="2">  1       21 0.28478614E-01 0.44522147E+03</pdfrwt>
<totfact> 0.74598626E+04</totfact>
</mgrwt>
</event>
<event>
 7    0  0.4752811E-002  0.4502647E+03  0.7546771E-02  0.1027643E+00
         21   -1    0    0  502  501  0.00000000000E+00  0.00000000000E+00  0.24684766002E+02  0.24684766002E+02  0.00000000000E+00 0.  1.
         21   -1    0    0  501  502 -0.00000000000E+00 -0.00000000000E+00 -0.20532738534E+04  0.20532738534E+04  0.00000000000E+00 0.  1.
      99926    2    1    2    0    0 -0.26645352591E-14  0.00000000000E+00 -0.20285890874E+04  0.20779586194E+04  0.45026474261E+03 0.  0.
      99925    2    3    3    0    0 -0.66422376448E+00 -0.10404551697E+03 -0.11369074868E+04  0.11715539108E+04  0.26297152246E+03 0.  0.
         25    1    4    4    0    0  0.22533660326E+02 -0.44765367898E+02 -0.69319546070E+03  0.70617218782E+03  0.12509000000E+03 0.  0.
         25    1    3    3    0    0  0.66422376448E+00  0.10404551697E+03 -0.89168160064E+03  0.90640470862E+03  0.12509000000E+03 0.  0.
         25    1    4    4    0    0 -0.23197884090E+02 -0.59280149070E+02 -0.44371202607E+03  0.46538172298E+03  0.12509000000E+03 0.  0.
<mgrwt>
<rscale>  2 0.45026474E+03</rscale>
<asrwt>0</asrwt>
<pdfrwt beam="1">  1       21 0.36301120E-02 0.45026474E+03</pdfrwt>
<pdfrwt beam="2">  1       21 0.30195209E+00 0.45026474E+03</pdfrwt>
<totfact> 0.12948107E+04</totfact>
</mgrwt>
</event>
<event>
 7    0  0.4752811E-002  0.4736491E+03  0.7546771E-02  0.1020895E+00
         21   -1    0    0  502  501  0.00000000000E+00  0.00000000000E+00  0.45358314689E+03  0.45358314689E+03  0.00000000000E+00 0. -1.
         21   -1    0    0  501  502 -0.00000000000E+00 -0.00000000000E+00 -0.12365069813E+03  0.12365069813E+03  0.00000000000E+00 0. -1.
      99926    2    1    2    0    0  0.35527136788E-14  0.00000000000E+00  0.32993244876E+03  0.57723384502E+03  0.47364912234E+03 0.  0.
      99925    2    3    3    0    0  0.31870011795E+02 -0.73392614297E+02  0.79365416587E+02  0.28597190243E+03  0.26282862505E+03 0.  0.
         25    1    4    4    0    0  0.41450949077E+02 -0.21705663094E+02  0.67839714498E+02  0.14979670208E+03  0.12509000000E+03 0.  0.
         25    1    4    4    0    0 -0.95809372823E+01 -0.51686951203E+02  0.11525702090E+02  0.13617520036E+03  0.12509000000E+03 0.  0.
         25    1    3    3    0    0 -0.31870011795E+02  0.73392614297E+02  0.25056703218E+03  0.29126194259E+03  0.12509000000E+03 0.  0.
<mgrwt>
<rscale>  2 0.47364912E+03</rscale>
<asrwt>0</asrwt>
<pdfrwt beam="1">  1       21 0.66703403E-01 0.47364912E+03</pdfrwt>
<pdfrwt beam="2">  1       21 0.18183926E-01 0.47364912E+03</pdfrwt>
<totfact> 0.51999510E+04</totfact>
</mgrwt>
</event>
<event>
 7    0  0.4752811E-002  0.4416035E+03  0.7546771E-02  0.1030256E+00
         21   -1    0    0  502  501  0.00000000000E+00  0.00000000000E+00  0.21976530991E+03  0.21976530991E+03  0.00000000000E+00 0. -1.
         21   -1    0    0  501  502 -0.00000000000E+00 -0.00000000000E+00 -0.22184304837E+03  0.22184304837E+03  0.00000000000E+00 0. -1.
      99926    2    1    2    0    0  0.14210854715E-13 -0.14210854715E-13 -0.20777384608E+01  0.44160835828E+03  0.44160347044E+03 0.  0.
      99925    2    3    3    0    0 -0.66568291709E+02  0.65686638800E+02 -0.37096836991E+02  0.28154612869E+03  0.26295622314E+03 0.  0.
         25    1    4    4    0    0 -0.70110318423E+02  0.33963981092E+02 -0.38982233972E+02  0.15243402319E+03  0.12509000000E+03 0.  0.
         25    1    4    4    0    0  0.35420267137E+01  0.31722657708E+02  0.18853969807E+01  0.12911210550E+03  0.12509000000E+03 0.  0.
         25    1    3    3    0    0  0.66568291709E+02 -0.65686638800E+02  0.35019098530E+02  0.16006222959E+03  0.12509000000E+03 0.  0.
<mgrwt>
<rscale>  2 0.44160347E+03</rscale>
<asrwt>0</asrwt>
<pdfrwt beam="1">  1       21 0.32318428E-01 0.44160347E+03</pdfrwt>
<pdfrwt beam="2">  1       21 0.32623977E-01 0.44160347E+03</pdfrwt>
<totfact> 0.77496420E+04</totfact>
</mgrwt>
</event>
<event>
 7    0  0.4752811E-002  0.4588746E+03  0.7546771E-02  0.1025108E+00
         21   -1    0    0  502  501  0.00000000000E+00  0.00000000000E+00  0.62711168468E+02  0.62711168468E+02  0.00000000000E+00 0. -1.
         21   -1    0    0  501  502 -0.00000000000E+00 -0.00000000000E+00 -0.83942737576E+03  0.83942737576E+03  0.00000000000E+00 0. -1.
      99926    2    1    2    0    0 -0.88817841970E-15 -0.14210854715E-13 -0.77671620730E+03  0.90213854423E+03  0.45887458669E+03 0.  0.
      99925    2    3    3    0    0 -0.41531101881E+01  0.10893703466E+03 -0.57112636543E+03  0.63794312977E+03  0.26249111544E+03 0.  0.
         25    1    3    3    0    0  0.41531101881E+01 -0.10893703466E+03 -0.20558984186E+03  0.26419541446E+03  0.12509000000E+03 0.  0.
         25    1    4    4    0    0  0.21674207721E+02  0.54196822739E+02 -0.21318798972E+03  0.25397577431E+03  0.12509000000E+03 0.  0.
         25    1    4    4    0    0 -0.25827317909E+02  0.54740211923E+02 -0.35793837572E+03  0.38396735547E+03  0.12509000000E+03 0.  0.
<mgrwt>
<rscale>  2 0.45887459E+03</rscale>
<asrwt>0</asrwt>
<pdfrwt beam="1">  1       21 0.92222308E-02 0.45887459E+03</pdfrwt>
<pdfrwt beam="2">  1       21 0.12344520E+00 0.45887459E+03</pdfrwt>
<totfact> 0.41857095E+04</totfact>
</mgrwt>
</event>
<event>
 7    0  0.4752811E-002  0.4559425E+03  0.7546771E-02  0.1025965E+00
         21   -1    0    0  502  501  0.00000000000E+00  0.00000000000E+00  0.96496337248E+03  0.96496337248E+03  0.00000000000E+00 0.  1.
         21   -1    0    0  501  502 -0.00000000000E+00 -0.00000000000E+00 -0.53857879226E+02  0.53857879226E+02  0.00000000000E+00 0.  1.
      99926    2    1    2    0    0  0.00000000000E+00  0.00000000000E+00  0.91110549325E+03  0.10188212517E+04  0.45594245590E+03 0.  0.
      99925    2    3    3    0    0 -0.22728856016E+02 -0.54575889932E+02  0.35519174391E+03  0.44594889815E+03  0.26308575819E+03 0.  0.
         25    1    4    4    0    0  0.19303849897E+02 -0.12727697578E+02  0.13208855343E+03  0.18338355148E+03  0.12509000000E+03 0.  0.
         25    1    3    3    0    0  0.22728856016E+02  0.54575889932E+02  0.55591374935E+03  0.57287235356E+03  0.12509000000E+03 0.  0.
         25    1    4    4    0    0 -0.42032705912E+02 -0.41848192354E+02  0.22310319048E+03  0.26256534667E+03  0.12509000000E+03 0.  0.
<mgrwt>
<rscale>  2 0.45594246E+03</rscale>
<asrwt>0</asrwt>
<pdfrwt beam="1">  1       21 0.14190637E+00 0.45594246E+03</pdfrwt>
<pdfrwt beam="2">  1       21 0.79202769E-02 0.45594246E+03</pdfrwt>
<totfact> 0.38161024E+04</totfact>
</mgrwt>
</event>
<event>
 7    0  0.4752811E-002  0.4509567E+03  0.7546771E-02  0.1027437E+00
         21   -1    0    0  502  501  0.00000000000E+00  0.00000000000E+00  0.31012243086E+03  0.31012243086E+03  0.00000000000E+00 0.  1.
         21   -1    0    0  501  502 -0.00000000000E+00 -0.00000000000E+00 -0.16393678794E+03  0.16393678794E+03  0.00000000000E+00 0.  1.
      99926    2    1    2    0    0 -0.25118795932E-14  0.14210854715E-13  0.14618564292E+03  0.47405921880E+03  0.45095665062E+03 0.  0.
      99925    2    3    3    0    0 -0.77323029785E-01  0.96614001070E+02  0.38527790251E+02  0.28282116683E+03  0.26300028632E+03 0.  0.
         25    1    3    3    0    0  0.77323029785E-01 -0.96614001070E+02  0.10765785267E+03  0.19123805198E+03  0.12509000000E+03 0.  0.
         25    1    4    4    0    0  0.20335440823E+02  0.34756230445E+02  0.51607432020E+02  0.14118201319E+03  0.12509000000E+03 0.  0.
         25    1    4    4    0    0 -0.20412763853E+02  0.61857770625E+02 -0.13079641768E+02  0.14163915364E+03  0.12509000000E+03 0.  0.
<mgrwt>
<rscale>  2 0.45095665E+03</rscale>
<asrwt>0</asrwt>
<pdfrwt beam="1">  1       21 0.45606240E-01 0.45095665E+03</pdfrwt>
<pdfrwt beam="2">  1       21 0.24108351E-01 0.45095665E+03</pdfrwt>
<totfact> 0.69333454E+04</totfact>
</mgrwt>
</event>
<event>
 7    0  0.4752811E-002  0.4389577E+03  0.7546771E-02  0.1031067E+00
         21   -1    0    0  502  501  0.00000000000E+00  0.00000000000E+00  0.21318633182E+03  0.21318633182E+03  0.00000000000E+00 0. -1.
         21   -1    0    0  501  502 -0.00000000000E+00 -0.00000000000E+00 -0.22595711943E+03  0.22595711943E+03  0.00000000000E+00 0. -1.
      99926    2    1    2    0    0  0.00000000000E+00  0.00000000000E+00 -0.12770787615E+02  0.43914345125E+03  0.43895771751E+03 0.  0.
      99925    2    3    3    0    0 -0.52619494511E+02  0.67745291299E+02  0.37760310163E+02  0.27927120339E+03  0.26307475805E+03 0.  0.
         25    1    4    4    0    0 -0.45877272785E+02 -0.29504962212E+00  0.69253673464E+01  0.13341769008E+03  0.12509000000E+03 0.  0.
         25    1    4    4    0    0 -0.67422217260E+01  0.68040340921E+02  0.30834942817E+02  0.14585351331E+03  0.12509000000E+03 0.  0.
         25    1    3    3    0    0  0.52619494511E+02 -0.67745291299E+02 -0.50531097778E+02  0.15987224787E+03  0.12509000000E+03 0.  0.
<mgrwt>
<rscale>  2 0.43895772E+03</rscale>
<asrwt>0</asrwt>
<pdfrwt beam="1">  1       21 0.31350931E-01 0.43895772E+03</pdfrwt>
<pdfrwt beam="2">  1       21 0.33228988E-01 0.43895772E+03</pdfrwt>
<totfact> 0.79411649E+04</totfact>
</mgrwt>
</event>
<event>
 7    0  0.4752811E-002  0.4467779E+03  0.7546771E-02  0.1028687E+00
         21   -1    0    0  502  501  0.00000000000E+00  0.00000000000E+00  0.74212508574E+03  0.74212508574E+03  0.00000000000E+00 0. -1.
         21   -1    0    0  501  502 -0.00000000000E+00 -0.00000000000E+00 -0.67242877337E+02  0.67242877337E+02  0.00000000000E+00 0. -1.
      99926    2    1    2    0    0  0.00000000000E+00  0.00000000000E+00  0.67488220841E+03  0.80936796308E+03  0.44677791400E+03 0.  0.
      99925    2    3    3    0    0 -0.82881018818E+02  0.60570715188E+02  0.46991425610E+03  0.54822155895E+03  0.26303877051E+03 0.  0.
         25    1    4    4    0    0 -0.36675427300E+02  0.24653721872E+02  0.15290250242E+03  0.20243412834E+03  0.12509000000E+03 0.  0.
         25    1    4    4    0    0 -0.46205591518E+02  0.35916993316E+02  0.31701175368E+03  0.34578743061E+03  0.12509000000E+03 0.  0.
         25    1    3    3    0    0  0.82881018818E+02 -0.60570715188E+02  0.20496795231E+03  0.26114640413E+03  0.12509000000E+03 0.  0.
<mgrwt>
<rscale>  2 0.44677791E+03</rscale>
<asrwt>0</asrwt>
<pdfrwt beam="1">  1       21 0.10913604E+00 0.44677791E+03</pdfrwt>
<pdfrwt beam="2">  1       21 0.98886588E-02 0.44677791E+03</pdfrwt>
<totfact> 0.50495044E+04</totfact>
</mgrwt>
</event>
<event>
 7    0  0.4752811E-002  0.4608099E+03  0.7546771E-02  0.1024547E+00
         21   -1    0    0  502  501  0.00000000000E+00  0.00000000000E+00  0.44604072752E+03  0.44604072752E+03  0.00000000000E+00 0. -1.
         21   -1    0    0  501  502 -0.00000000000E+00 -0.00000000000E+00 -0.11901701969E+03  0.11901701969E+03  0.00000000000E+00 0. -1.
      99926    2    1    2    0    0  0.00000000000E+00  0.35527136788E-14  0.32702370783E+03  0.56505774721E+03  0.46080988726E+03 0.  0.
      99925    2    3    3    0    0  0.36474510050E+02  0.28352463989E+02  0.33875619193E+03  0.43119434153E+03  0.26275188011E+03 0.  0.
         25    1    4    4    0    0  0.27457358549E+02 -0.18566796018E+02  0.13189720199E+03  0.18477827915E+03  0.12509000000E+03 0.  0.
         25    1    3    3    0    0 -0.36474510050E+02 -0.28352463989E+02 -0.11732484097E+02  0.13386340568E+03  0.12509000000E+03 0.  0.
         25    1    4    4    0    0  0.90171515019E+01  0.46919260007E+02  0.20685898994E+03  0.24641606238E+03  0.12509000000E+03 0.  0.
<mgrwt>
<rscale>  2 0.46080989E+03</rscale>
<asrwt>0</asrwt>
<pdfrwt beam="1">  1       21 0.65594224E-01 0.46080989E+03</pdfrwt>
<pdfrwt beam="2">  1       21 0.17502503E-01 0.46080989E+03</pdfrwt>
<totfact> 0.58163268E+04</totfact>
</mgrwt>
</event>
<event>
 7    0  0.4752811E-002  0.4533911E+03  0.7546771E-02  0.1026716E+00
         21   -1    0    0  502  501  0.00000000000E+00  0.00000000000E+00  0.30948939339E+02  0.30948939339E+02  0.00000000000E+00 0.  1.
         21   -1    0    0  501  502 -0.00000000000E+00 -0.00000000000E+00 -0.16605050250E+04  0.16605050250E+04  0.00000000000E+00 0.  1.
      99926    2    1    2    0    0  0.00000000000E+00  0.00000000000E+00 -0.16295560857E+04  0.16914539644E+04  0.45339108633E+03 0.  0.
      99925    2    3    3    0    0  0.20182104958E+02  0.57196187539E+02 -0.13764323961E+04  0.14026671372E+04  0.26311639143E+03 0.  0.
         25    1    3    3    0    0 -0.20182104958E+02 -0.57196187539E+02 -0.25312368958E+03  0.28878682718E+03  0.12509000000E+03 0.  0.
         25    1    4    4    0    0 -0.19315487582E+02  0.26622696812E+01 -0.71904956634E+03  0.73010955526E+03  0.12509000000E+03 0.  0.
         25    1    4    4    0    0  0.39497592540E+02  0.54533917858E+02 -0.65738282978E+03  0.67255758192E+03  0.12509000000E+03 0.  0.
<mgrwt>
<rscale>  2 0.45339109E+03</rscale>
<asrwt>0</asrwt>
<pdfrwt beam="1">  1       21 0.45513132E-02 0.45339109E+03</pdfrwt>
<pdfrwt beam="2">  1       21 0.24419199E+00 0.45339109E+03</pdfrwt>
<totfact> 0.19684717E+04</totfact>
</mgrwt>
</event>
<event>
 7    0  0.4752811E-002  0.4530891E+03  0.7546771E-02  0.1026805E+00
         21   -1    0    0  502  501  0.00000000000E+00  0.00000000000E+00  0.49232893624E+03  0.49232893624E+03  0.00000000000E+00 0.  1.
         21   -1    0    0  501  502 -0.00000000000E+00 -0.00000000000E+00 -0.10424420028E+03  0.10424420028E+03  0.00000000000E+00 0.  1.
      99926    2    1    2    0    0  0.00000000000E+00  0.00000000000E+00  0.38808473597E+03  0.59657313652E+03  0.45308911367E+03 0.  0.
      99925    2    3    3    0    0 -0.22986320260E+01  0.11131378592E+03  0.24414604120E+03  0.37575217149E+03  0.26303300611E+03 0.  0.
         25    1    4    4    0    0 -0.60276158144E+00  0.52739988219E+02  0.17439840784E+03  0.22100719996E+03  0.12509000000E+03 0.  0.
         25    1    3    3    0    0  0.22986320260E+01 -0.11131378592E+03  0.14393869477E+03  0.22082096503E+03  0.12509000000E+03 0.  0.
         25    1    4    4    0    0 -0.16958704446E+01  0.58573797701E+02  0.69747633366E+02  0.15474497153E+03  0.12509000000E+03 0.  0.
<mgrwt>
<rscale>  2 0.45308911E+03</rscale>
<asrwt>0</asrwt>
<pdfrwt beam="1">  1       21 0.72401313E-01 0.45308911E+03</pdfrwt>
<pdfrwt beam="2">  1       21 0.15330030E-01 0.45308911E+03</pdfrwt>
<totfact> 0.59787370E+04</totfact>
</mgrwt>
</event>
<event>
 7    0  0.4752811E-002  0.4483220E+03  0.7546771E-02  0.1028224E+00
         21   -1    0    0  502  501  0.00000000000E+00  0.00000000000E+00  0.29201385350E+02  0.29201385350E+02  0.00000000000E+00 0. -1.
         21   -1    0    0  501  502 -0.00000000000E+00 -0.00000000000E+00 -0.17207456253E+04  0.17207456253E+04  0.00000000000E+00 0. -1.
      99926    2    1    2    0    0  0.71054273576E-14  0.14210854715E-13 -0.16915442399E+04  0.17499470106E+04  0.44832200969E+03 0.  0.
      99925    2    3    3    0    0  0.55160044975E+02  0.84439687864E+02 -0.12078052911E+04  0.12402180923E+04  0.26301065350E+03 0.  0.
         25    1    4    4    0    0  0.41455060633E+02  0.30393315628E+01 -0.56576568917E+03  0.58091830986E+03  0.12509000000E+03 0.  0.
         25    1    3    3    0    0 -0.55160044975E+02 -0.84439687864E+02 -0.48373894878E+03  0.50972891827E+03  0.12509000000E+03 0.  0.
         25    1    4    4    0    0  0.13704984342E+02  0.81400356301E+02 -0.64203960195E+03  0.65929978247E+03  0.12509000000E+03 0.  0.
<mgrwt>
<rscale>  2 0.44832201E+03</rscale>
<asrwt>0</asrwt>
<pdfrwt beam="1">  1       21 0.42943221E-02 0.44832201E+03</pdfrwt>
<pdfrwt beam="2">  1       21 0.25305078E+00 0.44832201E+03</pdfrwt>
<totfact> 0.19218601E+04</totfact>
</mgrwt>
</event>
<event>
 7    0  0.4752811E-002  0.4450889E+03  0.7546771E-02  0.1029197E+00
         21   -1    0    0  502  501  0.00000000000E+00  0.00000000000E+00  0.36371056692E+03  0.36371056692E+03  0.00000000000E+00 0.  1.
         21   -1    0    0  501  502 -0.00000000000E+00 -0.00000000000E+00 -0.13616878208E+03  0.13616878208E+03  0.00000000000E+00 0.  1.
      99926    2    1    2    0    0  0.71054273576E-14  0.00000000000E+00  0.22754178484E+03  0.49987934899E+03  0.44508886720E+03 0.  0.
      99925    2    3    3    0    0  0.55415591445E+02  0.13413691868E+02  0.47389637371E+02  0.27326708268E+03  0.26301769112E+03 0.  0.
         25    1    4    4    0    0  0.11737570457E+02  0.32108471288E+02 -0.44848327130E+01  0.12975494716E+03  0.12509000000E+03 0.  0.
         25    1    3    3    0    0 -0.55415591445E+02 -0.13413691868E+02  0.18015214747E+03  0.22661226631E+03  0.12509000000E+03 0.  0.
         25    1    4    4    0    0  0.43678020988E+02 -0.18694779420E+02  0.51874470084E+02  0.14351213552E+03  0.12509000000E+03 0.  0.
<mgrwt>
<rscale>  2 0.44508887E+03</rscale>
<asrwt>0</asrwt>
<pdfrwt beam="1">  1       21 0.53486848E-01 0.44508887E+03</pdfrwt>
<pdfrwt beam="2">  1       21 0.20024821E-01 0.44508887E+03</pdfrwt>
<totfact> 0.70677559E+04</totfact>
</mgrwt>
</event>
<event>
 7    0  0.4752811E-002  0.4571760E+03  0.7546771E-02  0.1025603E+00
         21   -1    0    0  502  501  0.00000000000E+00  0.00000000000E+00  0.79194025216E+03  0.79194025216E+03  0.00000000000E+00 0. -1.
         21   -1    0    0  501  502 -0.00000000000E+00 -0.00000000000E+00 -0.65980314378E+02  0.65980314378E+02  0.00000000000E+00 0. -1.
      99926    2    1    2    0    0 -0.71054273576E-14  0.00000000000E+00  0.72595993778E+03  0.85792056654E+03  0.45717596965E+03 0.  0.
      99925    2    3    3    0    0 -0.39045563863E+02 -0.15933054182E+02  0.65717857688E+03  0.70906895593E+03  0.26290052126E+03 0.  0.
         25    1    4    4    0    0  0.19110463215E+02 -0.11632222871E+02  0.28195480864E+03  0.30926774909E+03  0.12509000000E+03 0.  0.
         25    1    4    4    0    0 -0.58156027078E+02 -0.43008313109E+01  0.37522376825E+03  0.39980120684E+03  0.12509000000E+03 0.  0.
         25    1    3    3    0    0  0.39045563863E+02  0.15933054182E+02  0.68781360897E+02  0.14885161061E+03  0.12509000000E+03 0.  0.
<mgrwt>
<rscale>  2 0.45717597E+03</rscale>
<asrwt>0</asrwt>
<pdfrwt beam="1">  1       21 0.11646180E+00 0.45717597E+03</pdfrwt>
<pdfrwt beam="2">  1       21 0.97029879E-02 0.45717597E+03</pdfrwt>
<totfact> 0.44325695E+04</totfact>
</mgrwt>
</event>
<event>
 7    0  0.4752811E-002  0.4557350E+03  0.7546771E-02  0.1026025E+00
         21   -1    0    0  502  501  0.00000000000E+00  0.00000000000E+00  0.99850105900E+02  0.99850105900E+02  0.00000000000E+00 0.  1.
         21   -1    0    0  501  502 -0.00000000000E+00 -0.00000000000E+00 -0.52001540218E+03  0.52001540218E+03  0.00000000000E+00 0.  1.
      99926    2    1    2    0    0  0.00000000000E+00  0.71054273576E-14 -0.42016529628E+03  0.61986550808E+03  0.45573497991E+03 0.  0.
      99925    2    3    3    0    0 -0.93929701311E+02  0.57609161107E+02 -0.30337087216E+03  0.41632177854E+03  0.26296070614E+03 0.  0.
         25    1    3    3    0    0  0.93929701311E+02 -0.57609161107E+02 -0.11679442412E+03  0.20354372955E+03  0.12509000000E+03 0.  0.
         25    1    4    4    0    0 -0.52490551864E+02  0.26596489911E+02 -0.21166588999E+03  0.25280939143E+03  0.12509000000E+03 0.  0.
         25    1    4    4    0    0 -0.41439149447E+02  0.31012671196E+02 -0.91704982172E+02  0.16351238711E+03  0.12509000000E+03 0.  0.
<mgrwt>
<rscale>  2 0.45573498E+03</rscale>
<asrwt>0</asrwt>
<pdfrwt beam="1">  1       21 0.14683839E-01 0.45573498E+03</pdfrwt>
<pdfrwt beam="2">  1       21 0.76472854E-01 0.45573498E+03</pdfrwt>
<totfact> 0.57139507E+04</totfact>
</mgrwt>
</event>
<event>
 7    0  0.4752811E-002  0.4584139E+03  0.7546771E-02  0.1025242E+00
         21   -1    0    0  502  501  0.00000000000E+00  0.00000000000E+00  0.28753989942E+03  0.28753989942E+03  0.00000000000E+00 0. -1.
         21   -1    0    0  501  502 -0.00000000000E+00 -0.00000000000E+00 -0.18270792485E+03  0.18270792485E+03  0.00000000000E+00 0. -1.
      99926    2    1    2    0    0  0.00000000000E+00  0.71054273576E-14  0.10483197457E+03  0.47024782427E+03  0.45841386687E+03 0.  0.
      99925    2    3    3    0    0  0.99419253148E+02  0.55304894976E+02  0.89111657289E+02  0.30043187749E+03  0.26339249466E+03 0.  0.
         25    1    4    4    0    0  0.83376986026E+02  0.67369282801E+01  0.61120493772E+02  0.16242022922E+03  0.12509000000E+03 0.  0.
         25    1    3    3    0    0 -0.99419253148E+02 -0.55304894976E+02  0.15720317283E+02  0.16981594678E+03  0.12509000000E+03 0.  0.
         25    1    4    4    0    0  0.16042267121E+02  0.48567966696E+02  0.27991163517E+02  0.13801164827E+03  0.12509000000E+03 0.  0.
<mgrwt>
<rscale>  2 0.45841387E+03</rscale>
<asrwt>0</asrwt>
<pdfrwt beam="1">  1       21 0.42285279E-01 0.45841387E+03</pdfrwt>
<pdfrwt beam="2">  1       21 0.26868813E-01 0.45841387E+03</pdfrwt>
<totfact> 0.65622363E+04</totfact>
</mgrwt>
</event>
<event>
 7    0  0.4752811E-002  0.4259218E+03  0.7546771E-02  0.1035156E+00
         21   -1    0    0  502  501  0.00000000000E+00  0.00000000000E+00  0.16279156427E+03  0.16279156427E+03  0.00000000000E+00 0.  1.
         21   -1    0    0  501  502 -0.00000000000E+00 -0.00000000000E+00 -0.27859147812E+03  0.27859147812E+03  0.00000000000E+00 0.  1.
      99926    2    1    2    0    0  0.00000000000E+00  0.35527136788E-14 -0.11579991385E+03  0.44138304240E+03  0.42592178867E+03 0.  0.
      99925    2    3    3    0    0 -0.64441235988E+01  0.19297747817E+02 -0.15827124999E+03  0.30772208215E+03  0.26311435056E+03 0.  0.
         25    1    3    3    0    0  0.64441235988E+01 -0.19297747817E+02  0.42471336139E+02  0.13366096024E+03  0.12509000000E+03 0.  0.
         25    1    4    4    0    0 -0.15799806041E+02 -0.29183149546E+02 -0.77925250418E+02  0.15106668343E+03  0.12509000000E+03 0.  0.
         25    1    4    4    0    0  0.93556824422E+01  0.48480897363E+02 -0.80345999571E+02  0.15665539873E+03  0.12509000000E+03 0.  0.
<mgrwt>
<rscale>  2 0.42592179E+03</rscale>
<asrwt>0</asrwt>
<pdfrwt beam="1">  1       21 0.23939936E-01 0.42592179E+03</pdfrwt>
<pdfrwt beam="2">  1       21 0.40969335E-01 0.42592179E+03</pdfrwt>
<totfact> 0.88300030E+04</totfact>
</mgrwt>
</event>
<event>
 7    0  0.4752811E-002  0.4537420E+03  0.7546771E-02  0.1026612E+00
         21   -1    0    0  502  501  0.00000000000E+00  0.00000000000E+00  0.15605473486E+03  0.15605473486E+03  0.00000000000E+00 0.  1.
         21   -1    0    0  501  502 -0.00000000000E+00 -0.00000000000E+00 -0.32982301213E+03  0.32982301213E+03  0.00000000000E+00 0.  1.
      99926    2    1    2    0    0  0.00000000000E+00 -0.35527136788E-14 -0.17376827727E+03  0.48587774699E+03  0.45374196504E+03 0.  0.
      99925    2    3    3    0    0  0.10329280598E+03  0.16295823168E+02 -0.15232751109E+03  0.32143270397E+03  0.26302158643E+03 0.  0.
         25    1    3    3    0    0 -0.10329280598E+03 -0.16295823168E+02 -0.21440766177E+02  0.16444504302E+03  0.12509000000E+03 0.  0.
         25    1    4    4    0    0  0.36223950731E+02  0.25918968362E+02 -0.11160770291E+03  0.17345822257E+03  0.12509000000E+03 0.  0.
         25    1    4    4    0    0  0.67068855248E+02 -0.96231451935E+01 -0.40719808180E+02  0.14797448140E+03  0.12509000000E+03 0.  0.
<mgrwt>
<rscale>  2 0.45374197E+03</rscale>
<asrwt>0</asrwt>
<pdfrwt beam="1">  1       21 0.22949226E-01 0.45374197E+03</pdfrwt>
<pdfrwt beam="2">  1       21 0.48503384E-01 0.45374197E+03</pdfrwt>
<totfact> 0.66940711E+04</totfact>
</mgrwt>
</event>
<event>
 7    0  0.4752811E-002  0.4605598E+03  0.7546771E-02  0.1024619E+00
         21   -1    0    0  502  501  0.00000000000E+00  0.00000000000E+00  0.22237765481E+03  0.22237765481E+03  0.00000000000E+00 0.  1.
         21   -1    0    0  501  502 -0.00000000000E+00 -0.00000000000E+00 -0.23846293368E+03  0.23846293368E+03  0.00000000000E+00 0.  1.
      99926    2    1    2    0    0  0.00000000000E+00 -0.14210854715E-13 -0.16085278867E+02  0.46084058848E+03  0.46055978092E+03 0.  0.
      99925    2    3    3    0    0 -0.57593212194E+02  0.78704052769E+02  0.56925971770E+02  0.28622828413E+03  0.26301094722E+03 0.  0.
         25    1    3    3    0    0  0.57593212194E+02 -0.78704052769E+02 -0.73011250638E+02  0.17461230436E+03  0.12509000000E+03 0.  0.
         25    1    4    4    0    0 -0.50791531220E+02  0.18369633735E+02  0.72853082872E+00  0.13625440156E+03  0.12509000000E+03 0.  0.
         25    1    4    4    0    0 -0.68016809736E+01  0.60334419034E+02  0.56197440942E+02  0.14997388257E+03  0.12509000000E+03 0.  0.
<mgrwt>
<rscale>  2 0.46055978E+03</rscale>
<asrwt>0</asrwt>
<pdfrwt beam="1">  1       21 0.32702596E-01 0.46055978E+03</pdfrwt>
<pdfrwt beam="2">  1       21 0.35068078E-01 0.46055978E+03</pdfrwt>
<totfact> 0.65180226E+04</totfact>
</mgrwt>
</event>
<event>
 7    0  0.4752811E-002  0.4411442E+03  0.7546771E-02  0.1030396E+00
         21   -1    0    0  502  501  0.00000000000E+00  0.00000000000E+00  0.19455005988E+03  0.19455005988E+03  0.00000000000E+00 0. -1.
         21   -1    0    0  501  502 -0.00000000000E+00 -0.00000000000E+00 -0.25007475198E+03  0.25007475198E+03  0.00000000000E+00 0. -1.
      99926    2    1    2    0    0  0.00000000000E+00  0.00000000000E+00 -0.55524692101E+02  0.44462481187E+03  0.44114423026E+03 0.  0.
      99925    2    3    3    0    0  0.77317183976E+02  0.61140467933E+02 -0.50049817118E+02  0.28527116079E+03  0.26298012705E+03 0.  0.
         25    1    4    4    0    0  0.29578629067E+02 -0.18167324492E+01 -0.48244715577E+02  0.13730716112E+03  0.12509000000E+03 0.  0.
         25    1    3    3    0    0 -0.77317183976E+02 -0.61140467933E+02 -0.54748749834E+01  0.15935365108E+03  0.12509000000E+03 0.  0.
         25    1    4    4    0    0  0.47738554909E+02  0.62957200382E+02 -0.18051015409E+01  0.14796399966E+03  0.12509000000E+03 0.  0.
<mgrwt>
<rscale>  2 0.44114423E+03</rscale>
<asrwt>0</asrwt>
<pdfrwt beam="1">  1       21 0.28610303E-01 0.44114423E+03</pdfrwt>
<pdfrwt beam="2">  1       21 0.36775699E-01 0.44114423E+03</pdfrwt>
<totfact> 0.77535700E+04</totfact>
</mgrwt>
</event>
<event>
 7    0  0.4752811E-002  0.4558583E+03  0.7546771E-02  0.1025989E+00
         21   -1    0    0  502  501  0.00000000000E+00  0.00000000000E+00  0.10771530809E+03  0.10771530809E+03  0.00000000000E+00 0. -1.
         21   -1    0    0  501  502 -0.00000000000E+00 -0.00000000000E+00 -0.48230562269E+03  0.48230562269E+03  0.00000000000E+00 0. -1.
      99926    2    1    2    0    0  0.00000000000E+00  0.00000000000E+00 -0.37459031460E+03  0.59002093078E+03  0.45585830580E+03 0.  0.
      99925    2    3    3    0    0  0.62922213025E+02  0.60912864497E+02 -0.32987804088E+03  0.43091003400E+03  0.26304819633E+03 0.  0.
         25    1    3    3    0    0 -0.62922213025E+02 -0.60912864497E+02 -0.44712273719E+02  0.15911089678E+03  0.12509000000E+03 0.  0.
         25    1    4    4    0    0  0.73221703646E+02  0.31880639605E+02 -0.17506308938E+03  0.22950465449E+03  0.12509000000E+03 0.  0.
         25    1    4    4    0    0 -0.10299490621E+02  0.29032224891E+02 -0.15481495150E+03  0.20140537951E+03  0.12509000000E+03 0.  0.
<mgrwt>
<rscale>  2 0.45585831E+03</rscale>
<asrwt>0</asrwt>
<pdfrwt beam="1">  1       21 0.15840486E-01 0.45585831E+03</pdfrwt>
<pdfrwt beam="2">  1       21 0.70927300E-01 0.45585831E+03</pdfrwt>
<totfact> 0.58896196E+04</totfact>
</mgrwt>
</event>
<event>
 7    0  0.4752811E-002  0.4562578E+03  0.7546771E-02  0.1025872E+00
         21   -1    0    0  502  501  0.00000000000E+00  0.00000000000E+00  0.20834135330E+03  0.20834135330E+03  0.00000000000E+00 0.  1.
         21   -1    0    0  501  502 -0.00000000000E+00 -0.00000000000E+00 -0.24979583616E+03  0.24979583616E+03  0.00000000000E+00 0.  1.
      99926    2    1    2    0    0  0.00000000000E+00  0.00000000000E+00 -0.41454482863E+02  0.45813718947E+03  0.45625783305E+03 0.  0.
      99925    2    3    3    0    0  0.21203459851E+02  0.23229048382E+02 -0.13629833526E+03  0.29803709629E+03  0.26317237540E+03 0.  0.
         25    1    4    4    0    0 -0.23174915226E+02  0.29674287896E+02 -0.51605480590E+02  0.14045737355E+03  0.12509000000E+03 0.  0.
         25    1    3    3    0    0 -0.21203459851E+02 -0.23229048382E+02  0.94843852393E+02  0.16010009318E+03  0.12509000000E+03 0.  0.
         25    1    4    4    0    0  0.44378375076E+02 -0.64452395140E+01 -0.84692854666E+02  0.15757972274E+03  0.12509000000E+03 0.  0.
<mgrwt>
<rscale>  2 0.45625783E+03</rscale>
<asrwt>0</asrwt>
<pdfrwt beam="1">  1       21 0.30638434E-01 0.45625783E+03</pdfrwt>
<pdfrwt beam="2">  1       21 0.36734682E-01 0.45625783E+03</pdfrwt>
<totfact> 0.67635264E+04</totfact>
</mgrwt>
</event>
<event>
 7    0  0.4752811E-002  0.4740575E+03  0.7546771E-02  0.1020781E+00
         21   -1    0    0  502  501  0.00000000000E+00  0.00000000000E+00  0.33396634482E+03  0.33396634482E+03  0.00000000000E+00 0.  1.
         21   -1    0    0  501  502 -0.00000000000E+00 -0.00000000000E+00 -0.16822841490E+03  0.16822841490E+03  0.00000000000E+00 0.  1.
      99926    2    1    2    0    0  0.71054273576E-14  0.00000000000E+00  0.16573792992E+03  0.50219475972E+03  0.47405750207E+03 0.  0.
      99925    2    3    3    0    0 -0.32932285305E+02  0.45504487002E+02 -0.21696256960E+02  0.26995721696E+03  0.26315580494E+03 0.  0.
         25    1    3    3    0    0  0.32932285305E+02 -0.45504487002E+02  0.18743418688E+03  0.23223754275E+03  0.12509000000E+03 0.  0.
         25    1    4    4    0    0 -0.19103383826E+02 -0.17067140615E+02 -0.21033508852E+02  0.12940688991E+03  0.12509000000E+03 0.  0.
         25    1    4    4    0    0 -0.13828901479E+02  0.62571627617E+02 -0.66274810839E+00  0.14055032705E+03  0.12509000000E+03 0.  0.
<mgrwt>
<rscale>  2 0.47405750E+03</rscale>
<asrwt>0</asrwt>
<pdfrwt beam="1">  1       21 0.49112698E-01 0.47405750E+03</pdfrwt>
<pdfrwt beam="2">  1       21 0.24739473E-01 0.47405750E+03</pdfrwt>
<totfact> 0.56131837E+04</totfact>
</mgrwt>
</event>
<event>
 7    0  0.4752811E-002  0.4585596E+03  0.7546771E-02  0.1025200E+00
         21   -1    0    0  502  501  0.00000000000E+00  0.00000000000E+00  0.19646417665E+03  0.19646417665E+03  0.00000000000E+00 0.  1.
         21   -1    0    0  501  502 -0.00000000000E+00 -0.00000000000E+00 -0.26757666005E+03  0.26757666005E+03  0.00000000000E+00 0.  1.
      99926    2    1    2    0    0  0.00000000000E+00  0.71054273576E-14 -0.71112483402E+02  0.46404083671E+03  0.45855960663E+03 0.  0.
      99925    2    3    3    0    0 -0.89459404457E+02 -0.41350550618E+02  0.18176399748E+02  0.28146793117E+03  0.26302273987E+03 0.  0.
         25    1    4    4    0    0 -0.64727520216E+02 -0.30305847040E+00 -0.19808742660E+02  0.14223093230E+03  0.12509000000E+03 0.  0.
         25    1    4    4    0    0 -0.24731884241E+02 -0.41047492147E+02  0.37985142408E+02  0.13923699887E+03  0.12509000000E+03 0.  0.
         25    1    3    3    0    0  0.89459404457E+02  0.41350550618E+02 -0.89288883150E+02  0.18257290554E+03  0.12509000000E+03 0.  0.
<mgrwt>
<rscale>  2 0.45855961E+03</rscale>
<asrwt>0</asrwt>
<pdfrwt beam="1">  1       21 0.28891791E-01 0.45855961E+03</pdfrwt>
<pdfrwt beam="2">  1       21 0.39349509E-01 0.45855961E+03</pdfrwt>
<totfact> 0.65993745E+04</totfact>
</mgrwt>
</event>
<event>
 7    0  0.4752811E-002  0.4713516E+03  0.7546771E-02  0.1021539E+00
         21   -1    0    0  502  501  0.00000000000E+00  0.00000000000E+00  0.28750706721E+03  0.28750706721E+03  0.00000000000E+00 0.  1.
         21   -1    0    0  501  502 -0.00000000000E+00 -0.00000000000E+00 -0.19318856837E+03  0.19318856837E+03  0.00000000000E+00 0.  1.
      99926    2    1    2    0    0 -0.71054273576E-14 -0.14210854715E-13  0.94318498841E+02  0.48069563559E+03  0.47135158305E+03 0.  0.
      99925    2    3    3    0    0  0.43792008096E+02  0.86211798218E+02  0.14380738737E+03  0.31502465951E+03  0.26307747398E+03 0.  0.
         25    1    4    4    0    0  0.32476337007E+02  0.90305272380E+01  0.91474647370E+02  0.15859187274E+03  0.12509000000E+03 0.  0.
         25    1    3    3    0    0 -0.43792008096E+02 -0.86211798218E+02 -0.49488888526E+02  0.16567097607E+03  0.12509000000E+03 0.  0.
         25    1    4    4    0    0  0.11315671088E+02  0.77181270980E+02  0.52332739998E+02  0.15643278677E+03  0.12509000000E+03 0.  0.
<mgrwt>
<rscale>  2 0.47135158E+03</rscale>
<asrwt>0</asrwt>
<pdfrwt beam="1">  1       21 0.42280451E-01 0.47135158E+03</pdfrwt>
<pdfrwt beam="2">  1       21 0.28410084E-01 0.47135158E+03</pdfrwt>
<totfact> 0.58657500E+04</totfact>
</mgrwt>
</event>
<event>
 7    0  0.4752811E-002  0.4534466E+03  0.7546771E-02  0.1026699E+00
         21   -1    0    0  502  501  0.00000000000E+00  0.00000000000E+00  0.90988466130E+02  0.90988466130E+02  0.00000000000E+00 0. -1.
         21   -1    0    0  501  502 -0.00000000000E+00 -0.00000000000E+00 -0.56494465855E+03  0.56494465855E+03  0.00000000000E+00 0. -1.
      99926    2    1    2    0    0  0.14210854715E-13  0.00000000000E+00 -0.47395619242E+03  0.65593312468E+03  0.45344656986E+03 0.  0.
      99925    2    3    3    0    0 -0.71694179581E+02  0.38316343208E+02 -0.18818229338E+03  0.33356310899E+03  0.26314173861E+03 0.  0.
         25    1    4    4    0    0 -0.58037248780E+02 -0.86108149921E+01 -0.11972771021E+03  0.18282423547E+03  0.12509000000E+03 0.  0.
         25    1    4    4    0    0 -0.13656930801E+02  0.46927158200E+02 -0.68454583169E+02  0.15073887353E+03  0.12509000000E+03 0.  0.
         25    1    3    3    0    0  0.71694179581E+02 -0.38316343208E+02 -0.28577389904E+03  0.32237001569E+03  0.12509000000E+03 0.  0.
<mgrwt>
<rscale>  2 0.45344657E+03</rscale>
<asrwt>0</asrwt>
<pdfrwt beam="1">  1       21 0.13380657E-01 0.45344657E+03</pdfrwt>
<pdfrwt beam="2">  1       21 0.83080094E-01 0.45344657E+03</pdfrwt>
<totfact> 0.56044466E+04</totfact>
</mgrwt>
</event>
<event>
 7    0  0.4752811E-002  0.4565477E+03  0.7546771E-02  0.1025787E+00
         21   -1    0    0  502  501  0.00000000000E+00  0.00000000000E+00  0.82380988154E+03  0.82380988154E+03  0.00000000000E+00 0.  1.
         21   -1    0    0  501  502 -0.00000000000E+00 -0.00000000000E+00 -0.63253616884E+02  0.63253616884E+02  0.00000000000E+00 0.  1.
      99926    2    1    2    0    0  0.00000000000E+00 -0.11657341759E-14  0.76055626466E+03  0.88706349843E+03  0.45654771769E+03 0.  0.
      99925    2    3    3    0    0  0.86040105259E+02 -0.29252558442E+00  0.32989836638E+03  0.43042718938E+03  0.26273874465E+03 0.  0.
         25    1    4    4    0    0  0.54661892721E+02  0.27306729520E+02  0.12705467998E+03  0.18847806185E+03  0.12509000000E+03 0.  0.
         25    1    4    4    0    0  0.31378212537E+02 -0.27599255104E+02  0.20284368639E+03  0.24194912753E+03  0.12509000000E+03 0.  0.
         25    1    3    3    0    0 -0.86040105259E+02  0.29252558442E+00  0.43065789828E+03  0.45663630904E+03  0.12509000000E+03 0.  0.
<mgrwt>
<rscale>  2 0.45654772E+03</rscale>
<asrwt>0</asrwt>
<pdfrwt beam="1">  1       21 0.12114851E+00 0.45654772E+03</pdfrwt>
<pdfrwt beam="2">  1       21 0.93020030E-02 0.45654772E+03</pdfrwt>
<totfact> 0.43270915E+04</totfact>
</mgrwt>
</event>
<event>
 7    0  0.4752811E-002  0.4407890E+03  0.7546771E-02  0.1030505E+00
         21   -1    0    0  502  501  0.00000000000E+00  0.00000000000E+00  0.34199783637E+03  0.34199783637E+03  0.00000000000E+00 0.  1.
         21   -1    0    0  501  502 -0.00000000000E+00 -0.00000000000E+00 -0.14202934017E+03  0.14202934017E+03  0.00000000000E+00 0.  1.
      99926    2    1    2    0    0  0.00000000000E+00  0.14210854715E-13  0.19996849620E+03  0.48402717654E+03  0.44078896102E+03 0.  0.
      99925    2    3    3    0    0 -0.18766136282E+02 -0.97165737352E+02  0.13276144370E+03  0.31094440908E+03  0.26318715056E+03 0.  0.
         25    1    4    4    0    0 -0.48181048094E+01 -0.27607849405E+02  0.10215622446E+03  0.16391708202E+03  0.12509000000E+03 0.  0.
         25    1    4    4    0    0 -0.13948031473E+02 -0.69557887947E+02  0.30605219244E+02  0.14702732706E+03  0.12509000000E+03 0.  0.
         25    1    3    3    0    0  0.18766136282E+02  0.97165737352E+02  0.67207052497E+02  0.17308276746E+03  0.12509000000E+03 0.  0.
<mgrwt>
<rscale>  2 0.44078896E+03</rscale>
<asrwt>0</asrwt>
<pdfrwt beam="1">  1       21 0.50293800E-01 0.44078896E+03</pdfrwt>
<pdfrwt beam="2">  1       21 0.20886668E-01 0.44078896E+03</pdfrwt>
<totfact> 0.74460447E+04</totfact>
</mgrwt>
</event>
<event>
 7    0  0.4752811E-002  0.4512455E+03  0.7546771E-02  0.1027351E+00
         21   -1    0    0  502  501  0.00000000000E+00  0.00000000000E+00  0.59200414867E+03  0.59200414867E+03  0.00000000000E+00 0. -1.
         21   -1    0    0  501  502 -0.00000000000E+00 -0.00000000000E+00 -0.85988633944E+02  0.85988633944E+02  0.00000000000E+00 0. -1.
      99926    2    1    2    0    0  0.00000000000E+00  0.00000000000E+00  0.50601551473E+03  0.67799278262E+03  0.45124551204E+03 0.  0.
      99925    2    3    3    0    0 -0.52650682545E+02  0.96076139403E+02  0.31454247206E+03  0.42439437351E+03  0.26300360948E+03 0.  0.
         25    1    4    4    0    0 -0.43793138232E+02  0.62385287400E+02  0.11459071048E+03  0.18597930548E+03  0.12509000000E+03 0.  0.
         25    1    4    4    0    0 -0.88575443132E+01  0.33690852003E+02  0.19995176158E+03  0.23841506802E+03  0.12509000000E+03 0.  0.
         25    1    3    3    0    0  0.52650682545E+02 -0.96076139403E+02  0.19147304266E+03  0.25359840911E+03  0.12509000000E+03 0.  0.
<mgrwt>
<rscale>  2 0.45124551E+03</rscale>
<asrwt>0</asrwt>
<pdfrwt beam="1">  1       21 0.87059431E-01 0.45124551E+03</pdfrwt>
<pdfrwt beam="2">  1       21 0.12645388E-01 0.45124551E+03</pdfrwt>
<totfact> 0.55744580E+04</totfact>
</mgrwt>
</event>
<event>
 7    0  0.4752811E-002  0.4318419E+03  0.7546771E-02  0.1033280E+00
         21   -1    0    0  502  501  0.00000000000E+00  0.00000000000E+00  0.93574915082E+03  0.93574915082E+03  0.00000000000E+00 0. -1.
         21   -1    0    0  501  502 -0.00000000000E+00 -0.00000000000E+00 -0.49823021030E+02  0.49823021030E+02  0.00000000000E+00 0. -1.
      99926    2    1    2    0    0  0.00000000000E+00  0.22204460493E-14  0.88592612978E+03  0.98557217185E+03  0.43184186745E+03 0.  0.
      99925    2    3    3    0    0  0.45189069534E+02  0.33036256142E+01  0.74667820475E+03  0.79298333864E+03  0.26313735571E+03 0.  0.
         25    1    4    4    0    0  0.51088626198E+02  0.31277061344E+02  0.38905663167E+03  0.41303858542E+03  0.12509000000E+03 0.  0.
         25    1    4    4    0    0 -0.58995566639E+01 -0.27973435730E+02  0.35762157308E+03  0.37994475323E+03  0.12509000000E+03 0.  0.
         25    1    3    3    0    0 -0.45189069534E+02 -0.33036256142E+01  0.13924792503E+03  0.19258883320E+03  0.12509000000E+03 0.  0.
<mgrwt>
<rscale>  2 0.43184187E+03</rscale>
<asrwt>0</asrwt>
<pdfrwt beam="1">  1       21 0.13761016E+00 0.43184187E+03</pdfrwt>
<pdfrwt beam="2">  1       21 0.73269154E-02 0.43184187E+03</pdfrwt>
<totfact> 0.47813700E+04</totfact>
</mgrwt>
</event>
<event>
 7    0  0.4752811E-002  0.4398212E+03  0.7546771E-02  0.1030802E+00
         21   -1    0    0  502  501  0.00000000000E+00  0.00000000000E+00  0.61263781313E+02  0.61263781313E+02  0.00000000000E+00 0.  1.
         21   -1    0    0  501  502 -0.00000000000E+00 -0.00000000000E+00 -0.78938431049E+03  0.78938431049E+03  0.00000000000E+00 0.  1.
      99926    2    1    2    0    0 -0.14210854715E-13 -0.35527136788E-14 -0.72812052918E+03  0.85064809180E+03  0.43982118080E+03 0.  0.
      99925    2    3    3    0    0  0.72252778834E+02 -0.19657472901E+02 -0.58812299306E+03  0.64852511312E+03  0.26284841088E+03 0.  0.
         25    1    4    4    0    0  0.32506405020E+02 -0.49480207205E+02 -0.31371026418E+03  0.34287985538E+03  0.12509000000E+03 0.  0.
         25    1    3    3    0    0 -0.72252778834E+02  0.19657472901E+02 -0.13999753612E+03  0.20212297868E+03  0.12509000000E+03 0.  0.
         25    1    4    4    0    0  0.39746373814E+02  0.29822734304E+02 -0.27441272887E+03  0.30564525774E+03  0.12509000000E+03 0.  0.
<mgrwt>
<rscale>  2 0.43982118E+03</rscale>
<asrwt>0</asrwt>
<pdfrwt beam="1">  1       21 0.90093802E-02 0.43982118E+03</pdfrwt>
<pdfrwt beam="2">  1       21 0.11608592E+00 0.43982118E+03</pdfrwt>
<totfact> 0.51244811E+04</totfact>
</mgrwt>
</event>
<event>
 7    0  0.4752811E-002  0.4502135E+03  0.7546771E-02  0.1027658E+00
         21   -1    0    0  502  501  0.00000000000E+00  0.00000000000E+00  0.11614309200E+04  0.11614309200E+04  0.00000000000E+00 0. -1.
         21   -1    0    0  501  502 -0.00000000000E+00 -0.00000000000E+00 -0.43629837260E+02  0.43629837260E+02  0.00000000000E+00 0. -1.
      99926    2    1    2    0    0  0.00000000000E+00 -0.35527136788E-14  0.11178010828E+04  0.12050607573E+04  0.45021346950E+03 0.  0.
      99925    2    3    3    0    0  0.23927901388E+02 -0.11178179387E+02  0.98848454069E+03  0.10232152946E+04  0.26300257734E+03 0.  0.
         25    1    4    4    0    0  0.29897848155E+01  0.34004971389E+02  0.49169152515E+03  0.50850107266E+03  0.12509000000E+03 0.  0.
         25    1    3    3    0    0 -0.23927901388E+02  0.11178179387E+02  0.12931654208E+03  0.18184546273E+03  0.12509000000E+03 0.  0.
         25    1    4    4    0    0  0.20938116573E+02 -0.45183150776E+02  0.49679301554E+03  0.51471422191E+03  0.12509000000E+03 0.  0.
<mgrwt>
<rscale>  2 0.45021347E+03</rscale>
<asrwt>0</asrwt>
<pdfrwt beam="1">  1       21 0.17079865E+00 0.45021347E+03</pdfrwt>
<pdfrwt beam="2">  1       21 0.64161533E-02 0.45021347E+03</pdfrwt>
<totfact> 0.33217291E+04</totfact>
</mgrwt>
</event>
<event>
 7    0  0.4752811E-002  0.4507427E+03  0.7546771E-02  0.1027501E+00
         21   -1    0    0  502  501  0.00000000000E+00  0.00000000000E+00  0.83307425870E+03  0.83307425870E+03  0.00000000000E+00 0.  1.
         21   -1    0    0  501  502 -0.00000000000E+00 -0.00000000000E+00 -0.60969640473E+02  0.60969640473E+02  0.00000000000E+00 0.  1.
      99926    2    1    2    0    0  0.00000000000E+00  0.00000000000E+00  0.77210461823E+03  0.89404389917E+03  0.45074266734E+03 0.  0.
      99925    2    3    3    0    0  0.97422170427E+02  0.47758766560E+02  0.51033923888E+03  0.58430110103E+03  0.26303927246E+03 0.  0.
         25    1    4    4    0    0  0.55346581496E+02 -0.76851257750E+01  0.19866306159E+03  0.24132307263E+03  0.12509000000E+03 0.  0.
         25    1    4    4    0    0  0.42075588931E+02  0.55443892335E+02  0.31167617728E+03  0.34297802840E+03  0.12509000000E+03 0.  0.
         25    1    3    3    0    0 -0.97422170427E+02 -0.47758766560E+02  0.26176537935E+03  0.30974279814E+03  0.12509000000E+03 0.  0.
<mgrwt>
<rscale>  2 0.45074267E+03</rscale>
<asrwt>0</asrwt>
<pdfrwt beam="1">  1       21 0.12251091E+00 0.45074267E+03</pdfrwt>
<pdfrwt beam="2">  1       21 0.89661241E-02 0.45074267E+03</pdfrwt>
<totfact> 0.44972755E+04</totfact>
</mgrwt>
</event>
<event>
 7    0  0.4752811E-002  0.4523635E+03  0.7546771E-02  0.1027020E+00
         21   -1    0    0  502  501  0.00000000000E+00  0.00000000000E+00  0.26235663822E+03  0.26235663822E+03  0.00000000000E+00 0.  1.
         21   -1    0    0  501  502 -0.00000000000E+00 -0.00000000000E+00 -0.19499482956E+03  0.19499482956E+03  0.00000000000E+00 0.  1.
      99926    2    1    2    0    0  0.00000000000E+00  0.00000000000E+00  0.67361808666E+02  0.45735146778E+03  0.45236351733E+03 0.  0.
      99925    2    3    3    0    0 -0.95794185050E+02  0.51193398806E+02  0.21208287649E+02  0.28537779080E+03  0.26304638764E+03 0.  0.
         25    1    3    3    0    0  0.95794185050E+02 -0.51193398806E+02  0.46153521017E+02  0.17197367698E+03  0.12509000000E+03 0.  0.
         25    1    4    4    0    0 -0.86676582692E+02  0.23692021241E+02 -0.59592718566E+01  0.15413358777E+03  0.12509000000E+03 0.  0.
         25    1    4    4    0    0 -0.91176023582E+01  0.27501377565E+02  0.27167559506E+02  0.13124420303E+03  0.12509000000E+03 0.  0.
<mgrwt>
<rscale>  2 0.45236352E+03</rscale>
<asrwt>0</asrwt>
<pdfrwt beam="1">  1       21 0.38581859E-01 0.45236352E+03</pdfrwt>
<pdfrwt beam="2">  1       21 0.28675710E-01 0.45236352E+03</pdfrwt>
<totfact> 0.69830705E+04</totfact>
</mgrwt>
</event>
<event>
 7    0  0.4752811E-002  0.4572737E+03  0.7546771E-02  0.1025575E+00
         21   -1    0    0  502  501  0.00000000000E+00  0.00000000000E+00  0.27827324755E+03  0.27827324755E+03  0.00000000000E+00 0.  1.
         21   -1    0    0  501  502 -0.00000000000E+00 -0.00000000000E+00 -0.18785421605E+03  0.18785421605E+03  0.00000000000E+00 0.  1.
      99926    2    1    2    0    0 -0.14210854715E-13  0.00000000000E+00  0.90419031498E+02  0.46612746359E+03  0.45727367195E+03 0.  0.
      99925    2    3    3    0    0  0.78203961942E+02 -0.79089356908E+02  0.88268088681E+02  0.29872638625E+03  0.26282163595E+03 0.  0.
         25    1    4    4    0    0  0.50186848099E+02 -0.77357030763E+02  0.64909313698E+02  0.16841483615E+03  0.12509000000E+03 0.  0.
         25    1    3    3    0    0 -0.78203961942E+02  0.79089356908E+02  0.21509428164E+01  0.16740107734E+03  0.12509000000E+03 0.  0.
         25    1    4    4    0    0  0.28017113843E+02 -0.17323261445E+01  0.23358774983E+02  0.13031155010E+03  0.12509000000E+03 0.  0.
<mgrwt>
<rscale>  2 0.45727367E+03</rscale>
<asrwt>0</asrwt>
<pdfrwt beam="1">  1       21 0.40922536E-01 0.45727367E+03</pdfrwt>
<pdfrwt beam="2">  1       21 0.27625620E-01 0.45727367E+03</pdfrwt>
<totfact> 0.66516249E+04</totfact>
</mgrwt>
</event>
<event>
 7    0  0.4752811E-002  0.4526302E+03  0.7546771E-02  0.1026941E+00
         21   -1    0    0  502  501  0.00000000000E+00  0.00000000000E+00  0.60653699094E+02  0.60653699094E+02  0.00000000000E+00 0.  1.
         21   -1    0    0  501  502 -0.00000000000E+00 -0.00000000000E+00 -0.84444174610E+03  0.84444174610E+03  0.00000000000E+00 0.  1.
      99926    2    1    2    0    0  0.35527136788E-14 -0.71054273576E-14 -0.78378804701E+03  0.90509544520E+03  0.45263016060E+03 0.  0.
      99925    2    3    3    0    0  0.22938564659E+02 -0.54385098280E+02 -0.30672861091E+03  0.40838916344E+03  0.26308810578E+03 0.  0.
         25    1    4    4    0    0 -0.25967047550E+02 -0.43137938125E+02 -0.15456979895E+03  0.20512069645E+03  0.12509000000E+03 0.  0.
         25    1    3    3    0    0 -0.22938564659E+02  0.54385098280E+02 -0.47705943610E+03  0.49670628175E+03  0.12509000000E+03 0.  0.
         25    1    4    4    0    0  0.48905612209E+02 -0.11247160155E+02 -0.15215881196E+03  0.20326846699E+03  0.12509000000E+03 0.  0.
<mgrwt>
<rscale>  2 0.45263016E+03</rscale>
<asrwt>0</asrwt>
<pdfrwt beam="1">  1       21 0.89196622E-02 0.45263016E+03</pdfrwt>
<pdfrwt beam="2">  1       21 0.12418260E+00 0.45263016E+03</pdfrwt>
<totfact> 0.43821523E+04</totfact>
</mgrwt>
</event>
<event>
 7    0  0.4752811E-002  0.4574609E+03  0.7546771E-02  0.1025520E+00
         21   -1    0    0  502  501  0.00000000000E+00  0.00000000000E+00  0.10552245352E+04  0.10552245352E+04  0.00000000000E+00 0. -1.
         21   -1    0    0  501  502 -0.00000000000E+00 -0.00000000000E+00 -0.49579617711E+02  0.49579617711E+02  0.00000000000E+00 0. -1.
      99926    2    1    2    0    0  0.00000000000E+00 -0.14210854715E-13  0.10056449175E+04  0.11048041529E+04  0.45746094501E+03 0.  0.
      99925    2    3    3    0    0  0.32238132192E+02 -0.10993698880E+03  0.66666102935E+03  0.72574871739E+03  0.26296165894E+03 0.  0.
         25    1    4    4    0    0  0.18267299967E+02 -0.91278916424E+02  0.42377348966E+03  0.45154956923E+03  0.12509000000E+03 0.  0.
         25    1    3    3    0    0 -0.32238132192E+02  0.10993698880E+03  0.33898388810E+03  0.37905543548E+03  0.12509000000E+03 0.  0.
         25    1    4    4    0    0  0.13970832225E+02 -0.18658072378E+02  0.24288753968E+03  0.27419914816E+03  0.12509000000E+03 0.  0.
<mgrwt>
<rscale>  2 0.45746095E+03</rscale>
<asrwt>0</asrwt>
<pdfrwt beam="1">  1       21 0.15518007E+00 0.45746095E+03</pdfrwt>
<pdfrwt beam="2">  1       21 0.72911209E-02 0.45746095E+03</pdfrwt>
<totfact> 0.34657671E+04</totfact>
</mgrwt>
</event>
<event>
 7    0  0.4752811E-002  0.4549997E+03  0.7546771E-02  0.1026241E+00
         21   -1    0    0  502  501  0.00000000000E+00  0.00000000000E+00  0.16785279508E+03  0.16785279508E+03  0.00000000000E+00 0.  1.
         21   -1    0    0  501  502 -0.00000000000E+00 -0.00000000000E+00 -0.30834269956E+03  0.30834269956E+03  0.00000000000E+00 0.  1.
      99926    2    1    2    0    0  0.00000000000E+00  0.00000000000E+00 -0.14048990448E+03  0.47619549464E+03  0.45499970973E+03 0.  0.
      99925    2    3    3    0    0  0.68736085942E+02  0.77090823567E+02 -0.39406774703E+02  0.28505954351E+03  0.26275160297E+03 0.  0.
         25    1    3    3    0    0 -0.68736085942E+02 -0.77090823567E+02 -0.10108312978E+03  0.19113595113E+03  0.12509000000E+03 0.  0.
         25    1    4    4    0    0  0.58941300320E+02  0.22958265964E+02 -0.47930769911E+02  0.14814191056E+03  0.12509000000E+03 0.  0.
         25    1    4    4    0    0  0.97947856216E+01  0.54132557603E+02  0.85239952085E+01  0.13691763295E+03  0.12509000000E+03 0.  0.
<mgrwt>
<rscale>  2 0.45499971E+03</rscale>
<asrwt>0</asrwt>
<pdfrwt beam="1">  1       21 0.24684235E-01 0.45499971E+03</pdfrwt>
<pdfrwt beam="2">  1       21 0.45344515E-01 0.45499971E+03</pdfrwt>
<totfact> 0.66978252E+04</totfact>
</mgrwt>
</event>
<event>
 7    0  0.4752811E-002  0.4641743E+03  0.7546771E-02  0.1023577E+00
         21   -1    0    0  502  501  0.00000000000E+00  0.00000000000E+00  0.22258902859E+03  0.22258902859E+03  0.00000000000E+00 0.  1.
         21   -1    0    0  501  502 -0.00000000000E+00 -0.00000000000E+00 -0.24199060912E+03  0.24199060912E+03  0.00000000000E+00 0.  1.
      99926    2    1    2    0    0  0.00000000000E+00  0.00000000000E+00 -0.19401580532E+02  0.46457963772E+03  0.46417434058E+03 0.  0.
      99925    2    3    3    0    0 -0.10315161695E+02  0.12128281747E+03 -0.15875268355E+02  0.29000625099E+03  0.26274641215E+03 0.  0.
         25    1    4    4    0    0  0.36739863286E+01  0.95168648303E+02 -0.32016396060E+02  0.16044665005E+03  0.12509000000E+03 0.  0.
         25    1    4    4    0    0 -0.13989148023E+02  0.26114169165E+02  0.16141127705E+02  0.12955960095E+03  0.12509000000E+03 0.  0.
         25    1    3    3    0    0  0.10315161695E+02 -0.12128281747E+03 -0.35263121766E+01  0.17457338672E+03  0.12509000000E+03 0.  0.
<mgrwt>
<rscale>  2 0.46417434E+03</rscale>
<asrwt>0</asrwt>
<pdfrwt beam="1">  1       21 0.32733681E-01 0.46417434E+03</pdfrwt>
<pdfrwt beam="2">  1       21 0.35586854E-01 0.46417434E+03</pdfrwt>
<totfact> 0.63102419E+04</totfact>
</mgrwt>
</event>
<event>
 7    0  0.4752811E-002  0.4569949E+03  0.7546771E-02  0.1025656E+00
         21   -1    0    0  502  501  0.00000000000E+00  0.00000000000E+00  0.32632906739E+03  0.32632906739E+03  0.00000000000E+00 0.  1.
         21   -1    0    0  501  502 -0.00000000000E+00 -0.00000000000E+00 -0.15999519143E+03  0.15999519143E+03  0.00000000000E+00 0.  1.
      99926    2    1    2    0    0  0.00000000000E+00  0.26645352591E-14  0.16633387596E+03  0.48632425881E+03  0.45699488664E+03 0.  0.
      99925    2    3    3    0    0 -0.43251464207E+02 -0.38212860354E+01  0.21777777645E+03  0.34427048597E+03  0.26307739585E+03 0.  0.
         25    1    4    4    0    0  0.14535738930E+01 -0.25610508304E+02  0.13699325637E+03  0.18727699112E+03  0.12509000000E+03 0.  0.
         25    1    3    3    0    0  0.43251464207E+02  0.38212860354E+01 -0.51443900489E+02  0.14205377285E+03  0.12509000000E+03 0.  0.
         25    1    4    4    0    0 -0.44705038100E+02  0.21789222269E+02  0.80784520081E+02  0.15699349484E+03  0.12509000000E+03 0.  0.
<mgrwt>
<rscale>  2 0.45699489E+03</rscale>
<asrwt>0</asrwt>
<pdfrwt beam="1">  1       21 0.47989569E-01 0.45699489E+03</pdfrwt>
<pdfrwt beam="2">  1       21 0.23528705E-01 0.45699489E+03</pdfrwt>
<totfact> 0.65203834E+04</totfact>
</mgrwt>
</event>
<event>
 7    0  0.4752811E-002  0.4411030E+03  0.7546771E-02  0.1030409E+00
         21   -1    0    0  502  501  0.00000000000E+00  0.00000000000E+00  0.32051919303E+04  0.32051919303E+04  0.00000000000E+00 0.  1.
         21   -1    0    0  501  502 -0.00000000000E+00 -0.00000000000E+00 -0.15176302146E+02  0.15176302146E+02  0.00000000000E+00 0.  1.
      99926    2    1    2    0    0  0.00000000000E+00  0.00000000000E+00  0.31900156282E+04  0.32203682325E+04  0.44110298648E+03 0.  0.
      99925    2    3    3    0    0 -0.69138329129E+02  0.69461450097E+02  0.21791041040E+04  0.21970429570E+04  0.26248439424E+03 0.  0.
         25    1    4    4    0    0 -0.39908194868E+02  0.50194611358E+02  0.84301040114E+03  0.85464975725E+03  0.12509000000E+03 0.  0.
         25    1    3    3    0    0  0.69138329129E+02 -0.69461450097E+02  0.10109115242E+04  0.10233252754E+04  0.12509000000E+03 0.  0.
         25    1    4    4    0    0 -0.29230134261E+02  0.19266838739E+02  0.13360937029E+04  0.13423931998E+04  0.12509000000E+03 0.  0.
<mgrwt>
<rscale>  2 0.44110299E+03</rscale>
<asrwt>0</asrwt>
<pdfrwt beam="1">  1       21 0.47135129E+00 0.44110299E+03</pdfrwt>
<pdfrwt beam="2">  1       21 0.22318114E-02 0.44110299E+03</pdfrwt>
<totfact> 0.24505130E+03</totfact>
</mgrwt>
</event>
<event>
 7    0  0.4752811E-002  0.4521917E+03  0.7546771E-02  0.1027070E+00
         21   -1    0    0  502  501  0.00000000000E+00  0.00000000000E+00  0.23106780370E+03  0.23106780370E+03  0.00000000000E+00 0. -1.
         21   -1    0    0  501  502 -0.00000000000E+00 -0.00000000000E+00 -0.22123083518E+03  0.22123083518E+03  0.00000000000E+00 0. -1.
      99926    2    1    2    0    0 -0.35527136788E-14 -0.66613381478E-15  0.98369685240E+01  0.45229863888E+03  0.45219165493E+03 0.  0.
      99925    2    3    3    0    0 -0.25790361061E+02 -0.71430827337E+00  0.11395415613E+03  0.28751529684E+03  0.26270485960E+03 0.  0.
         25    1    4    4    0    0 -0.82121412012E+01 -0.33129246989E+02  0.81419053010E+02  0.15310635703E+03  0.12509000000E+03 0.  0.
         25    1    3    3    0    0  0.25790361061E+02  0.71430827337E+00 -0.10411718761E+03  0.16478334205E+03  0.12509000000E+03 0.  0.
         25    1    4    4    0    0 -0.17578219860E+02  0.32414938716E+02  0.32535103124E+02  0.13440893981E+03  0.12509000000E+03 0.  0.
<mgrwt>
<rscale>  2 0.45219165E+03</rscale>
<asrwt>0</asrwt>
<pdfrwt beam="1">  1       21 0.33980559E-01 0.45219165E+03</pdfrwt>
<pdfrwt beam="2">  1       21 0.32533946E-01 0.45219165E+03</pdfrwt>
<totfact> 0.70306392E+04</totfact>
</mgrwt>
</event>
<event>
 7    0  0.4752811E-002  0.4409233E+03  0.7546771E-02  0.1030464E+00
         21   -1    0    0  502  501  0.00000000000E+00  0.00000000000E+00  0.28726435870E+03  0.28726435870E+03  0.00000000000E+00 0. -1.
         21   -1    0    0  501  502 -0.00000000000E+00 -0.00000000000E+00 -0.16919374558E+03  0.16919374558E+03  0.00000000000E+00 0. -1.
      99926    2    1    2    0    0 -0.71054273576E-14 -0.88817841970E-15  0.11807061312E+03  0.45645810428E+03  0.44092327142E+03 0.  0.
      99925    2    3    3    0    0  0.60487541023E+02  0.78595723789E+01  0.15652046167E+03  0.31207522977E+03  0.26300528250E+03 0.  0.
         25    1    3    3    0    0 -0.60487541023E+02 -0.78595723789E+01 -0.38449848548E+02  0.14438287451E+03  0.12509000000E+03 0.  0.
         25    1    4    4    0    0  0.38520234310E+02  0.40105329141E+02  0.60717544594E+02  0.14975437956E+03  0.12509000000E+03 0.  0.
         25    1    4    4    0    0  0.21967306713E+02 -0.32245756762E+02  0.95802917073E+02  0.16232085021E+03  0.12509000000E+03 0.  0.
<mgrwt>
<rscale>  2 0.44092327E+03</rscale>
<asrwt>0</asrwt>
<pdfrwt beam="1">  1       21 0.42244759E-01 0.44092327E+03</pdfrwt>
<pdfrwt beam="2">  1       21 0.24881433E-01 0.44092327E+03</pdfrwt>
<totfact> 0.76665972E+04</totfact>
</mgrwt>
</event>
<event>
 7    0  0.4752811E-002  0.4502559E+03  0.7546771E-02  0.1027646E+00
         21   -1    0    0  502  501  0.00000000000E+00  0.00000000000E+00  0.56132473743E+02  0.56132473743E+02  0.00000000000E+00 0.  1.
         21   -1    0    0  501  502 -0.00000000000E+00 -0.00000000000E+00 -0.90291052170E+03  0.90291052170E+03  0.00000000000E+00 0.  1.
      99926    2    1    2    0    0  0.14210854715E-13  0.00000000000E+00 -0.84677804796E+03  0.95904299545E+03  0.45025593234E+03 0.  0.
      99925    2    3    3    0    0  0.10661140591E+03  0.18388736538E+02 -0.55542133327E+03  0.62402003982E+03  0.26306656029E+03 0.  0.
         25    1    4    4    0    0  0.93824077394E+02 -0.32242637039E+01 -0.28818822977E+03  0.32789223421E+03  0.12509000000E+03 0.  0.
         25    1    3    3    0    0 -0.10661140591E+03 -0.18388736538E+02 -0.29135671469E+03  0.33502295563E+03  0.12509000000E+03 0.  0.
         25    1    4    4    0    0  0.12787328518E+02  0.21613000242E+02 -0.26723310350E+03  0.29612780561E+03  0.12509000000E+03 0.  0.
<mgrwt>
<rscale>  2 0.45025593E+03</rscale>
<asrwt>0</asrwt>
<pdfrwt beam="1">  1       21 0.82547757E-02 0.45025593E+03</pdfrwt>
<pdfrwt beam="2">  1       21 0.13278096E+00 0.45025593E+03</pdfrwt>
<totfact> 0.42325117E+04</totfact>
</mgrwt>
</event>
<event>
 7    0  0.4752811E-002  0.4538186E+03  0.7546771E-02  0.1026589E+00
         21   -1    0    0  502  501  0.00000000000E+00  0.00000000000E+00  0.19536564567E+03  0.19536564567E+03  0.00000000000E+00 0. -1.
         21   -1    0    0  501  502 -0.00000000000E+00 -0.00000000000E+00 -0.26354597898E+03  0.26354597898E+03  0.00000000000E+00 0. -1.
      99926    2    1    2    0    0  0.00000000000E+00 -0.71054273576E-14 -0.68180333310E+02  0.45891162464E+03  0.45381859964E+03 0.  0.
      99925    2    3    3    0    0 -0.70009688554E+02 -0.38330130422E+02 -0.12258026708E+03  0.30086917375E+03  0.26291782451E+03 0.  0.
         25    1    4    4    0    0 -0.30662605734E+02 -0.36878805875E+02 -0.22370034383E+02  0.13582403415E+03  0.12509000000E+03 0.  0.
         25    1    3    3    0    0  0.70009688554E+02  0.38330130422E+02  0.54399933773E+02  0.15804245089E+03  0.12509000000E+03 0.  0.
         25    1    4    4    0    0 -0.39347082820E+02 -0.14513245469E+01 -0.10021023270E+03  0.16504513960E+03  0.12509000000E+03 0.  0.
<mgrwt>
<rscale>  2 0.45381860E+03</rscale>
<asrwt>0</asrwt>
<pdfrwt beam="1">  1       21 0.28730242E-01 0.45381860E+03</pdfrwt>
<pdfrwt beam="2">  1       21 0.38756762E-01 0.45381860E+03</pdfrwt>
<totfact> 0.68906863E+04</totfact>
</mgrwt>
</event>
<event>
 7    0  0.4752811E-002  0.4548498E+03  0.7546771E-02  0.1026286E+00
         21   -1    0    0  502  501  0.00000000000E+00  0.00000000000E+00  0.14168676126E+03  0.14168676126E+03  0.00000000000E+00 0. -1.
         21   -1    0    0  501  502 -0.00000000000E+00 -0.00000000000E+00 -0.36504526193E+03  0.36504526193E+03  0.00000000000E+00 0. -1.
      99926    2    1    2    0    0  0.00000000000E+00 -0.71054273576E-14 -0.22335850068E+03  0.50673202319E+03  0.45484978125E+03 0.  0.
      99925    2    3    3    0    0 -0.74606239137E+02 -0.43181136040E+02 -0.59169842807E+02  0.28304446229E+03  0.26302546627E+03 0.  0.
         25    1    4    4    0    0 -0.15714692873E+02 -0.55001016868E+02 -0.37771667671E+02  0.14264035336E+03  0.12509000000E+03 0.  0.
         25    1    3    3    0    0  0.74606239137E+02  0.43181136040E+02 -0.16418865787E+03  0.22368756090E+03  0.12509000000E+03 0.  0.
         25    1    4    4    0    0 -0.58891546265E+02  0.11819880829E+02 -0.21398175136E+02  0.14040410893E+03  0.12509000000E+03 0.  0.
<mgrwt>
<rscale>  2 0.45484978E+03</rscale>
<asrwt>0</asrwt>
<pdfrwt beam="1">  1       21 0.20836289E-01 0.45484978E+03</pdfrwt>
<pdfrwt beam="2">  1       21 0.53683126E-01 0.45484978E+03</pdfrwt>
<totfact> 0.64877575E+04</totfact>
</mgrwt>
</event>
<event>
 7    0  0.4752811E-002  0.4525794E+03  0.7546771E-02  0.1026956E+00
         21   -1    0    0  502  501  0.00000000000E+00  0.00000000000E+00  0.25228978336E+03  0.25228978336E+03  0.00000000000E+00 0.  1.
         21   -1    0    0  501  502 -0.00000000000E+00 -0.00000000000E+00 -0.20296911649E+03  0.20296911649E+03  0.00000000000E+00 0.  1.
      99926    2    1    2    0    0 -0.26645352591E-14  0.00000000000E+00  0.49320666872E+02  0.45525889986E+03  0.45257942697E+03 0.  0.
      99925    2    3    3    0    0  0.61278584895E+01 -0.96699645545E+02  0.85197222728E+02  0.29301523293E+03  0.26307981274E+03 0.  0.
         25    1    4    4    0    0 -0.13888683861E+02 -0.28173840135E+02  0.73660688573E+02  0.14852631399E+03  0.12509000000E+03 0.  0.
         25    1    3    3    0    0 -0.61278584895E+01  0.96699645545E+02 -0.35876555856E+02  0.16224366693E+03  0.12509000000E+03 0.  0.
         25    1    4    4    0    0  0.20016542351E+02 -0.68525805410E+02  0.11536534156E+02  0.14448891894E+03  0.12509000000E+03 0.  0.
<mgrwt>
<rscale>  2 0.45257943E+03</rscale>
<asrwt>0</asrwt>
<pdfrwt beam="1">  1       21 0.37101439E-01 0.45257943E+03</pdfrwt>
<pdfrwt beam="2">  1       21 0.29848399E-01 0.45257943E+03</pdfrwt>
<totfact> 0.69866358E+04</totfact>
</mgrwt>
</event>
<event>
 7    0  0.4752811E-002  0.4519992E+03  0.7546771E-02  0.1027128E+00
         21   -1    0    0  502  501  0.00000000000E+00  0.00000000000E+00  0.77729582025E+03  0.77729582025E+03  0.00000000000E+00 0. -1.
         21   -1    0    0  501  502 -0.00000000000E+00 -0.00000000000E+00 -0.65709613987E+02  0.65709613987E+02  0.00000000000E+00 0. -1.
      99926    2    1    2    0    0  0.00000000000E+00  0.00000000000E+00  0.71158620626E+03  0.84300543424E+03  0.45199915178E+03 0.  0.
      99925    2    3    3    0    0 -0.17499442161E+02  0.10086122721E+03  0.52331163706E+03  0.59486426647E+03  0.26368391763E+03 0.  0.
         25    1    4    4    0    0  0.28594016639E+02  0.30123024407E+02  0.23479964769E+03  0.26926454844E+03  0.12509000000E+03 0.  0.
         25    1    3    3    0    0  0.17499442161E+02 -0.10086122721E+03  0.18827456921E+03  0.24814116777E+03  0.12509000000E+03 0.  0.
         25    1    4    4    0    0 -0.46093458800E+02  0.70738202801E+02  0.28851198936E+03  0.32559971804E+03  0.12509000000E+03 0.  0.
<mgrwt>
<rscale>  2 0.45199915E+03</rscale>
<asrwt>0</asrwt>
<pdfrwt beam="1">  1       21 0.11430820E+00 0.45199915E+03</pdfrwt>
<pdfrwt beam="2">  1       21 0.96631790E-02 0.45199915E+03</pdfrwt>
<totfact> 0.46847080E+04</totfact>
</mgrwt>
</event>
<event>
 7    0  0.4752811E-002  0.4492759E+03  0.7546771E-02  0.1027938E+00
         21   -1    0    0  502  501  0.00000000000E+00  0.00000000000E+00  0.23768934629E+03  0.23768934629E+03  0.00000000000E+00 0. -1.
         21   -1    0    0  501  502 -0.00000000000E+00 -0.00000000000E+00 -0.21230322997E+03  0.21230322997E+03  0.00000000000E+00 0. -1.
      99926    2    1    2    0    0  0.00000000000E+00  0.00000000000E+00  0.25386116322E+02  0.44999257627E+03  0.44927593280E+03 0.  0.
      99925    2    3    3    0    0  0.46937210259E+02 -0.78970448669E+02  0.72124712995E+02  0.28790791324E+03  0.26315310907E+03 0.  0.
         25    1    4    4    0    0 -0.70237149682E+01 -0.29687942199E+02  0.66534045649E+01  0.12892820629E+03  0.12509000000E+03 0.  0.
         25    1    4    4    0    0  0.53960925228E+02 -0.49282506471E+02  0.65471308430E+02  0.15897970695E+03  0.12509000000E+03 0.  0.
         25    1    3    3    0    0 -0.46937210259E+02  0.78970448669E+02 -0.46738596673E+02  0.16208466303E+03  0.12509000000E+03 0.  0.
<mgrwt>
<rscale>  2 0.44927593E+03</rscale>
<asrwt>0</asrwt>
<pdfrwt beam="1">  1       21 0.34954316E-01 0.44927593E+03</pdfrwt>
<pdfrwt beam="2">  1       21 0.31221063E-01 0.44927593E+03</pdfrwt>
<totfact> 0.72153709E+04</totfact>
</mgrwt>
</event>
<event>
 7    0  0.4752811E-002  0.4501577E+03  0.7546771E-02  0.1027675E+00
         21   -1    0    0  502  501  0.00000000000E+00  0.00000000000E+00  0.12801963620E+03  0.12801963620E+03  0.00000000000E+00 0. -1.
         21   -1    0    0  501  502 -0.00000000000E+00 -0.00000000000E+00 -0.39572428102E+03  0.39572428102E+03  0.00000000000E+00 0. -1.
      99926    2    1    2    0    0  0.00000000000E+00  0.00000000000E+00 -0.26770464482E+03  0.52374391722E+03  0.45015765457E+03 0.  0.
      99925    2    3    3    0    0 -0.35090099381E+02 -0.17428675700E+02 -0.51284410095E+02  0.27072158636E+03  0.26291636083E+03 0.  0.
         25    1    4    4    0    0  0.11986187983E+02 -0.25624285765E+02 -0.27101900973E+01  0.12827753488E+03  0.12509000000E+03 0.  0.
         25    1    3    3    0    0  0.35090099381E+02  0.17428675700E+02 -0.21642023473E+03  0.25302233085E+03  0.12509000000E+03 0.  0.
         25    1    4    4    0    0 -0.47076287364E+02  0.81956100652E+01 -0.48574219997E+02  0.14244405149E+03  0.12509000000E+03 0.  0.
<mgrwt>
<rscale>  2 0.45015765E+03</rscale>
<asrwt>0</asrwt>
<pdfrwt beam="1">  1       21 0.18826417E-01 0.45015765E+03</pdfrwt>
<pdfrwt beam="2">  1       21 0.58194746E-01 0.45015765E+03</pdfrwt>
<totfact> 0.66134325E+04</totfact>
</mgrwt>
</event>
<event>
 7    0  0.4752811E-002  0.4581622E+03  0.7546771E-02  0.1025316E+00
         21   -1    0    0  502  501  0.00000000000E+00  0.00000000000E+00  0.16196539310E+03  0.16196539310E+03  0.00000000000E+00 0. -1.
         21   -1    0    0  501  502 -0.00000000000E+00 -0.00000000000E+00 -0.32400844910E+03  0.32400844910E+03  0.00000000000E+00 0. -1.
      99926    2    1    2    0    0  0.00000000000E+00  0.14210854715E-13 -0.16204305599E+03  0.48597384220E+03  0.45816222379E+03 0.  0.
      99925    2    3    3    0    0  0.20695965778E+02 -0.11422748690E+03 -0.99645008472E+02  0.30426730352E+03  0.26300802747E+03 0.  0.
         25    1    4    4    0    0  0.14092058134E+02 -0.88588484378E+02 -0.24234544031E+02  0.15582466715E+03  0.12509000000E+03 0.  0.
         25    1    4    4    0    0  0.66039076443E+01 -0.25639002526E+02 -0.75410464441E+02  0.14844263637E+03  0.12509000000E+03 0.  0.
         25    1    3    3    0    0 -0.20695965778E+02  0.11422748690E+03 -0.62398047522E+02  0.18170653868E+03  0.12509000000E+03 0.  0.
<mgrwt>
<rscale>  2 0.45816222E+03</rscale>
<asrwt>0</asrwt>
<pdfrwt beam="1">  1       21 0.23818440E-01 0.45816222E+03</pdfrwt>
<pdfrwt beam="2">  1       21 0.47648301E-01 0.45816222E+03</pdfrwt>
<totfact> 0.64630080E+04</totfact>
</mgrwt>
</event>
<event>
 7    0  0.4752811E-002  0.4552938E+03  0.7546771E-02  0.1026155E+00
         21   -1    0    0  502  501  0.00000000000E+00  0.00000000000E+00  0.23645648651E+03  0.23645648651E+03  0.00000000000E+00 0.  1.
         21   -1    0    0  501  502 -0.00000000000E+00 -0.00000000000E+00 -0.21916553213E+03  0.21916553213E+03  0.00000000000E+00 0.  1.
      99926    2    1    2    0    0 -0.17763568394E-14  0.00000000000E+00  0.17290954375E+02  0.45562201864E+03  0.45529380269E+03 0.  0.
      99925    2    3    3    0    0  0.98325864022E+01 -0.92269853812E+02 -0.52984553184E+02  0.28475200740E+03  0.26394305667E+03 0.  0.
         25    1    4    4    0    0 -0.65394943131E+01 -0.17787563119E+02  0.63800223562E+01  0.12667823480E+03  0.12509000000E+03 0.  0.
         25    1    3    3    0    0 -0.98325864022E+01  0.92269853812E+02  0.70275507559E+02  0.17087001124E+03  0.12509000000E+03 0.  0.
         25    1    4    4    0    0  0.16372080715E+02 -0.74482290693E+02 -0.59364575540E+02  0.15807377260E+03  0.12509000000E+03 0.  0.
<mgrwt>
<rscale>  2 0.45529380E+03</rscale>
<asrwt>0</asrwt>
<pdfrwt beam="1">  1       21 0.34773013E-01 0.45529380E+03</pdfrwt>
<pdfrwt beam="2">  1       21 0.32230225E-01 0.45529380E+03</pdfrwt>
<totfact> 0.68339920E+04</totfact>
</mgrwt>
</event>
<event>
 7    0  0.4752811E-002  0.4469394E+03  0.7546771E-02  0.1028639E+00
         21   -1    0    0  502  501  0.00000000000E+00  0.00000000000E+00  0.35675203142E+03  0.35675203142E+03  0.00000000000E+00 0.  1.
         21   -1    0    0  501  502 -0.00000000000E+00 -0.00000000000E+00 -0.13998158233E+03  0.13998158233E+03  0.00000000000E+00 0.  1.
      99926    2    1    2    0    0  0.35527136788E-14  0.00000000000E+00  0.21677044909E+03  0.49673361376E+03  0.44693943151E+03 0.  0.
      99925    2    3    3    0    0  0.19742196862E+02 -0.79104452803E+02  0.21177432219E+03  0.34733569485E+03  0.26295713070E+03 0.  0.
         25    1    3    3    0    0 -0.19742196862E+02  0.79104452803E+02  0.49961268939E+01  0.14939791891E+03  0.12509000000E+03 0.  0.
         25    1    4    4    0    0 -0.75891119260E+01 -0.75976407856E+02  0.10084602146E+03  0.17789726618E+03  0.12509000000E+03 0.  0.
         25    1    4    4    0    0  0.27331308788E+02 -0.31280449477E+01  0.11092830074E+03  0.16943842867E+03  0.12509000000E+03 0.  0.
<mgrwt>
<rscale>  2 0.44693943E+03</rscale>
<asrwt>0</asrwt>
<pdfrwt beam="1">  1       21 0.52463534E-01 0.44693943E+03</pdfrwt>
<pdfrwt beam="2">  1       21 0.20585527E-01 0.44693943E+03</pdfrwt>
<totfact> 0.69865089E+04</totfact>
</mgrwt>
</event>
<event>
 7    0  0.4752811E-002  0.4331891E+03  0.7546771E-02  0.1032857E+00
         21   -1    0    0  502  501  0.00000000000E+00  0.00000000000E+00  0.29448290063E+03  0.29448290063E+03  0.00000000000E+00 0.  1.
         21   -1    0    0  501  502 -0.00000000000E+00 -0.00000000000E+00 -0.15930703126E+03  0.15930703126E+03  0.00000000000E+00 0.  1.
      99926    2    1    2    0    0  0.00000000000E+00  0.00000000000E+00  0.13517586937E+03  0.45378993190E+03  0.43318908877E+03 0.  0.
      99925    2    3    3    0    0  0.31923784288E+02  0.38417790622E+02  0.68232892317E+01  0.26773362975E+03  0.26294426137E+03 0.  0.
         25    1    4    4    0    0  0.14423060893E+02  0.95755941294E+01  0.42687128074E+02  0.13330197182E+03  0.12509000000E+03 0.  0.
         25    1    4    4    0    0  0.17500723395E+02  0.28842196493E+02 -0.35863838843E+02  0.13443165793E+03  0.12509000000E+03 0.  0.
         25    1    3    3    0    0 -0.31923784288E+02 -0.38417790622E+02  0.12835258014E+03  0.18605630214E+03  0.12509000000E+03 0.  0.
<mgrwt>
<rscale>  2 0.43318909E+03</rscale>
<asrwt>0</asrwt>
<pdfrwt beam="1">  1       21 0.43306309E-01 0.43318909E+03</pdfrwt>
<pdfrwt beam="2">  1       21 0.23427505E-01 0.43318909E+03</pdfrwt>
<totfact> 0.81948626E+04</totfact>
</mgrwt>
</event>
<event>
 7    0  0.4752811E-002  0.4527426E+03  0.7546771E-02  0.1026907E+00
         21   -1    0    0  502  501  0.00000000000E+00  0.00000000000E+00  0.52093793784E+02  0.52093793784E+02  0.00000000000E+00 0. -1.
         21   -1    0    0  501  502 -0.00000000000E+00 -0.00000000000E+00 -0.98368674130E+03  0.98368674130E+03  0.00000000000E+00 0. -1.
      99926    2    1    2    0    0  0.00000000000E+00  0.00000000000E+00 -0.93159294752E+03  0.10357805351E+04  0.45274263881E+03 0.  0.
      99925    2    3    3    0    0 -0.53256160021E+02  0.85615452853E+02 -0.69354526894E+03  0.74858647226E+03  0.26307877533E+03 0.  0.
         25    1    4    4    0    0 -0.41236483040E+02  0.60486092167E+02 -0.27493200310E+03  0.31079596089E+03  0.12509000000E+03 0.  0.
         25    1    3    3    0    0  0.53256160021E+02 -0.85615452853E+02 -0.23804767857E+03  0.28719406282E+03  0.12509000000E+03 0.  0.
         25    1    4    4    0    0 -0.12019676981E+02  0.25129360686E+02 -0.41861326585E+03  0.43779051137E+03  0.12509000000E+03 0.  0.
<mgrwt>
<rscale>  2 0.45274264E+03</rscale>
<asrwt>0</asrwt>
<pdfrwt beam="1">  1       21 0.76608517E-02 0.45274264E+03</pdfrwt>
<pdfrwt beam="2">  1       21 0.14465982E+00 0.45274264E+03</pdfrwt>
<totfact> 0.38477094E+04</totfact>
</mgrwt>
</event>
<event>
 7    0  0.4752811E-002  0.4488523E+03  0.7546771E-02  0.1028065E+00
         21   -1    0    0  502  501  0.00000000000E+00  0.00000000000E+00  0.33696460943E+03  0.33696460943E+03  0.00000000000E+00 0. -1.
         21   -1    0    0  501  502 -0.00000000000E+00 -0.00000000000E+00 -0.14947295196E+03  0.14947295196E+03  0.00000000000E+00 0. -1.
      99926    2    1    2    0    0  0.00000000000E+00  0.00000000000E+00  0.18749165747E+03  0.48643756139E+03  0.44885229142E+03 0.  0.
      99925    2    3    3    0    0  0.41483211066E+02 -0.36640836684E+02  0.18926628699E+02  0.26935443276E+03  0.26292619774E+03 0.  0.
         25    1    4    4    0    0 -0.10424059447E+02 -0.35386905384E+02  0.28795376492E+02  0.13355738802E+03  0.12509000000E+03 0.  0.
         25    1    3    3    0    0 -0.41483211066E+02  0.36640836684E+02  0.16856502877E+03  0.21708312864E+03  0.12509000000E+03 0.  0.
         25    1    4    4    0    0  0.51907270513E+02 -0.12539313005E+01 -0.98687477935E+01  0.13579704474E+03  0.12509000000E+03 0.  0.
<mgrwt>
<rscale>  2 0.44885229E+03</rscale>
<asrwt>0</asrwt>
<pdfrwt beam="1">  1       21 0.49553619E-01 0.44885229E+03</pdfrwt>
<pdfrwt beam="2">  1       21 0.21981316E-01 0.44885229E+03</pdfrwt>
<totfact> 0.69568150E+04</totfact>
</mgrwt>
</event>
<event>
 7    0  0.4752811E-002  0.4579051E+03  0.7546771E-02  0.1025391E+00
         21   -1    0    0  502  501  0.00000000000E+00  0.00000000000E+00  0.54083807874E+03  0.54083807874E+03  0.00000000000E+00 0. -1.
         21   -1    0    0  501  502 -0.00000000000E+00 -0.00000000000E+00 -0.96922287579E+02  0.96922287579E+02  0.00000000000E+00 0. -1.
      99926    2    1    2    0    0  0.00000000000E+00  0.17763568394E-14  0.44391579116E+03  0.63776036632E+03  0.45790507226E+03 0.  0.
      99925    2    3    3    0    0 -0.84782973951E+02 -0.84215459046E+01  0.16949395119E+03  0.32436934944E+03  0.26311252395E+03 0.  0.
         25    1    4    4    0    0 -0.53427607829E+02 -0.43268760435E+02  0.80798703579E+02  0.16402022286E+03  0.12509000000E+03 0.  0.
         25    1    4    4    0    0 -0.31355366123E+02  0.34847214530E+02  0.88695247614E+02  0.16034912658E+03  0.12509000000E+03 0.  0.
         25    1    3    3    0    0  0.84782973951E+02  0.84215459046E+01  0.27442183997E+03  0.31339101687E+03  0.12509000000E+03 0.  0.
<mgrwt>
<rscale>  2 0.45790507E+03</rscale>
<asrwt>0</asrwt>
<pdfrwt beam="1">  1       21 0.79535010E-01 0.45790507E+03</pdfrwt>
<pdfrwt beam="2">  1       21 0.14253278E-01 0.45790507E+03</pdfrwt>
<totfact> 0.55137099E+04</totfact>
</mgrwt>
</event>
<event>
 7    0  0.4752811E-002  0.4739876E+03  0.7546771E-02  0.1020801E+00
         21   -1    0    0  502  501  0.00000000000E+00  0.00000000000E+00  0.67511374784E+02  0.67511374784E+02  0.00000000000E+00 0. -1.
         21   -1    0    0  501  502 -0.00000000000E+00 -0.00000000000E+00 -0.83194965466E+03  0.83194965466E+03  0.00000000000E+00 0. -1.
      99926    2    1    2    0    0  0.00000000000E+00  0.00000000000E+00 -0.76443827988E+03  0.89946102944E+03  0.47398761561E+03 0.  0.
      99925    2    3    3    0    0 -0.98337264141E+02  0.84836657698E+02 -0.49434521286E+03  0.57470689328E+03  0.26276100870E+03 0.  0.
         25    1    3    3    0    0  0.98337264141E+02 -0.84836657698E+02 -0.27009306702E+03  0.32475413617E+03  0.12509000000E+03 0.  0.
         25    1    4    4    0    0 -0.29731690400E+02  0.62031043177E+02 -0.30296707826E+03  0.33491548537E+03  0.12509000000E+03 0.  0.
         25    1    4    4    0    0 -0.68605573741E+02  0.22805614521E+02 -0.19137813460E+03  0.23979140790E+03  0.12509000000E+03 0.  0.
<mgrwt>
<rscale>  2 0.47398762E+03</rscale>
<asrwt>0</asrwt>
<pdfrwt beam="1">  1       21 0.99281433E-02 0.47398762E+03</pdfrwt>
<pdfrwt beam="2">  1       21 0.12234554E+00 0.47398762E+03</pdfrwt>
<totfact> 0.37381818E+04</totfact>
</mgrwt>
</event>
<event>
 7    0  0.4752811E-002  0.4538511E+03  0.7546771E-02  0.1026580E+00
         21   -1    0    0  502  501  0.00000000000E+00  0.00000000000E+00  0.32550749569E+02  0.32550749569E+02  0.00000000000E+00 0.  1.
         21   -1    0    0  501  502 -0.00000000000E+00 -0.00000000000E+00 -0.15819973410E+04  0.15819973410E+04  0.00000000000E+00 0.  1.
      99926    2    1    2    0    0 -0.71054273576E-14 -0.17763568394E-14 -0.15494465914E+04  0.16145480906E+04  0.45385107366E+03 0.  0.
      99925    2    3    3    0    0 -0.32711264789E+02 -0.10688392068E+02 -0.59718430959E+03  0.65348865948E+03  0.26312365891E+03 0.  0.
         25    1    4    4    0    0 -0.38851032817E+02 -0.24812896404E+02 -0.23744285393E+03  0.27230809676E+03  0.12509000000E+03 0.  0.
         25    1    4    4    0    0  0.61397680282E+01  0.14124504336E+02 -0.35974145566E+03  0.38118056272E+03  0.12509000000E+03 0.  0.
         25    1    3    3    0    0  0.32711264789E+02  0.10688392068E+02 -0.95226228184E+03  0.96105943109E+03  0.12509000000E+03 0.  0.
<mgrwt>
<rscale>  2 0.45385107E+03</rscale>
<asrwt>0</asrwt>
<pdfrwt beam="1">  1       21 0.47868736E-02 0.45385107E+03</pdfrwt>
<pdfrwt beam="2">  1       21 0.23264673E+00 0.45385107E+03</pdfrwt>
<totfact> 0.21292330E+04</totfact>
</mgrwt>
</event>
<event>
 7    0  0.4752811E-002  0.4609054E+03  0.7546771E-02  0.1024519E+00
         21   -1    0    0  502  501  0.00000000000E+00  0.00000000000E+00  0.72863805078E+02  0.72863805078E+02  0.00000000000E+00 0. -1.
         21   -1    0    0  501  502 -0.00000000000E+00 -0.00000000000E+00 -0.72887271348E+03  0.72887271348E+03  0.00000000000E+00 0. -1.
      99926    2    1    2    0    0  0.11102230246E-15  0.71054273576E-14 -0.65600890840E+03  0.80173651855E+03  0.46090536695E+03 0.  0.
      99925    2    3    3    0    0  0.85707926205E+00  0.18643655018E+02 -0.20670556984E+03  0.33497178274E+03  0.26292695216E+03 0.  0.
         25    1    3    3    0    0 -0.85707926205E+00 -0.18643655018E+02 -0.44930333856E+03  0.46676473581E+03  0.12509000000E+03 0.  0.
         25    1    4    4    0    0 -0.80188974433E-01  0.41344313182E+02 -0.13663157061E+03  0.18980266819E+03  0.12509000000E+03 0.  0.
         25    1    4    4    0    0  0.93726823648E+00 -0.22700658164E+02 -0.70073999225E+02  0.14516911455E+03  0.12509000000E+03 0.  0.
<mgrwt>
<rscale>  2 0.46090537E+03</rscale>
<asrwt>0</asrwt>
<pdfrwt beam="1">  1       21 0.10715265E-01 0.46090537E+03</pdfrwt>
<pdfrwt beam="2">  1       21 0.10718717E+00 0.46090537E+03</pdfrwt>
<totfact> 0.45533779E+04</totfact>
</mgrwt>
</event>
<event>
 7    0  0.4752811E-002  0.4564016E+03  0.7546771E-02  0.1025830E+00
         21   -1    0    0  502  501  0.00000000000E+00  0.00000000000E+00  0.57084827806E+02  0.57084827806E+02  0.00000000000E+00 0. -1.
         21   -1    0    0  501  502 -0.00000000000E+00 -0.00000000000E+00 -0.91224947329E+03  0.91224947329E+03  0.00000000000E+00 0. -1.
      99926    2    1    2    0    0  0.00000000000E+00  0.00000000000E+00 -0.85516464548E+03  0.96933430109E+03  0.45640159552E+03 0.  0.
      99925    2    3    3    0    0  0.10204987381E+03 -0.50277483844E+02 -0.51131206629E+03  0.58615796252E+03  0.26305726708E+03 0.  0.
         25    1    3    3    0    0 -0.10204987381E+03  0.50277483844E+02 -0.34385257919E+03  0.38317633857E+03  0.12509000000E+03 0.  0.
         25    1    4    4    0    0  0.28818051608E+02 -0.48838722564E+02 -0.29954116739E+03  0.32952711570E+03  0.12509000000E+03 0.  0.
         25    1    4    4    0    0  0.73231822206E+02 -0.14387612800E+01 -0.21177089891E+03  0.25663084683E+03  0.12509000000E+03 0.  0.
<mgrwt>
<rscale>  2 0.45640160E+03</rscale>
<asrwt>0</asrwt>
<pdfrwt beam="1">  1       21 0.83948282E-02 0.45640160E+03</pdfrwt>
<pdfrwt beam="2">  1       21 0.13415433E+00 0.45640160E+03</pdfrwt>
<totfact> 0.39928359E+04</totfact>
</mgrwt>
</event>
<event>
 7    0  0.4752811E-002  0.4569599E+03  0.7546771E-02  0.1025667E+00
         21   -1    0    0  502  501  0.00000000000E+00  0.00000000000E+00  0.44262184523E+03  0.44262184523E+03  0.00000000000E+00 0. -1.
         21   -1    0    0  501  502 -0.00000000000E+00 -0.00000000000E+00 -0.11794059794E+03  0.11794059794E+03  0.00000000000E+00 0. -1.
      99926    2    1    2    0    0  0.00000000000E+00 -0.44408920985E-15  0.32468124729E+03  0.56056244317E+03  0.45695988921E+03 0.  0.
      99925    2    3    3    0    0 -0.10855862321E+03 -0.32348731230E+01  0.25026630791E+03  0.37895701819E+03  0.26302045108E+03 0.  0.
         25    1    4    4    0    0 -0.70907719998E+02  0.30815956040E+01  0.18028718521E+03  0.23062605715E+03  0.12509000000E+03 0.  0.
         25    1    3    3    0    0  0.10855862321E+03  0.32348731230E+01  0.74414939382E+02  0.18160542498E+03  0.12509000000E+03 0.  0.
         25    1    4    4    0    0 -0.37650903213E+02 -0.63164687271E+01  0.69979122699E+02  0.14833096104E+03  0.12509000000E+03 0.  0.
<mgrwt>
<rscale>  2 0.45695989E+03</rscale>
<asrwt>0</asrwt>
<pdfrwt beam="1">  1       21 0.65091447E-01 0.45695989E+03</pdfrwt>
<pdfrwt beam="2">  1       21 0.17344206E-01 0.45695989E+03</pdfrwt>
<totfact> 0.60234664E+04</totfact>
</mgrwt>
</event>
<event>
 7    0  0.4752811E-002  0.4558541E+03  0.7546771E-02  0.1025991E+00
         21   -1    0    0  502  501  0.00000000000E+00  0.00000000000E+00  0.12695231698E+04  0.12695231698E+04  0.00000000000E+00 0.  1.
         21   -1    0    0  501  502 -0.00000000000E+00 -0.00000000000E+00 -0.40921464949E+02  0.40921464949E+02  0.00000000000E+00 0.  1.
      99926    2    1    2    0    0 -0.22204460493E-15  0.00000000000E+00  0.12286017048E+04  0.13104446347E+04  0.45585413410E+03 0.  0.
      99925    2    3    3    0    0 -0.14674584893E+01  0.88922657566E+02  0.97751725236E+03  0.10161653408E+04  0.26294985970E+03 0.  0.
         25    1    4    4    0    0 -0.25184950639E+01  0.16917953234E+02  0.57079032977E+03  0.58458675030E+03  0.12509000000E+03 0.  0.
         25    1    4    4    0    0  0.10510365746E+01  0.72004704332E+02  0.40672692258E+03  0.43157859050E+03  0.12509000000E+03 0.  0.
         25    1    3    3    0    0  0.14674584893E+01 -0.88922657566E+02  0.25108445247E+03  0.29427929393E+03  0.12509000000E+03 0.  0.
<mgrwt>
<rscale>  2 0.45585413E+03</rscale>
<asrwt>0</asrwt>
<pdfrwt beam="1">  1       21 0.18669456E+00 0.45585413E+03</pdfrwt>
<pdfrwt beam="2">  1       21 0.60178633E-02 0.45585413E+03</pdfrwt>
<totfact> 0.28622270E+04</totfact>
</mgrwt>
</event>
<event>
 7    0  0.4752811E-002  0.4504350E+03  0.7546771E-02  0.1027592E+00
         21   -1    0    0  502  501  0.00000000000E+00  0.00000000000E+00  0.47016124250E+02  0.47016124250E+02  0.00000000000E+00 0. -1.
         21   -1    0    0  501  502 -0.00000000000E+00 -0.00000000000E+00 -0.10788410362E+04  0.10788410362E+04  0.00000000000E+00 0. -1.
      99926    2    1    2    0    0  0.00000000000E+00  0.00000000000E+00 -0.10318249119E+04  0.11258571604E+04  0.45043500843E+03 0.  0.
      99925    2    3    3    0    0  0.67023115800E+02 -0.80344628894E+02 -0.58259037737E+03  0.64793820016E+03  0.26356214823E+03 0.  0.
         25    1    3    3    0    0 -0.67023115800E+02  0.80344628894E+02 -0.44923453457E+03  0.47791896028E+03  0.12509000000E+03 0.  0.
         25    1    4    4    0    0  0.63586732932E+02 -0.59316205600E+02 -0.37323541588E+03  0.40313008895E+03  0.12509000000E+03 0.  0.
         25    1    4    4    0    0  0.34363828680E+01 -0.21028423294E+02 -0.20935496149E+03  0.24480811121E+03  0.12509000000E+03 0.  0.
<mgrwt>
<rscale>  2 0.45043501E+03</rscale>
<asrwt>0</asrwt>
<pdfrwt beam="1">  1       21 0.69141357E-02 0.45043501E+03</pdfrwt>
<pdfrwt beam="2">  1       21 0.15865310E+00 0.45043501E+03</pdfrwt>
<totfact> 0.35857925E+04</totfact>
</mgrwt>
</event>
<event>
 7    0  0.4752811E-002  0.4560273E+03  0.7546771E-02  0.1025940E+00
         21   -1    0    0  502  501  0.00000000000E+00  0.00000000000E+00  0.91505517172E+02  0.91505517172E+02  0.00000000000E+00 0.  1.
         21   -1    0    0  501  502 -0.00000000000E+00 -0.00000000000E+00 -0.56816487506E+03  0.56816487506E+03  0.00000000000E+00 0.  1.
      99926    2    1    2    0    0 -0.14210854715E-13 -0.14210854715E-13 -0.47665935788E+03  0.65967039223E+03  0.45602728309E+03 0.  0.
      99925    2    3    3    0    0 -0.81112889321E+02 -0.72665363793E+02 -0.34898793550E+03  0.45036903986E+03  0.26302117221E+03 0.  0.
         25    1    3    3    0    0  0.81112889321E+02  0.72665363793E+02 -0.12767142238E+03  0.20930135237E+03  0.12509000000E+03 0.  0.
         25    1    4    4    0    0 -0.24795768554E+02 -0.14091334853E+02 -0.21225326491E+03  0.24801683898E+03  0.12509000000E+03 0.  0.
         25    1    4    4    0    0 -0.56317120767E+02 -0.58574028940E+02 -0.13673467060E+03  0.20235220088E+03  0.12509000000E+03 0.  0.
<mgrwt>
<rscale>  2 0.45602728E+03</rscale>
<asrwt>0</asrwt>
<pdfrwt beam="1">  1       21 0.13456694E-01 0.45602728E+03</pdfrwt>
<pdfrwt beam="2">  1       21 0.83553658E-01 0.45602728E+03</pdfrwt>
<totfact> 0.54702918E+04</totfact>
</mgrwt>
</event>
<event>
 7    0  0.4752811E-002  0.4535683E+03  0.7546771E-02  0.1026663E+00
         21   -1    0    0  502  501  0.00000000000E+00  0.00000000000E+00  0.22821480710E+02  0.22821480710E+02  0.00000000000E+00 0. -1.
         21   -1    0    0  501  502 -0.00000000000E+00 -0.00000000000E+00 -0.22536242467E+04  0.22536242467E+04  0.00000000000E+00 0. -1.
      99926    2    1    2    0    0 -0.88817841970E-15  0.00000000000E+00 -0.22308027660E+04  0.22764457274E+04  0.45356826289E+03 0.  0.
      99925    2    3    3    0    0  0.61744207658E+01  0.88671123996E+01 -0.19639887931E+04  0.19815661700E+04  0.26312688476E+03 0.  0.
         25    1    4    4    0    0 -0.71749817847E+01 -0.33141552287E+02 -0.87969108884E+03  0.88918713595E+03  0.12509000000E+03 0.  0.
         25    1    3    3    0    0 -0.61744207658E+01 -0.88671123996E+01 -0.26681397290E+03  0.29487955743E+03  0.12509000000E+03 0.  0.
         25    1    4    4    0    0  0.13349402550E+02  0.42008664687E+02 -0.10842977043E+04  0.10923790341E+04  0.12509000000E+03 0.  0.
<mgrwt>
<rscale>  2 0.45356826E+03</rscale>
<asrwt>0</asrwt>
<pdfrwt beam="1">  1       21 0.33561036E-02 0.45356826E+03</pdfrwt>
<pdfrwt beam="2">  1       21 0.33141499E+00 0.45356826E+03</pdfrwt>
<totfact> 0.98071772E+03</totfact>
</mgrwt>
</event>
<event>
 7    0  0.4752811E-002  0.4584396E+03  0.7546771E-02  0.1025235E+00
         21   -1    0    0  502  501  0.00000000000E+00  0.00000000000E+00  0.17409142138E+03  0.17409142138E+03  0.00000000000E+00 0. -1.
         21   -1    0    0  501  502 -0.00000000000E+00 -0.00000000000E+00 -0.30180525686E+03  0.30180525686E+03  0.00000000000E+00 0. -1.
      99926    2    1    2    0    0  0.00000000000E+00  0.00000000000E+00 -0.12771383548E+03  0.47589667824E+03  0.45843955391E+03 0.  0.
      99925    2    3    3    0    0 -0.45276272185E+02  0.35794580875E+02 -0.18499930425E+03  0.32669773094E+03  0.26301230387E+03 0.  0.
         25    1    4    4    0    0 -0.25971194644E+02 -0.22686079621E+02 -0.85043879868E+02  0.15514229199E+03  0.12509000000E+03 0.  0.
         25    1    4    4    0    0 -0.19305077540E+02  0.58480660496E+02 -0.99955424385E+02  0.17155543895E+03  0.12509000000E+03 0.  0.
         25    1    3    3    0    0  0.45276272185E+02 -0.35794580875E+02  0.57285468775E+02  0.14919894730E+03  0.12509000000E+03 0.  0.
<mgrwt>
<rscale>  2 0.45843955E+03</rscale>
<asrwt>0</asrwt>
<pdfrwt beam="1">  1       21 0.25601680E-01 0.45843955E+03</pdfrwt>
<pdfrwt beam="2">  1       21 0.44383125E-01 0.45843955E+03</pdfrwt>
<totfact> 0.65202165E+04</totfact>
</mgrwt>
</event>
<event>
 7    0  0.4752811E-002  0.4537663E+03  0.7546771E-02  0.1026605E+00
         21   -1    0    0  502  501  0.00000000000E+00  0.00000000000E+00  0.26065996166E+03  0.26065996166E+03  0.00000000000E+00 0.  1.
         21   -1    0    0  501  502 -0.00000000000E+00 -0.00000000000E+00 -0.19748317172E+03  0.19748317172E+03  0.00000000000E+00 0.  1.
      99926    2    1    2    0    0  0.71054273576E-14  0.44408920985E-14  0.63176789941E+02  0.45814313338E+03  0.45376626569E+03 0.  0.
      99925    2    3    3    0    0 -0.50306249033E+02 -0.72228729879E+01  0.14065276464E+03  0.30247385786E+03  0.26291509258E+03 0.  0.
         25    1    4    4    0    0 -0.30931344303E+02  0.36380386870E+02  0.71368082444E+02  0.15172736042E+03  0.12509000000E+03 0.  0.
         25    1    4    4    0    0 -0.19374904730E+02 -0.43603259858E+02  0.69284682194E+02  0.15074649744E+03  0.12509000000E+03 0.  0.
         25    1    3    3    0    0  0.50306249033E+02  0.72228729879E+01 -0.77475974697E+02  0.15566927552E+03  0.12509000000E+03 0.  0.
<mgrwt>
<rscale>  2 0.45376627E+03</rscale>
<asrwt>0</asrwt>
<pdfrwt beam="1">  1       21 0.38332348E-01 0.45376627E+03</pdfrwt>
<pdfrwt beam="2">  1       21 0.29041643E-01 0.45376627E+03</pdfrwt>
<totfact> 0.68992412E+04</totfact>
</mgrwt>
</event>
<event>
 7    0  0.4752811E-002  0.4533427E+03  0.7546771E-02  0.1026730E+00
         21   -1    0    0  502  501  0.00000000000E+00  0.00000000000E+00  0.38087288073E+03  0.38087288073E+03  0.00000000000E+00 0. -1.
         21   -1    0    0  501  502 -0.00000000000E+00 -0.00000000000E+00 -0.13490036719E+03  0.13490036719E+03  0.00000000000E+00 0. -1.
      99926    2    1    2    0    0  0.35527136788E-14  0.00000000000E+00  0.24597251354E+03  0.51577324792E+03  0.45334265832E+03 0.  0.
      99925    2    3    3    0    0  0.23133490005E+02 -0.10212583801E+03  0.19908804564E+03  0.34603666796E+03  0.26294577484E+03 0.  0.
         25    1    4    4    0    0  0.37876279122E+02 -0.22387282006E+02  0.11064488082E+03  0.17270089944E+03  0.12509000000E+03 0.  0.
         25    1    4    4    0    0 -0.14742789118E+02 -0.79738556002E+02  0.88443164820E+02  0.17333576852E+03  0.12509000000E+03 0.  0.
         25    1    3    3    0    0 -0.23133490005E+02  0.10212583801E+03  0.46884467909E+02  0.16973657997E+03  0.12509000000E+03 0.  0.
<mgrwt>
<rscale>  2 0.45334266E+03</rscale>
<asrwt>0</asrwt>
<pdfrwt beam="1">  1       21 0.56010718E-01 0.45334266E+03</pdfrwt>
<pdfrwt beam="2">  1       21 0.19838289E-01 0.45334266E+03</pdfrwt>
<totfact> 0.65027092E+04</totfact>
</mgrwt>
</event>
<event>
 7    0  0.4752811E-002  0.4535126E+03  0.7546771E-02  0.1026680E+00
         21   -1    0    0  502  501  0.00000000000E+00  0.00000000000E+00  0.10799242175E+03  0.10799242175E+03  0.00000000000E+00 0. -1.
         21   -1    0    0  501  502 -0.00000000000E+00 -0.00000000000E+00 -0.47612984968E+03  0.47612984968E+03  0.00000000000E+00 0. -1.
      99926    2    1    2    0    0  0.14210854715E-13  0.00000000000E+00 -0.36813742793E+03  0.58412227142E+03  0.45351258211E+03 0.  0.
      99925    2    3    3    0    0  0.99706914228E+02 -0.11787512466E+02 -0.29528366111E+03  0.40795305267E+03  0.26296927287E+03 0.  0.
         25    1    4    4    0    0  0.11916087848E+02 -0.14848311258E+02 -0.15870038856E+03  0.20296745287E+03  0.12509000000E+03 0.  0.
         25    1    4    4    0    0  0.87790826380E+02  0.30607987920E+01 -0.13658327255E+03  0.20498559980E+03  0.12509000000E+03 0.  0.
         25    1    3    3    0    0 -0.99706914228E+02  0.11787512466E+02 -0.72853766822E+02  0.17616921875E+03  0.12509000000E+03 0.  0.
<mgrwt>
<rscale>  2 0.45351258E+03</rscale>
<asrwt>0</asrwt>
<pdfrwt beam="1">  1       21 0.15881238E-01 0.45351258E+03</pdfrwt>
<pdfrwt beam="2">  1       21 0.70019097E-01 0.45351258E+03</pdfrwt>
<totfact> 0.60373104E+04</totfact>
</mgrwt>
</event>
<event>
 7    0  0.4752811E-002  0.4549034E+03  0.7546771E-02  0.1026270E+00
         21   -1    0    0  502  501  0.00000000000E+00  0.00000000000E+00  0.17782520866E+03  0.17782520866E+03  0.00000000000E+00 0.  1.
         21   -1    0    0  501  502 -0.00000000000E+00 -0.00000000000E+00 -0.29092774417E+03  0.29092774417E+03  0.00000000000E+00 0.  1.
      99926    2    1    2    0    0  0.00000000000E+00 -0.14210854715E-13 -0.11310253552E+03  0.46875295283E+03  0.45490344827E+03 0.  0.
      99925    2    3    3    0    0 -0.73452172384E+02  0.77754694402E+02 -0.10903609419E+03  0.30411681410E+03  0.26297747557E+03 0.  0.
         25    1    4    4    0    0 -0.65967298848E+02  0.65165224647E+02 -0.79161651085E+02  0.17467760624E+03  0.12509000000E+03 0.  0.
         25    1    4    4    0    0 -0.74848735363E+01  0.12589469755E+02 -0.29874443107E+02  0.12943920786E+03  0.12509000000E+03 0.  0.
         25    1    3    3    0    0  0.73452172384E+02 -0.77754694402E+02 -0.40664413267E+01  0.16463613873E+03  0.12509000000E+03 0.  0.
<mgrwt>
<rscale>  2 0.45490345E+03</rscale>
<asrwt>0</asrwt>
<pdfrwt beam="1">  1       21 0.26150766E-01 0.45490345E+03</pdfrwt>
<pdfrwt beam="2">  1       21 0.42783491E-01 0.45490345E+03</pdfrwt>
<totfact> 0.67580372E+04</totfact>
</mgrwt>
</event>
<event>
 7    0  0.4752811E-002  0.4458405E+03  0.7546771E-02  0.1028970E+00
         21   -1    0    0  502  501  0.00000000000E+00  0.00000000000E+00  0.39873128712E+03  0.39873128712E+03  0.00000000000E+00 0. -1.
         21   -1    0    0  501  502 -0.00000000000E+00 -0.00000000000E+00 -0.12462891603E+03  0.12462891603E+03  0.00000000000E+00 0. -1.
      99926    2    1    2    0    0  0.00000000000E+00  0.00000000000E+00  0.27410237110E+03  0.52336020315E+03  0.44584054593E+03 0.  0.
      99925    2    3    3    0    0  0.72210060516E+02  0.56123766870E+02  0.23180554491E+03  0.36273424120E+03  0.26358708056E+03 0.  0.
         25    1    4    4    0    0  0.42507053253E+02 -0.92602467070E+01  0.13438349481E+03  0.18867706146E+03  0.12509000000E+03 0.  0.
         25    1    3    3    0    0 -0.72210060516E+02 -0.56123766870E+02  0.42296826191E+02  0.16062596195E+03  0.12509000000E+03 0.  0.
         25    1    4    4    0    0  0.29703007263E+02  0.65384013577E+02  0.97422050103E+02  0.17405717974E+03  0.12509000000E+03 0.  0.
<mgrwt>
<rscale>  2 0.44584055E+03</rscale>
<asrwt>0</asrwt>
<pdfrwt beam="1">  1       21 0.58636954E-01 0.44584055E+03</pdfrwt>
<pdfrwt beam="2">  1       21 0.18327782E-01 0.44584055E+03</pdfrwt>
<totfact> 0.68495538E+04</totfact>
</mgrwt>
</event>
<event>
 7    0  0.4752811E-002  0.4579661E+03  0.7546771E-02  0.1025373E+00
         21   -1    0    0  502  501  0.00000000000E+00  0.00000000000E+00  0.95038247804E+03  0.95038247804E+03  0.00000000000E+00 0.  1.
         21   -1    0    0  501  502 -0.00000000000E+00 -0.00000000000E+00 -0.55170672183E+02  0.55170672183E+02  0.00000000000E+00 0.  1.
      99926    2    1    2    0    0  0.00000000000E+00  0.00000000000E+00  0.89521180586E+03  0.10055531502E+04  0.45796611292E+03 0.  0.
      99925    2    3    3    0    0  0.11345995286E+03  0.18546849387E+02  0.53916855215E+03  0.61105162534E+03  0.26356064706E+03 0.  0.
         25    1    3    3    0    0 -0.11345995286E+03 -0.18546849387E+02  0.35604325371E+03  0.39450152489E+03  0.12509000000E+03 0.  0.
         25    1    4    4    0    0  0.27582038409E+02  0.13005979644E+02  0.31505660533E+03  0.34034996255E+03  0.12509000000E+03 0.  0.
         25    1    4    4    0    0  0.85877914447E+02  0.55408697429E+01  0.22411194682E+03  0.27070166278E+03  0.12509000000E+03 0.  0.
<mgrwt>
<rscale>  2 0.45796611E+03</rscale>
<asrwt>0</asrwt>
<pdfrwt beam="1">  1       21 0.13976212E+00 0.45796611E+03</pdfrwt>
<pdfrwt beam="2">  1       21 0.81133347E-02 0.45796611E+03</pdfrwt>
<totfact> 0.38062183E+04</totfact>
</mgrwt>
</event>
<event>
 7    0  0.4752811E-002  0.4600512E+03  0.7546771E-02  0.1024766E+00
         21   -1    0    0  502  501  0.00000000000E+00  0.00000000000E+00  0.24972405073E+03  0.24972405073E+03  0.00000000000E+00 0.  1.
         21   -1    0    0  501  502 -0.00000000000E+00 -0.00000000000E+00 -0.21188101829E+03  0.21188101829E+03  0.00000000000E+00 0.  1.
      99926    2    1    2    0    0  0.17763568394E-14  0.00000000000E+00  0.37843032435E+02  0.46160506902E+03  0.46005124133E+03 0.  0.
      99925    2    3    3    0    0 -0.78490742759E+01  0.10397223227E+03  0.78830142978E+02  0.29367864352E+03  0.26298502081E+03 0.  0.
         25    1    3    3    0    0  0.78490742759E+01 -0.10397223227E+03 -0.40987110543E+02  0.16792642550E+03  0.12509000000E+03 0.  0.
         25    1    4    4    0    0 -0.24163807268E+02  0.65511219838E+02  0.68283132572E+01  0.14342155859E+03  0.12509000000E+03 0.  0.
         25    1    4    4    0    0  0.16314732992E+02  0.38461012434E+02  0.72001829721E+02  0.15025708494E+03  0.12509000000E+03 0.  0.
<mgrwt>
<rscale>  2 0.46005124E+03</rscale>
<asrwt>0</asrwt>
<pdfrwt beam="1">  1       21 0.36724125E-01 0.46005124E+03</pdfrwt>
<pdfrwt beam="2">  1       21 0.31158973E-01 0.46005124E+03</pdfrwt>
<totfact> 0.65389281E+04</totfact>
</mgrwt>
</event>
<event>
 7    0  0.4752811E-002  0.4540338E+03  0.7546771E-02  0.1026526E+00
         21   -1    0    0  502  501  0.00000000000E+00  0.00000000000E+00  0.85491853333E+03  0.85491853333E+03  0.00000000000E+00 0. -1.
         21   -1    0    0  501  502 -0.00000000000E+00 -0.00000000000E+00 -0.60282564966E+02  0.60282564966E+02  0.00000000000E+00 0. -1.
      99926    2    1    2    0    0  0.00000000000E+00  0.00000000000E+00  0.79463596836E+03  0.91520109829E+03  0.45403384026E+03 0.  0.
      99925    2    3    3    0    0  0.10744953886E+03  0.31333944532E+02  0.51830443279E+03  0.59188415607E+03  0.26298317373E+03 0.  0.
         25    1    3    3    0    0 -0.10744953886E+03 -0.31333944532E+02  0.27633153557E+03  0.32331694223E+03  0.12509000000E+03 0.  0.
         25    1    4    4    0    0  0.19455449034E+02 -0.48846190930E+01  0.26603787017E+03  0.29466257052E+03  0.12509000000E+03 0.  0.
         25    1    4    4    0    0  0.87994089830E+02  0.36218563625E+02  0.25226656262E+03  0.29722158554E+03  0.12509000000E+03 0.  0.
<mgrwt>
<rscale>  2 0.45403384E+03</rscale>
<asrwt>0</asrwt>
<pdfrwt beam="1">  1       21 0.12572331E+00 0.45403384E+03</pdfrwt>
<pdfrwt beam="2">  1       21 0.88650836E-02 0.45403384E+03</pdfrwt>
<totfact> 0.42906467E+04</totfact>
</mgrwt>
</event>
<event>
 7    0  0.4752811E-002  0.4547073E+03  0.7546771E-02  0.1026328E+00
         21   -1    0    0  502  501  0.00000000000E+00  0.00000000000E+00  0.73967959466E+03  0.73967959466E+03  0.00000000000E+00 0. -1.
         21   -1    0    0  501  502 -0.00000000000E+00 -0.00000000000E+00 -0.69881180053E+02  0.69881180053E+02  0.00000000000E+00 0. -1.
      99926    2    1    2    0    0  0.00000000000E+00  0.00000000000E+00  0.66979841461E+03  0.80956077471E+03  0.45470730338E+03 0.  0.
      99925    2    3    3    0    0  0.25277347664E+02  0.71200056946E+02  0.57089949917E+03  0.63310427586E+03  0.26303306549E+03 0.  0.
         25    1    4    4    0    0  0.17522564980E+02  0.65123912860E+01  0.33724378577E+03  0.36018096933E+03  0.12509000000E+03 0.  0.
         25    1    3    3    0    0 -0.25277347664E+02 -0.71200056946E+02  0.98898915439E+02  0.17645649886E+03  0.12509000000E+03 0.  0.
         25    1    4    4    0    0  0.77547826843E+01  0.64687665660E+02  0.23365571340E+03  0.27292330653E+03  0.12509000000E+03 0.  0.
<mgrwt>
<rscale>  2 0.45470730E+03</rscale>
<asrwt>0</asrwt>
<pdfrwt beam="1">  1       21 0.10877641E+00 0.45470730E+03</pdfrwt>
<pdfrwt beam="2">  1       21 0.10276645E-01 0.45470730E+03</pdfrwt>
<totfact> 0.47414652E+04</totfact>
</mgrwt>
</event>
<event>
 7    0  0.4752811E-002  0.4758361E+03  0.7546771E-02  0.1020286E+00
         21   -1    0    0  502  501  0.00000000000E+00  0.00000000000E+00  0.34778452705E+03  0.34778452705E+03  0.00000000000E+00 0. -1.
         21   -1    0    0  501  502 -0.00000000000E+00 -0.00000000000E+00 -0.16275883067E+03  0.16275883067E+03  0.00000000000E+00 0. -1.
      99926    2    1    2    0    0  0.00000000000E+00  0.71054273576E-14  0.18502569638E+03  0.51054335772E+03  0.47583611862E+03 0.  0.
      99925    2    3    3    0    0 -0.12403116725E+03  0.38582475450E+02  0.89102402998E+02  0.30628586294E+03  0.26267747097E+03 0.  0.
         25    1    4    4    0    0 -0.43154590303E+02  0.54485469334E+02  0.48112910462E+02  0.15097465114E+03  0.12509000000E+03 0.  0.
         25    1    3    3    0    0  0.12403116725E+03 -0.38582475450E+02  0.95923293386E+02  0.20425749478E+03  0.12509000000E+03 0.  0.
         25    1    4    4    0    0 -0.80876576943E+02 -0.15902993884E+02  0.40989492536E+02  0.15531121180E+03  0.12509000000E+03 0.  0.
<mgrwt>
<rscale>  2 0.47583612E+03</rscale>
<asrwt>0</asrwt>
<pdfrwt beam="1">  1       21 0.51144783E-01 0.47583612E+03</pdfrwt>
<pdfrwt beam="2">  1       21 0.23935122E-01 0.47583612E+03</pdfrwt>
<totfact> 0.54881497E+04</totfact>
</mgrwt>
</event>
<event>
 7    0  0.4752811E-002  0.4617340E+03  0.7546771E-02  0.1024280E+00
         21   -1    0    0  502  501  0.00000000000E+00  0.00000000000E+00  0.16987742262E+03  0.16987742262E+03  0.00000000000E+00 0.  1.
         21   -1    0    0  501  502 -0.00000000000E+00 -0.00000000000E+00 -0.31375306227E+03  0.31375306227E+03  0.00000000000E+00 0.  1.
      99926    2    1    2    0    0  0.00000000000E+00  0.44408920985E-14 -0.14387563965E+03  0.48363048489E+03  0.46173395612E+03 0.  0.
      99925    2    3    3    0    0  0.36679081761E+02 -0.23501022500E+01  0.28952044262E+02  0.26714077510E+03  0.26301158688E+03 0.  0.
         25    1    3    3    0    0 -0.36679081761E+02  0.23501022500E+01 -0.17282768391E+03  0.21648970979E+03  0.12509000000E+03 0.  0.
         25    1    4    4    0    0 -0.10234112360E+01 -0.36333617296E+02  0.20643850247E+02  0.13188955899E+03  0.12509000000E+03 0.  0.
         25    1    4    4    0    0  0.37702492997E+02  0.33983515046E+02  0.83081940151E+01  0.13525121612E+03  0.12509000000E+03 0.  0.
<mgrwt>
<rscale>  2 0.46173396E+03</rscale>
<asrwt>0</asrwt>
<pdfrwt beam="1">  1       21 0.24981974E-01 0.46173396E+03</pdfrwt>
<pdfrwt beam="2">  1       21 0.46140156E-01 0.46173396E+03</pdfrwt>
<totfact> 0.63001414E+04</totfact>
</mgrwt>
</event>
<event>
 7    0  0.4752811E-002  0.4542782E+03  0.7546771E-02  0.1026454E+00
         21   -1    0    0  502  501  0.00000000000E+00  0.00000000000E+00  0.14897074715E+03  0.14897074715E+03  0.00000000000E+00 0. -1.
         21   -1    0    0  501  502 -0.00000000000E+00 -0.00000000000E+00 -0.34632421206E+03  0.34632421206E+03  0.00000000000E+00 0. -1.
      99926    2    1    2    0    0  0.00000000000E+00  0.00000000000E+00 -0.19735346492E+03  0.49529495921E+03  0.45427822588E+03 0.  0.
      99925    2    3    3    0    0 -0.96117609353E+02  0.35215871709E+02 -0.74234347457E+02  0.29210889268E+03  0.26332131397E+03 0.  0.
         25    1    3    3    0    0  0.96117609353E+02 -0.35215871709E+02 -0.12311911746E+03  0.20318606653E+03  0.12509000000E+03 0.  0.
         25    1    4    4    0    0 -0.85796278605E+02  0.36478343565E+02 -0.28981121001E+02  0.15867918719E+03  0.12509000000E+03 0.  0.
         25    1    4    4    0    0 -0.10321330748E+02 -0.12624718562E+01 -0.45253226456E+02  0.13342970549E+03  0.12509000000E+03 0.  0.
<mgrwt>
<rscale>  2 0.45427823E+03</rscale>
<asrwt>0</asrwt>
<pdfrwt beam="1">  1       21 0.21907463E-01 0.45427823E+03</pdfrwt>
<pdfrwt beam="2">  1       21 0.50930031E-01 0.45427823E+03</pdfrwt>
<totfact> 0.65979720E+04</totfact>
</mgrwt>
</event>
<event>
 7    0  0.4752811E-002  0.4546723E+03  0.7546771E-02  0.1026338E+00
         21   -1    0    0  502  501  0.00000000000E+00  0.00000000000E+00  0.48876262991E+03  0.48876262991E+03  0.00000000000E+00 0. -1.
         21   -1    0    0  501  502 -0.00000000000E+00 -0.00000000000E+00 -0.10573993764E+03  0.10573993764E+03  0.00000000000E+00 0. -1.
      99926    2    1    2    0    0  0.00000000000E+00  0.00000000000E+00  0.38302269228E+03  0.59450256755E+03  0.45467232160E+03 0.  0.
      99925    2    3    3    0    0 -0.64570623521E+02 -0.24852256934E+02  0.12456131382E+03  0.29914381560E+03  0.26302946872E+03 0.  0.
         25    1    3    3    0    0  0.64570623521E+02  0.24852256934E+02  0.25846137846E+03  0.29535875195E+03  0.12509000000E+03 0.  0.
         25    1    4    4    0    0 -0.18332010655E+02 -0.15720232677E+01  0.19827476416E+02  0.12798113452E+03  0.12509000000E+03 0.  0.
         25    1    4    4    0    0 -0.46238612866E+02 -0.23280233666E+02  0.10473383740E+03  0.17116268108E+03  0.12509000000E+03 0.  0.
<mgrwt>
<rscale>  2 0.45467232E+03</rscale>
<asrwt>0</asrwt>
<pdfrwt beam="1">  1       21 0.71876856E-01 0.45467232E+03</pdfrwt>
<pdfrwt beam="2">  1       21 0.15549991E-01 0.45467232E+03</pdfrwt>
<totfact> 0.59171003E+04</totfact>
</mgrwt>
</event>
<event>
 7    0  0.4752811E-002  0.4652193E+03  0.7546771E-02  0.1023278E+00
         21   -1    0    0  502  501  0.00000000000E+00  0.00000000000E+00  0.28523665922E+03  0.28523665922E+03  0.00000000000E+00 0.  1.
         21   -1    0    0  501  502 -0.00000000000E+00 -0.00000000000E+00 -0.18969248521E+03  0.18969248521E+03  0.00000000000E+00 0.  1.
      99926    2    1    2    0    0  0.35527136788E-14 -0.14210854715E-13  0.95544174006E+02  0.47492914443E+03  0.46521930639E+03 0.  0.
      99925    2    3    3    0    0 -0.24608024633E+02  0.94332226345E+02 -0.15991622978E+02  0.28104292544E+03  0.26310695569E+03 0.  0.
         25    1    3    3    0    0  0.24608024633E+02 -0.94332226345E+02  0.11153579698E+03  0.19388621899E+03  0.12509000000E+03 0.  0.
         25    1    4    4    0    0 -0.35359664074E+02  0.14196009350E+02 -0.18558243110E+02  0.13207478568E+03  0.12509000000E+03 0.  0.
         25    1    4    4    0    0  0.10751639441E+02  0.80136216995E+02  0.25666201324E+01  0.14896813976E+03  0.12509000000E+03 0.  0.
<mgrwt>
<rscale>  2 0.46521931E+03</rscale>
<asrwt>0</asrwt>
<pdfrwt beam="1">  1       21 0.41946568E-01 0.46521931E+03</pdfrwt>
<pdfrwt beam="2">  1       21 0.27895954E-01 0.46521931E+03</pdfrwt>
<totfact> 0.61896486E+04</totfact>
</mgrwt>
</event>
<event>
 7    0  0.4752811E-002  0.4559905E+03  0.7546771E-02  0.1025951E+00
         21   -1    0    0  502  501  0.00000000000E+00  0.00000000000E+00  0.35978137172E+03  0.35978137172E+03  0.00000000000E+00 0. -1.
         21   -1    0    0  501  502 -0.00000000000E+00 -0.00000000000E+00 -0.14448173394E+03  0.14448173394E+03  0.00000000000E+00 0. -1.
      99926    2    1    2    0    0  0.00000000000E+00  0.00000000000E+00  0.21529963778E+03  0.50426310566E+03  0.45599051053E+03 0.  0.
      99925    2    3    3    0    0 -0.26782733374E+02 -0.85425658409E+02  0.21463711627E+03  0.35043591379E+03  0.26214763031E+03 0.  0.
         25    1    4    4    0    0  0.12253575371E+02 -0.13251169136E+02  0.11337575948E+03  0.16978608462E+03  0.12509000000E+03 0.  0.
         25    1    3    3    0    0  0.26782733374E+02  0.85425658409E+02  0.66252151483E+00  0.15382719186E+03  0.12509000000E+03 0.  0.
         25    1    4    4    0    0 -0.39036308745E+02 -0.72174489273E+02  0.10126135678E+03  0.18064982917E+03  0.12509000000E+03 0.  0.
<mgrwt>
<rscale>  2 0.45599051E+03</rscale>
<asrwt>0</asrwt>
<pdfrwt beam="1">  1       21 0.52909025E-01 0.45599051E+03</pdfrwt>
<pdfrwt beam="2">  1       21 0.21247314E-01 0.45599051E+03</pdfrwt>
<totfact> 0.64463873E+04</totfact>
</mgrwt>
</event>
<event>
 7    0  0.4752811E-002  0.4548385E+03  0.7546771E-02  0.1026289E+00
         21   -1    0    0  502  501  0.00000000000E+00  0.00000000000E+00  0.25825870710E+03  0.25825870710E+03  0.00000000000E+00 0.  1.
         21   -1    0    0  501  502 -0.00000000000E+00 -0.00000000000E+00 -0.20026239832E+03  0.20026239832E+03  0.00000000000E+00 0.  1.
      99926    2    1    2    0    0  0.71054273576E-14 -0.14210854715E-13  0.57996308784E+02  0.45852110542E+03  0.45483846834E+03 0.  0.
      99925    2    3    3    0    0  0.59625429892E+02 -0.94103137951E+02  0.17525036891E+02  0.28619576076E+03  0.26304047996E+03 0.  0.
         25    1    4    4    0    0  0.22522285227E+02 -0.53300126185E+02 -0.30752288142E+02  0.14121390905E+03  0.12509000000E+03 0.  0.
         25    1    3    3    0    0 -0.59625429892E+02  0.94103137951E+02  0.40471271894E+02  0.17232534466E+03  0.12509000000E+03 0.  0.
         25    1    4    4    0    0  0.37103144665E+02 -0.40803011766E+02  0.48277325033E+02  0.14498185171E+03  0.12509000000E+03 0.  0.
<mgrwt>
<rscale>  2 0.45483847E+03</rscale>
<asrwt>0</asrwt>
<pdfrwt beam="1">  1       21 0.37979222E-01 0.45483847E+03</pdfrwt>
<pdfrwt beam="2">  1       21 0.29450352E-01 0.45483847E+03</pdfrwt>
<totfact> 0.68376498E+04</totfact>
</mgrwt>
</event>
<event>
 7    0  0.4752811E-002  0.4102723E+03  0.7546771E-02  0.1040280E+00
         21   -1    0    0  502  501  0.00000000000E+00  0.00000000000E+00  0.27031608084E+03  0.27031608084E+03  0.00000000000E+00 0.  1.
         21   -1    0    0  501  502 -0.00000000000E+00 -0.00000000000E+00 -0.15567275577E+03  0.15567275577E+03  0.00000000000E+00 0.  1.
      99926    2    1    2    0    0  0.53290705182E-14  0.00000000000E+00  0.11464332507E+03  0.42598883661E+03  0.41027234483E+03 0.  0.
      99925    2    3    3    0    0 -0.12134588402E+02  0.52698964711E+02  0.44287374710E+02  0.27262033603E+03  0.26350720473E+03 0.  0.
         25    1    4    4    0    0 -0.33403557515E+02 -0.10115963034E+01  0.60064481712E+01  0.12961638207E+03  0.12509000000E+03 0.  0.
         25    1    4    4    0    0  0.21268969113E+02  0.53710561014E+02  0.38280926539E+02  0.14300395396E+03  0.12509000000E+03 0.  0.
         25    1    3    3    0    0  0.12134588402E+02 -0.52698964711E+02  0.70355950361E+02  0.15336850057E+03  0.12509000000E+03 0.  0.
<mgrwt>
<rscale>  2 0.41027234E+03</rscale>
<asrwt>0</asrwt>
<pdfrwt beam="1">  1       21 0.39752365E-01 0.41027234E+03</pdfrwt>
<pdfrwt beam="2">  1       21 0.22893052E-01 0.41027234E+03</pdfrwt>
<totfact> 0.10274852E+05</totfact>
</mgrwt>
</event>
<event>
 7    0  0.4752811E-002  0.4560381E+03  0.7546771E-02  0.1025937E+00
         21   -1    0    0  502  501  0.00000000000E+00  0.00000000000E+00  0.50734297810E+03  0.50734297810E+03  0.00000000000E+00 0.  1.
         21   -1    0    0  501  502 -0.00000000000E+00 -0.00000000000E+00 -0.10248033368E+03  0.10248033368E+03  0.00000000000E+00 0.  1.
      99926    2    1    2    0    0  0.14210854715E-13  0.00000000000E+00  0.40486264442E+03  0.60982331177E+03  0.45603805843E+03 0.  0.
      99925    2    3    3    0    0  0.90915016420E+02  0.47964262363E+02  0.32082336205E+03  0.42740560497E+03  0.26302435410E+03 0.  0.
         25    1    3    3    0    0 -0.90915016420E+02 -0.47964262363E+02  0.84039282368E+02  0.18241770680E+03  0.12509000000E+03 0.  0.
         25    1    4    4    0    0  0.73398623972E+02  0.24683635502E+02  0.12412184603E+03  0.19248475427E+03  0.12509000000E+03 0.  0.
         25    1    4    4    0    0  0.17516392448E+02  0.23280626861E+02  0.19670151602E+03  0.23492085070E+03  0.12509000000E+03 0.  0.
<mgrwt>
<rscale>  2 0.45603806E+03</rscale>
<asrwt>0</asrwt>
<pdfrwt beam="1">  1       21 0.74609260E-01 0.45603806E+03</pdfrwt>
<pdfrwt beam="2">  1       21 0.15070638E-01 0.45603806E+03</pdfrwt>
<totfact> 0.57603872E+04</totfact>
</mgrwt>
</event>
<event>
 7    0  0.4752811E-002  0.4537813E+03  0.7546771E-02  0.1026600E+00
         21   -1    0    0  502  501  0.00000000000E+00  0.00000000000E+00  0.55446618030E+03  0.55446618030E+03  0.00000000000E+00 0.  1.
         21   -1    0    0  501  502 -0.00000000000E+00 -0.00000000000E+00 -0.92844923252E+02  0.92844923252E+02  0.00000000000E+00 0.  1.
      99926    2    1    2    0    0  0.00000000000E+00 -0.14210854715E-13  0.46162125705E+03  0.64731110355E+03  0.45378131278E+03 0.  0.
      99925    2    3    3    0    0 -0.83717457907E+01  0.70978785173E+02  0.41391388274E+03  0.49554952826E+03  0.26293831703E+03 0.  0.
         25    1    4    4    0    0 -0.74360166549E+01  0.27286687389E+02  0.27576206844E+03  0.30412511265E+03  0.12509000000E+03 0.  0.
         25    1    3    3    0    0  0.83717457907E+01 -0.70978785173E+02  0.47707374309E+02  0.15176157529E+03  0.12509000000E+03 0.  0.
         25    1    4    4    0    0 -0.93572913576E+00  0.43692097784E+02  0.13815181430E+03  0.19142441561E+03  0.12509000000E+03 0.  0.
<mgrwt>
<rscale>  2 0.45378131E+03</rscale>
<asrwt>0</asrwt>
<pdfrwt beam="1">  1       21 0.81539142E-01 0.45378131E+03</pdfrwt>
<pdfrwt beam="2">  1       21 0.13653665E-01 0.45378131E+03</pdfrwt>
<totfact> 0.56396962E+04</totfact>
</mgrwt>
</event>
<event>
 7    0  0.4752811E-002  0.4623181E+03  0.7546771E-02  0.1024111E+00
         21   -1    0    0  502  501  0.00000000000E+00  0.00000000000E+00  0.12781959636E+03  0.12781959636E+03  0.00000000000E+00 0. -1.
         21   -1    0    0  501  502 -0.00000000000E+00 -0.00000000000E+00 -0.41804624284E+03  0.41804624284E+03  0.00000000000E+00 0. -1.
      99926    2    1    2    0    0  0.00000000000E+00  0.71054273576E-14 -0.29022664647E+03  0.54586583920E+03  0.46231808107E+03 0.  0.
      99925    2    3    3    0    0  0.10452839230E+03 -0.50681448179E+02 -0.14270096746E+03  0.32024197510E+03  0.26210029095E+03 0.  0.
         25    1    4    4    0    0  0.16202268345E+02 -0.83017514665E+01 -0.47628096495E+02  0.13508284959E+03  0.12509000000E+03 0.  0.
         25    1    4    4    0    0  0.88326123952E+02 -0.42379696712E+02 -0.95072870968E+02  0.18515912551E+03  0.12509000000E+03 0.  0.
         25    1    3    3    0    0 -0.10452839230E+03  0.50681448179E+02 -0.14752567901E+03  0.22562386410E+03  0.12509000000E+03 0.  0.
<mgrwt>
<rscale>  2 0.46231808E+03</rscale>
<asrwt>0</asrwt>
<pdfrwt beam="1">  1       21 0.18796999E-01 0.46231808E+03</pdfrwt>
<pdfrwt beam="2">  1       21 0.61477390E-01 0.46231808E+03</pdfrwt>
<totfact> 0.58668380E+04</totfact>
</mgrwt>
</event>
<event>
 7    0  0.4752811E-002  0.4567519E+03  0.7546771E-02  0.1025727E+00
         21   -1    0    0  502  501  0.00000000000E+00  0.00000000000E+00  0.26023543868E+03  0.26023543868E+03  0.00000000000E+00 0.  1.
         21   -1    0    0  501  502 -0.00000000000E+00 -0.00000000000E+00 -0.20041686513E+03  0.20041686513E+03  0.00000000000E+00 0.  1.
      99926    2    1    2    0    0  0.14210854715E-13  0.00000000000E+00  0.59818573551E+02  0.46065230381E+03  0.45675188370E+03 0.  0.
      99925    2    3    3    0    0 -0.10008774587E+03 -0.53408545527E+02  0.55708722025E+02  0.29173093574E+03  0.26293240111E+03 0.  0.
         25    1    4    4    0    0 -0.91777721847E+02 -0.21915899223E+02  0.38325055063E+02  0.16130646240E+03  0.12509000000E+03 0.  0.
         25    1    3    3    0    0  0.10008774587E+03  0.53408545527E+02  0.41098515255E+01  0.16892136806E+03  0.12509000000E+03 0.  0.
         25    1    4    4    0    0 -0.83100240185E+01 -0.31492646304E+02  0.17383666962E+02  0.13042447335E+03  0.12509000000E+03 0.  0.
<mgrwt>
<rscale>  2 0.45675188E+03</rscale>
<asrwt>0</asrwt>
<pdfrwt beam="1">  1       21 0.38269918E-01 0.45675188E+03</pdfrwt>
<pdfrwt beam="2">  1       21 0.29473068E-01 0.45675188E+03</pdfrwt>
<totfact> 0.67189424E+04</totfact>
</mgrwt>
</event>
<event>
 7    0  0.4752811E-002  0.4510780E+03  0.7546771E-02  0.1027401E+00
         21   -1    0    0  502  501  0.00000000000E+00  0.00000000000E+00  0.17416769669E+03  0.17416769669E+03  0.00000000000E+00 0.  1.
         21   -1    0    0  501  502 -0.00000000000E+00 -0.00000000000E+00 -0.29206238517E+03  0.29206238517E+03  0.00000000000E+00 0.  1.
      99926    2    1    2    0    0  0.00000000000E+00  0.00000000000E+00 -0.11789468848E+03  0.46623008185E+03  0.45107796627E+03 0.  0.
      99925    2    3    3    0    0  0.15220305493E+02 -0.91559400455E+02 -0.13438466941E+03  0.30959608464E+03  0.26301276536E+03 0.  0.
         25    1    4    4    0    0 -0.28956191989E+02 -0.63603319970E+02 -0.71881683956E+02  0.16030698037E+03  0.12509000000E+03 0.  0.
         25    1    3    3    0    0 -0.15220305493E+02  0.91559400455E+02  0.16489980927E+02  0.15663399721E+03  0.12509000000E+03 0.  0.
         25    1    4    4    0    0  0.44176497482E+02 -0.27956080484E+02 -0.62502985453E+02  0.14928910428E+03  0.12509000000E+03 0.  0.
<mgrwt>
<rscale>  2 0.45107797E+03</rscale>
<asrwt>0</asrwt>
<pdfrwt beam="1">  1       21 0.25612897E-01 0.45107797E+03</pdfrwt>
<pdfrwt beam="2">  1       21 0.42950351E-01 0.45107797E+03</pdfrwt>
<totfact> 0.69865683E+04</totfact>
</mgrwt>
</event>
<event>
 7    0  0.4752811E-002  0.4542614E+03  0.7546771E-02  0.1026459E+00
         21   -1    0    0  502  501  0.00000000000E+00  0.00000000000E+00  0.97315982209E+02  0.97315982209E+02  0.00000000000E+00 0.  1.
         21   -1    0    0  501  502 -0.00000000000E+00 -0.00000000000E+00 -0.53011180915E+03  0.53011180915E+03  0.00000000000E+00 0.  1.
      99926    2    1    2    0    0 -0.14210854715E-13 -0.71054273576E-14 -0.43279582694E+03  0.62742779136E+03  0.45426138461E+03 0.  0.
      99925    2    3    3    0    0 -0.10277059719E+03 -0.36378591522E+02 -0.23400224880E+03  0.36848456906E+03  0.26294225149E+03 0.  0.
         25    1    3    3    0    0  0.10277059719E+03  0.36378591522E+02 -0.19879357814E+03  0.25894322230E+03  0.12509000000E+03 0.  0.
         25    1    4    4    0    0 -0.34469426921E+02  0.20100602167E+02 -0.11110368720E+03  0.17199916572E+03  0.12509000000E+03 0.  0.
         25    1    4    4    0    0 -0.68301170265E+02 -0.56479193689E+02 -0.12289856160E+03  0.19648540333E+03  0.12509000000E+03 0.  0.
<mgrwt>
<rscale>  2 0.45426138E+03</rscale>
<asrwt>0</asrwt>
<pdfrwt beam="1">  1       21 0.14311174E-01 0.45426138E+03</pdfrwt>
<pdfrwt beam="2">  1       21 0.77957619E-01 0.45426138E+03</pdfrwt>
<totfact> 0.57354704E+04</totfact>
</mgrwt>
</event>
<event>
 7    0  0.4752811E-002  0.4493793E+03  0.7546771E-02  0.1027907E+00
         21   -1    0    0  502  501  0.00000000000E+00  0.00000000000E+00  0.93778566300E+02  0.93778566300E+02  0.00000000000E+00 0.  1.
         21   -1    0    0  501  502 -0.00000000000E+00 -0.00000000000E+00 -0.53834739100E+03  0.53834739100E+03  0.00000000000E+00 0.  1.
      99926    2    1    2    0    0  0.00000000000E+00  0.00000000000E+00 -0.44456882469E+03  0.63212595730E+03  0.44937933419E+03 0.  0.
      99925    2    3    3    0    0 -0.55775698110E+02 -0.70636413231E+02 -0.19904769883E+03  0.34224915119E+03  0.26346548864E+03 0.  0.
         25    1    4    4    0    0 -0.51168928361E+02 -0.70133583400E+02 -0.12340627937E+03  0.19599386888E+03  0.12509000000E+03 0.  0.
         25    1    3    3    0    0  0.55775698110E+02  0.70636413231E+02 -0.24552112586E+03  0.28987680611E+03  0.12509000000E+03 0.  0.
         25    1    4    4    0    0 -0.46067697493E+01 -0.50282983122E+00 -0.75641419467E+02  0.14625528231E+03  0.12509000000E+03 0.  0.
<mgrwt>
<rscale>  2 0.44937933E+03</rscale>
<asrwt>0</asrwt>
<pdfrwt beam="1">  1       21 0.13790966E-01 0.44937933E+03</pdfrwt>
<pdfrwt beam="2">  1       21 0.79168733E-01 0.44937933E+03</pdfrwt>
<totfact> 0.59331922E+04</totfact>
</mgrwt>
</event>
<event>
 7    0  0.4752811E-002  0.4534226E+03  0.7546771E-02  0.1026706E+00
         21   -1    0    0  502  501  0.00000000000E+00  0.00000000000E+00  0.22579797608E+03  0.22579797608E+03  0.00000000000E+00 0. -1.
         21   -1    0    0  501  502 -0.00000000000E+00 -0.00000000000E+00 -0.22762827396E+03  0.22762827396E+03  0.00000000000E+00 0. -1.
      99926    2    1    2    0    0  0.00000000000E+00  0.14210854715E-13 -0.18302978763E+01  0.45342625004E+03  0.45342255594E+03 0.  0.
      99925    2    3    3    0    0  0.52940948425E+02  0.81740958932E+02  0.54603692643E+02  0.28515078607E+03  0.26238345825E+03 0.  0.
         25    1    3    3    0    0 -0.52940948425E+02 -0.81740958932E+02 -0.56433990519E+02  0.16827546397E+03  0.12509000000E+03 0.  0.
         25    1    4    4    0    0 -0.23563436361E+01  0.17248597804E+02  0.64579006521E+01  0.12646058304E+03  0.12509000000E+03 0.  0.
         25    1    4    4    0    0  0.55297292061E+02  0.64492361129E+02  0.48145791991E+02  0.15869020304E+03  0.12509000000E+03 0.  0.
<mgrwt>
<rscale>  2 0.45342256E+03</rscale>
<asrwt>0</asrwt>
<pdfrwt beam="1">  1       21 0.33205585E-01 0.45342256E+03</pdfrwt>
<pdfrwt beam="2">  1       21 0.33474746E-01 0.45342256E+03</pdfrwt>
<totfact> 0.69532281E+04</totfact>
</mgrwt>
</event>
<event>
 7    0  0.4752811E-002  0.4547358E+03  0.7546771E-02  0.1026319E+00
         21   -1    0    0  502  501  0.00000000000E+00  0.00000000000E+00  0.63820971337E+02  0.63820971337E+02  0.00000000000E+00 0. -1.
         21   -1    0    0  501  502 -0.00000000000E+00 -0.00000000000E+00 -0.81001829158E+03  0.81001829158E+03  0.00000000000E+00 0. -1.
      99926    2    1    2    0    0  0.00000000000E+00  0.00000000000E+00 -0.74619732025E+03  0.87383926292E+03  0.45473576578E+03 0.  0.
      99925    2    3    3    0    0  0.10374122238E+03  0.10879599081E+02 -0.38618107633E+03  0.47869395941E+03  0.26292865225E+03 0.  0.
         25    1    3    3    0    0 -0.10374122238E+03 -0.10879599081E+02 -0.36001624392E+03  0.39514530351E+03  0.12509000000E+03 0.  0.
         25    1    4    4    0    0  0.17365524241E+02 -0.15909711565E+02 -0.15259100671E+03  0.19871135796E+03  0.12509000000E+03 0.  0.
         25    1    4    4    0    0  0.86375698135E+02  0.26789310646E+02 -0.23359006961E+03  0.27998260145E+03  0.12509000000E+03 0.  0.
<mgrwt>
<rscale>  2 0.45473577E+03</rscale>
<asrwt>0</asrwt>
<pdfrwt beam="1">  1       21 0.93854386E-02 0.45473577E+03</pdfrwt>
<pdfrwt beam="2">  1       21 0.11912032E+00 0.45473577E+03</pdfrwt>
<totfact> 0.44476131E+04</totfact>
</mgrwt>
</event>
<event>
 7    0  0.4752811E-002  0.4543014E+03  0.7546771E-02  0.1026447E+00
         21   -1    0    0  502  501  0.00000000000E+00  0.00000000000E+00  0.11322606104E+03  0.11322606104E+03  0.00000000000E+00 0. -1.
         21   -1    0    0  501  502 -0.00000000000E+00 -0.00000000000E+00 -0.45570291608E+03  0.45570291608E+03  0.00000000000E+00 0. -1.
      99926    2    1    2    0    0  0.00000000000E+00  0.00000000000E+00 -0.34247685503E+03  0.56892897712E+03  0.45430142502E+03 0.  0.
      99925    2    3    3    0    0 -0.36129078529E+02  0.68783429837E+02 -0.31757557835E+03  0.41958356468E+03  0.26298222231E+03 0.  0.
         25    1    4    4    0    0 -0.16990775306E+02  0.71907009326E+00 -0.18572866276E+03  0.22457036265E+03  0.12509000000E+03 0.  0.
         25    1    4    4    0    0 -0.19138303222E+02  0.68064359743E+02 -0.13184691559E+03  0.19501320204E+03  0.12509000000E+03 0.  0.
         25    1    3    3    0    0  0.36129078529E+02 -0.68783429837E+02 -0.24901276680E+02  0.14934541244E+03  0.12509000000E+03 0.  0.
<mgrwt>
<rscale>  2 0.45430143E+03</rscale>
<asrwt>0</asrwt>
<pdfrwt beam="1">  1       21 0.16650892E-01 0.45430143E+03</pdfrwt>
<pdfrwt beam="2">  1       21 0.67015134E-01 0.45430143E+03</pdfrwt>
<totfact> 0.60968844E+04</totfact>
</mgrwt>
</event>
<event>
 7    0  0.4752811E-002  0.4576822E+03  0.7546771E-02  0.1025456E+00
         21   -1    0    0  502  501  0.00000000000E+00  0.00000000000E+00  0.38663455581E+03  0.38663455581E+03  0.00000000000E+00 0. -1.
         21   -1    0    0  501  502 -0.00000000000E+00 -0.00000000000E+00 -0.13544637166E+03  0.13544637166E+03  0.00000000000E+00 0. -1.
      99926    2    1    2    0    0 -0.35527136788E-14  0.00000000000E+00  0.25118818414E+03  0.52208092747E+03  0.45768219429E+03 0.  0.
      99925    2    3    3    0    0 -0.23496423743E+02  0.10218770552E+03  0.21345477681E+03  0.35455263965E+03  0.26296430072E+03 0.  0.
         25    1    4    4    0    0 -0.24262292337E+02  0.11012149230E+02  0.10607783541E+03  0.16616239504E+03  0.12509000000E+03 0.  0.
         25    1    4    4    0    0  0.76586859347E+00  0.91175556295E+02  0.10737694139E+03  0.18839024461E+03  0.12509000000E+03 0.  0.
         25    1    3    3    0    0  0.23496423743E+02 -0.10218770552E+03  0.37733407339E+02  0.16752828782E+03  0.12509000000E+03 0.  0.
<mgrwt>
<rscale>  2 0.45768219E+03</rscale>
<asrwt>0</asrwt>
<pdfrwt beam="1">  1       21 0.56858023E-01 0.45768219E+03</pdfrwt>
<pdfrwt beam="2">  1       21 0.19918584E-01 0.45768219E+03</pdfrwt>
<totfact> 0.62407091E+04</totfact>
</mgrwt>
</event>
<event>
 7    0  0.4752811E-002  0.4559596E+03  0.7546771E-02  0.1025960E+00
         21   -1    0    0  502  501  0.00000000000E+00  0.00000000000E+00  0.23563812663E+03  0.23563812663E+03  0.00000000000E+00 0. -1.
         21   -1    0    0  501  502 -0.00000000000E+00 -0.00000000000E+00 -0.22057034393E+03  0.22057034393E+03  0.00000000000E+00 0. -1.
      99926    2    1    2    0    0  0.00000000000E+00  0.71054273576E-14  0.15067782707E+02  0.45620847056E+03  0.45595957117E+03 0.  0.
      99925    2    3    3    0    0  0.89214018337E+02  0.52077138020E+02  0.57822128357E+02  0.28843895145E+03  0.26302558965E+03 0.  0.
         25    1    4    4    0    0  0.11624324907E+02  0.31369528098E+02  0.15500305606E+01  0.12949549381E+03  0.12509000000E+03 0.  0.
         25    1    3    3    0    0 -0.89214018337E+02 -0.52077138020E+02 -0.42754345650E+02  0.16776951912E+03  0.12509000000E+03 0.  0.
         25    1    4    4    0    0  0.77589693430E+02  0.20707609922E+02  0.56272097796E+02  0.15894345764E+03  0.12509000000E+03 0.  0.
<mgrwt>
<rscale>  2 0.45595957E+03</rscale>
<asrwt>0</asrwt>
<pdfrwt beam="1">  1       21 0.34652666E-01 0.45595957E+03</pdfrwt>
<pdfrwt beam="2">  1       21 0.32436815E-01 0.45595957E+03</pdfrwt>
<totfact> 0.67935733E+04</totfact>
</mgrwt>
</event>
<event>
 7    0  0.4752811E-002  0.4510377E+03  0.7546771E-02  0.1027413E+00
         21   -1    0    0  502  501  0.00000000000E+00  0.00000000000E+00  0.14126886374E+04  0.14126886374E+04  0.00000000000E+00 0.  1.
         21   -1    0    0  501  502 -0.00000000000E+00 -0.00000000000E+00 -0.36001386870E+02  0.36001386870E+02  0.00000000000E+00 0.  1.
      99926    2    1    2    0    0  0.00000000000E+00  0.00000000000E+00  0.13766872505E+04  0.14486900243E+04  0.45103769316E+03 0.  0.
      99925    2    3    3    0    0  0.36995831707E+02 -0.10202989564E+03  0.82480226406E+03  0.87249271644E+03  0.26299424759E+03 0.  0.
         25    1    3    3    0    0 -0.36995831707E+02  0.10202989564E+03  0.55188498648E+03  0.57619730784E+03  0.12509000000E+03 0.  0.
         25    1    4    4    0    0  0.29582380743E+01 -0.88066331001E+02  0.40668292835E+03  0.43451460521E+03  0.12509000000E+03 0.  0.
         25    1    4    4    0    0  0.34037593633E+02 -0.13963564639E+02  0.41811933571E+03  0.43797811122E+03  0.12509000000E+03 0.  0.
<mgrwt>
<rscale>  2 0.45103769E+03</rscale>
<asrwt>0</asrwt>
<pdfrwt beam="1">  1       21 0.20774829E+00 0.45103769E+03</pdfrwt>
<pdfrwt beam="2">  1       21 0.52943225E-02 0.45103769E+03</pdfrwt>
<totfact> 0.25849570E+04</totfact>
</mgrwt>
</event>
<event>
 7    0  0.4752811E-002  0.4573338E+03  0.7546771E-02  0.1025557E+00
         21   -1    0    0  502  501  0.00000000000E+00  0.00000000000E+00  0.82402298569E+03  0.82402298569E+03  0.00000000000E+00 0.  1.
         21   -1    0    0  501  502 -0.00000000000E+00 -0.00000000000E+00 -0.63455206103E+02  0.63455206103E+02  0.00000000000E+00 0.  1.
      99926    2    1    2    0    0  0.17763568394E-14  0.00000000000E+00  0.76056777958E+03  0.88747819179E+03  0.45733378791E+03 0.  0.
      99925    2    3    3    0    0  0.15342525532E+02  0.48744911884E+02  0.27619638391E+03  0.38461179146E+03  0.26273623299E+03 0.  0.
         25    1    4    4    0    0 -0.25359035927E+02  0.55030527069E+01  0.11271745433E+03  0.17037046957E+03  0.12509000000E+03 0.  0.
         25    1    3    3    0    0 -0.15342525532E+02 -0.48744911884E+02  0.48437139568E+03  0.50286640033E+03  0.12509000000E+03 0.  0.
         25    1    4    4    0    0  0.40701561459E+02  0.43241859177E+02  0.16347892957E+03  0.21424132189E+03  0.12509000000E+03 0.  0.
<mgrwt>
<rscale>  2 0.45733379E+03</rscale>
<asrwt>0</asrwt>
<pdfrwt beam="1">  1       21 0.12117984E+00 0.45733379E+03</pdfrwt>
<pdfrwt beam="2">  1       21 0.93316484E-02 0.45733379E+03</pdfrwt>
<totfact> 0.42988476E+04</totfact>
</mgrwt>
</event>
<event>
 7    0  0.4752811E-002  0.4725274E+03  0.7546771E-02  0.1021209E+00
         21   -1    0    0  502  501  0.00000000000E+00  0.00000000000E+00  0.13698641060E+03  0.13698641060E+03  0.00000000000E+00 0.  1.
         21   -1    0    0  501  502 -0.00000000000E+00 -0.00000000000E+00 -0.40748955824E+03  0.40748955824E+03  0.00000000000E+00 0.  1.
      99926    2    1    2    0    0  0.00000000000E+00  0.00000000000E+00 -0.27050314764E+03  0.54447596883E+03  0.47252738308E+03 0.  0.
      99925    2    3    3    0    0  0.79067363649E+02  0.20913580309E+02 -0.52760345463E+02  0.28037662799E+03  0.26294176852E+03 0.  0.
         25    1    4    4    0    0  0.79011227590E+02 -0.30462184709E+01 -0.26723363521E+02  0.15037852170E+03  0.12509000000E+03 0.  0.
         25    1    3    3    0    0 -0.79067363649E+02 -0.20913580309E+02 -0.21774280218E+03  0.26409934085E+03  0.12509000000E+03 0.  0.
         25    1    4    4    0    0  0.56136058570E-01  0.23959798780E+02 -0.26036981942E+02  0.12999810628E+03  0.12509000000E+03 0.  0.
<mgrwt>
<rscale>  2 0.47252738E+03</rscale>
<asrwt>0</asrwt>
<pdfrwt beam="1">  1       21 0.20145060E-01 0.47252738E+03</pdfrwt>
<pdfrwt beam="2">  1       21 0.59924935E-01 0.47252738E+03</pdfrwt>
<totfact> 0.54294049E+04</totfact>
</mgrwt>
</event>
<event>
 7    0  0.4752811E-002  0.4552697E+03  0.7546771E-02  0.1026162E+00
         21   -1    0    0  502  501  0.00000000000E+00  0.00000000000E+00  0.19287193122E+03  0.19287193122E+03  0.00000000000E+00 0. -1.
         21   -1    0    0  501  502 -0.00000000000E+00 -0.00000000000E+00 -0.26866341382E+03  0.26866341382E+03  0.00000000000E+00 0. -1.
      99926    2    1    2    0    0  0.00000000000E+00  0.00000000000E+00 -0.75791482601E+02  0.46153534503E+03  0.45526972871E+03 0.  0.
      99925    2    3    3    0    0  0.89605447359E+02  0.68329876702E+02 -0.61078310983E+02  0.29253210907E+03  0.26295696704E+03 0.  0.
         25    1    3    3    0    0 -0.89605447359E+02 -0.68329876702E+02 -0.14713171618E+02  0.16900323596E+03  0.12509000000E+03 0.  0.
         25    1    4    4    0    0  0.28323689260E+02  0.26343637924E+02 -0.66688918766E+02  0.14693923444E+03  0.12509000000E+03 0.  0.
         25    1    4    4    0    0  0.61281758099E+02  0.41986238778E+02  0.56106077823E+01  0.14559287463E+03  0.12509000000E+03 0.  0.
<mgrwt>
<rscale>  2 0.45526973E+03</rscale>
<asrwt>0</asrwt>
<pdfrwt beam="1">  1       21 0.28363519E-01 0.45526973E+03</pdfrwt>
<pdfrwt beam="2">  1       21 0.39509326E-01 0.45526973E+03</pdfrwt>
<totfact> 0.67922285E+04</totfact>
</mgrwt>
</event>
<event>
 7    0  0.4752811E-002  0.4398863E+03  0.7546771E-02  0.1030782E+00
         21   -1    0    0  502  501  0.00000000000E+00  0.00000000000E+00  0.71024553065E+03  0.71024553065E+03  0.00000000000E+00 0.  1.
         21   -1    0    0  501  502 -0.00000000000E+00 -0.00000000000E+00 -0.68110236265E+02  0.68110236265E+02  0.00000000000E+00 0.  1.
      99926    2    1    2    0    0 -0.35527136788E-14  0.00000000000E+00  0.64213529439E+03  0.77835576692E+03  0.43988630758E+03 0.  0.
      99925    2    3    3    0    0  0.31273678756E+02  0.83038648651E+02  0.33559047725E+03  0.43558661258E+03  0.26313735669E+03 0.  0.
         25    1    4    4    0    0 -0.90278436060E+01  0.12529422374E+02  0.18310032426E+03  0.22228748330E+03  0.12509000000E+03 0.  0.
         25    1    4    4    0    0  0.40301522362E+02  0.70509226276E+02  0.15249015299E+03  0.21329912929E+03  0.12509000000E+03 0.  0.
         25    1    3    3    0    0 -0.31273678756E+02 -0.83038648651E+02  0.30654481713E+03  0.34276915434E+03  0.12509000000E+03 0.  0.
<mgrwt>
<rscale>  2 0.43988631E+03</rscale>
<asrwt>0</asrwt>
<pdfrwt beam="1">  1       21 0.10444787E+00 0.43988631E+03</pdfrwt>
<pdfrwt beam="2">  1       21 0.10016212E-01 0.43988631E+03</pdfrwt>
<totfact> 0.55078950E+04</totfact>
</mgrwt>
</event>
<event>
 7    0  0.4752811E-002  0.4541778E+03  0.7546771E-02  0.1026483E+00
         21   -1    0    0  502  501  0.00000000000E+00  0.00000000000E+00  0.98034013257E+03  0.98034013257E+03  0.00000000000E+00 0.  1.
         21   -1    0    0  501  502 -0.00000000000E+00 -0.00000000000E+00 -0.52603549959E+02  0.52603549959E+02  0.00000000000E+00 0.  1.
      99926    2    1    2    0    0  0.00000000000E+00  0.00000000000E+00  0.92773658261E+03  0.10329436825E+04  0.45417781161E+03 0.  0.
      99925    2    3    3    0    0 -0.74070142716E+02  0.77373730013E+02  0.50649907663E+03  0.58065878925E+03  0.26296432224E+03 0.  0.
         25    1    3    3    0    0  0.74070142716E+02 -0.77373730013E+02  0.42123750599E+03  0.45228489328E+03  0.12509000000E+03 0.  0.
         25    1    4    4    0    0 -0.50900094549E+02  0.79420210412E+02  0.27484444778E+03  0.31636271592E+03  0.12509000000E+03 0.  0.
         25    1    4    4    0    0 -0.23170048167E+02 -0.20464803994E+01  0.23165462884E+03  0.26429607333E+03  0.12509000000E+03 0.  0.
<mgrwt>
<rscale>  2 0.45417781E+03</rscale>
<asrwt>0</asrwt>
<pdfrwt beam="1">  1       21 0.14416766E+00 0.45417781E+03</pdfrwt>
<pdfrwt beam="2">  1       21 0.77358168E-02 0.45417781E+03</pdfrwt>
<totfact> 0.38153843E+04</totfact>
</mgrwt>
</event>
<event>
 7    0  0.4752811E-002  0.4541963E+03  0.7546771E-02  0.1026478E+00
         21   -1    0    0  502  501  0.00000000000E+00  0.00000000000E+00  0.51847011602E+02  0.51847011602E+02  0.00000000000E+00 0.  1.
         21   -1    0    0  501  502 -0.00000000000E+00 -0.00000000000E+00 -0.99472614349E+03  0.99472614349E+03  0.00000000000E+00 0.  1.
      99926    2    1    2    0    0  0.00000000000E+00  0.14210854715E-13 -0.94287913189E+03  0.10465731551E+04  0.45419633597E+03 0.  0.
      99925    2    3    3    0    0 -0.18398992389E+02 -0.11019253541E+03 -0.62261348412E+03  0.68505066476E+03  0.26299419174E+03 0.  0.
         25    1    4    4    0    0  0.54241377588E+01 -0.14539102413E+02 -0.25657184579E+03  0.28586260147E+03  0.12509000000E+03 0.  0.
         25    1    4    4    0    0 -0.23823130148E+02 -0.95653432996E+02 -0.36604163834E+03  0.39918806329E+03  0.12509000000E+03 0.  0.
         25    1    3    3    0    0  0.18398992389E+02  0.11019253541E+03 -0.32026564777E+03  0.36152249034E+03  0.12509000000E+03 0.  0.
<mgrwt>
<rscale>  2 0.45419634E+03</rscale>
<asrwt>0</asrwt>
<pdfrwt beam="1">  1       21 0.76245602E-02 0.45419634E+03</pdfrwt>
<pdfrwt beam="2">  1       21 0.14628326E+00 0.45419634E+03</pdfrwt>
<totfact> 0.37638934E+04</totfact>
</mgrwt>
</event>
<event>
 7    0  0.4752811E-002  0.4562470E+03  0.7546771E-02  0.1025875E+00
         21   -1    0    0  502  501  0.00000000000E+00  0.00000000000E+00  0.21092223741E+03  0.21092223741E+03  0.00000000000E+00 0. -1.
         21   -1    0    0  501  502 -0.00000000000E+00 -0.00000000000E+00 -0.24672761554E+03  0.24672761554E+03  0.00000000000E+00 0. -1.
      99926    2    1    2    0    0  0.14210854715E-13  0.00000000000E+00 -0.35805378135E+02  0.45764985295E+03  0.45624704142E+03 0.  0.
      99925    2    3    3    0    0  0.93455931051E+02 -0.64999921314E+02 -0.11942039975E+02  0.28684011134E+03  0.26301261631E+03 0.  0.
         25    1    4    4    0    0  0.28695573859E+02 -0.68913153779E+02 -0.50844602662E+01  0.14575945444E+03  0.12509000000E+03 0.  0.
         25    1    3    3    0    0 -0.93455931051E+02  0.64999921314E+02 -0.23863338160E+02  0.17080974161E+03  0.12509000000E+03 0.  0.
         25    1    4    4    0    0  0.64760357192E+02  0.39132324653E+01 -0.68575797085E+01  0.14108065690E+03  0.12509000000E+03 0.  0.
<mgrwt>
<rscale>  2 0.45624704E+03</rscale>
<asrwt>0</asrwt>
<pdfrwt beam="1">  1       21 0.31017976E-01 0.45624704E+03</pdfrwt>
<pdfrwt beam="2">  1       21 0.36283473E-01 0.45624704E+03</pdfrwt>
<totfact> 0.67676259E+04</totfact>
</mgrwt>
</event>
<event>
 7    0  0.4752811E-002  0.4534163E+03  0.7546771E-02  0.1026708E+00
         21   -1    0    0  502  501  0.00000000000E+00  0.00000000000E+00  0.11961072458E+03  0.11961072458E+03  0.00000000000E+00 0. -1.
         21   -1    0    0  501  502 -0.00000000000E+00 -0.00000000000E+00 -0.42969882193E+03  0.42969882193E+03  0.00000000000E+00 0. -1.
      99926    2    1    2    0    0 -0.35527136788E-14  0.00000000000E+00 -0.31008809735E+03  0.54930954651E+03  0.45341630955E+03 0.  0.
      99925    2    3    3    0    0 -0.20349911590E+02  0.50733505802E+02 -0.31322539413E+03  0.41276153940E+03  0.26319941749E+03 0.  0.
         25    1    3    3    0    0  0.20349911590E+02 -0.50733505802E+02  0.31372967787E+01  0.13654800710E+03  0.12509000000E+03 0.  0.
         25    1    4    4    0    0 -0.29367370515E+02 -0.87126713420E+01 -0.13102746707E+03  0.18372277572E+03  0.12509000000E+03 0.  0.
         25    1    4    4    0    0  0.90174589244E+01  0.59446177144E+02 -0.18219792706E+03  0.22903876368E+03  0.12509000000E+03 0.  0.
<mgrwt>
<rscale>  2 0.45341631E+03</rscale>
<asrwt>0</asrwt>
<pdfrwt beam="1">  1       21 0.17589813E-01 0.45341631E+03</pdfrwt>
<pdfrwt beam="2">  1       21 0.63191002E-01 0.45341631E+03</pdfrwt>
<totfact> 0.62694044E+04</totfact>
</mgrwt>
</event>
<event>
 7    0  0.4752811E-002  0.4550939E+03  0.7546771E-02  0.1026214E+00
         21   -1    0    0  502  501  0.00000000000E+00  0.00000000000E+00  0.12563870783E+04  0.12563870783E+04  0.00000000000E+00 0. -1.
         21   -1    0    0  501  502 -0.00000000000E+00 -0.00000000000E+00 -0.41211513998E+02  0.41211513998E+02  0.00000000000E+00 0. -1.
      99926    2    1    2    0    0  0.00000000000E+00  0.14210854715E-13  0.12151755643E+04  0.12975985923E+04  0.45509389653E+03 0.  0.
      99925    2    3    3    0    0 -0.10637208835E+02  0.68327033292E+02  0.10204088824E+04  0.10560136131E+04  0.26296146128E+03 0.  0.
         25    1    3    3    0    0  0.10637208835E+02 -0.68327033292E+02  0.19476668194E+03  0.24158497922E+03  0.12509000000E+03 0.  0.
         25    1    4    4    0    0 -0.13809200619E+02  0.70654341098E+02  0.61601987711E+03  0.63270113564E+03  0.12509000000E+03 0.  0.
         25    1    4    4    0    0  0.31719917836E+01 -0.23273078065E+01  0.40438900526E+03  0.42331247745E+03  0.12509000000E+03 0.  0.
<mgrwt>
<rscale>  2 0.45509390E+03</rscale>
<asrwt>0</asrwt>
<pdfrwt beam="1">  1       21 0.18476278E+00 0.45509390E+03</pdfrwt>
<pdfrwt beam="2">  1       21 0.60605176E-02 0.45509390E+03</pdfrwt>
<totfact> 0.29163218E+04</totfact>
</mgrwt>
</event>
<event>
 7    0  0.4752811E-002  0.4526885E+03  0.7546771E-02  0.1026923E+00
         21   -1    0    0  502  501  0.00000000000E+00  0.00000000000E+00  0.10393000001E+03  0.10393000001E+03  0.00000000000E+00 0.  1.
         21   -1    0    0  501  502 -0.00000000000E+00 -0.00000000000E+00 -0.49294452502E+03  0.49294452502E+03  0.00000000000E+00 0.  1.
      99926    2    1    2    0    0 -0.66613381478E-15 -0.14210854715E-13 -0.38901452501E+03  0.59687452504E+03  0.45268852202E+03 0.  0.
      99925    2    3    3    0    0  0.12693176615E+01  0.73394667545E+02 -0.35512803898E+03  0.44793094368E+03  0.26294071166E+03 0.  0.
         25    1    3    3    0    0 -0.12693176615E+01 -0.73394667545E+02 -0.33886486029E+02  0.14894358135E+03  0.12509000000E+03 0.  0.
         25    1    4    4    0    0  0.31157668442E+02  0.53135416718E+02 -0.21853126454E+03  0.25922498818E+03  0.12509000000E+03 0.  0.
         25    1    4    4    0    0 -0.29888350780E+02  0.20259250827E+02 -0.13659677444E+03  0.18870595550E+03  0.12509000000E+03 0.  0.
<mgrwt>
<rscale>  2 0.45268852E+03</rscale>
<asrwt>0</asrwt>
<pdfrwt beam="1">  1       21 0.15283824E-01 0.45268852E+03</pdfrwt>
<pdfrwt beam="2">  1       21 0.72491841E-01 0.45268852E+03</pdfrwt>
<totfact> 0.59958728E+04</totfact>
</mgrwt>
</event>
<event>
 7    0  0.4752811E-002  0.4347586E+03  0.7546771E-02  0.1032367E+00
         21   -1    0    0  502  501  0.00000000000E+00  0.00000000000E+00  0.50614374556E+03  0.50614374556E+03  0.00000000000E+00 0. -1.
         21   -1    0    0  501  502 -0.00000000000E+00 -0.00000000000E+00 -0.93360358698E+02  0.93360358698E+02  0.00000000000E+00 0. -1.
      99926    2    1    2    0    0 -0.88817841970E-15  0.00000000000E+00  0.41278338686E+03  0.59950410425E+03  0.43475860722E+03 0.  0.
      99925    2    3    3    0    0  0.63484305510E+01 -0.52231495023E+02  0.15945616583E+03  0.31211826491E+03  0.26310285218E+03 0.  0.
         25    1    4    4    0    0 -0.16892390105E+02 -0.25751801613E+02  0.38181456216E+02  0.13436457803E+03  0.12509000000E+03 0.  0.
         25    1    3    3    0    0 -0.63484305510E+01  0.52231495023E+02  0.25332722102E+03  0.28738583934E+03  0.12509000000E+03 0.  0.
         25    1    4    4    0    0  0.23240820656E+02 -0.26479693411E+02  0.12127470962E+03  0.17775368688E+03  0.12509000000E+03 0.  0.
<mgrwt>
<rscale>  2 0.43475861E+03</rscale>
<asrwt>0</asrwt>
<pdfrwt beam="1">  1       21 0.74432902E-01 0.43475861E+03</pdfrwt>
<pdfrwt beam="2">  1       21 0.13729465E-01 0.43475861E+03</pdfrwt>
<totfact> 0.69116242E+04</totfact>
</mgrwt>
</event>
<event>
 7    0  0.4752811E-002  0.4504026E+03  0.7546771E-02  0.1027602E+00
         21   -1    0    0  502  501  0.00000000000E+00  0.00000000000E+00  0.13249423621E+02  0.13249423621E+02  0.00000000000E+00 0.  1.
         21   -1    0    0  501  502 -0.00000000000E+00 -0.00000000000E+00 -0.38277609007E+04  0.38277609007E+04  0.00000000000E+00 0.  1.
      99926    2    1    2    0    0  0.00000000000E+00  0.00000000000E+00 -0.38145114771E+04  0.38410103243E+04  0.45040260076E+03 0.  0.
      99925    2    3    3    0    0  0.20549152961E+02 -0.10569946843E+03 -0.25435006174E+04  0.25593275403E+04  0.26299700102E+03 0.  0.
         25    1    4    4    0    0 -0.17106743657E+02 -0.55168058865E+02 -0.15304893453E+04  0.15366786586E+04  0.12509000000E+03 0.  0.
         25    1    3    3    0    0 -0.20549152961E+02  0.10569946843E+03 -0.12710108597E+04  0.12816827840E+04  0.12509000000E+03 0.  0.
         25    1    4    4    0    0  0.37655896618E+02 -0.50531409570E+02 -0.10130112720E+04  0.10226488817E+04  0.12509000000E+03 0.  0.
<mgrwt>
<rscale>  2 0.45040260E+03</rscale>
<asrwt>0</asrwt>
<pdfrwt beam="1">  1       21 0.19484440E-02 0.45040260E+03</pdfrwt>
<pdfrwt beam="2">  1       21 0.56290620E+00 0.45040260E+03</pdfrwt>
<totfact> 0.66092491E+02</totfact>
</mgrwt>
</event>
<event>
 7    0  0.4752811E-002  0.4522563E+03  0.7546771E-02  0.1027051E+00
         21   -1    0    0  502  501  0.00000000000E+00  0.00000000000E+00  0.12127852063E+04  0.12127852063E+04  0.00000000000E+00 0. -1.
         21   -1    0    0  501  502 -0.00000000000E+00 -0.00000000000E+00 -0.42162397557E+02  0.42162397557E+02  0.00000000000E+00 0. -1.
      99926    2    1    2    0    0  0.00000000000E+00  0.35527136788E-14  0.11706228087E+04  0.12549476038E+04  0.45225626372E+03 0.  0.
      99925    2    3    3    0    0 -0.94965287116E+02 -0.11746847269E+02  0.89251251496E+03  0.93533965998E+03  0.26291689941E+03 0.  0.
         25    1    4    4    0    0 -0.16068606857E+02  0.97506091764E+01  0.48718355185E+03  0.50333745718E+03  0.12509000000E+03 0.  0.
         25    1    3    3    0    0  0.94965287116E+02  0.11746847269E+02  0.27811029374E+03  0.31960794383E+03  0.12509000000E+03 0.  0.
         25    1    4    4    0    0 -0.78896680259E+02 -0.21497456445E+02  0.40532896311E+03  0.43200220280E+03  0.12509000000E+03 0.  0.
<mgrwt>
<rscale>  2 0.45225626E+03</rscale>
<asrwt>0</asrwt>
<pdfrwt beam="1">  1       21 0.17835074E+00 0.45225626E+03</pdfrwt>
<pdfrwt beam="2">  1       21 0.62003534E-02 0.45225626E+03</pdfrwt>
<totfact> 0.31110830E+04</totfact>
</mgrwt>
</event>
<event>
 7    0  0.4752811E-002  0.4595998E+03  0.7546771E-02  0.1024897E+00
         21   -1    0    0  502  501  0.00000000000E+00  0.00000000000E+00  0.14580958755E+04  0.14580958755E+04  0.00000000000E+00 0. -1.
         21   -1    0    0  501  502 -0.00000000000E+00 -0.00000000000E+00 -0.36217098699E+02  0.36217098699E+02  0.00000000000E+00 0. -1.
      99926    2    1    2    0    0  0.00000000000E+00  0.00000000000E+00  0.14218787768E+04  0.14943129742E+04  0.45959983566E+03 0.  0.
      99925    2    3    3    0    0 -0.19116888072E+02  0.10457809835E+03  0.10532792922E+04  0.10908094151E+04  0.26299406573E+03 0.  0.
         25    1    4    4    0    0  0.30165625351E+02  0.44367832435E+02  0.52845731022E+03  0.54570422972E+03  0.12509000000E+03 0.  0.
         25    1    4    4    0    0 -0.49282513423E+02  0.60210265913E+02  0.52482198198E+03  0.54510518537E+03  0.12509000000E+03 0.  0.
         25    1    3    3    0    0  0.19116888072E+02 -0.10457809835E+03  0.36859948460E+03  0.40350355911E+03  0.12509000000E+03 0.  0.
<mgrwt>
<rscale>  2 0.45959984E+03</rscale>
<asrwt>0</asrwt>
<pdfrwt beam="1">  1       21 0.21442583E+00 0.45959984E+03</pdfrwt>
<pdfrwt beam="2">  1       21 0.53260449E-02 0.45959984E+03</pdfrwt>
<totfact> 0.23083045E+04</totfact>
</mgrwt>
</event>
<event>
 7    0  0.4752811E-002  0.4597122E+03  0.7546771E-02  0.1024865E+00
         21   -1    0    0  502  501  0.00000000000E+00  0.00000000000E+00  0.10955354604E+03  0.10955354604E+03  0.00000000000E+00 0.  1.
         21   -1    0    0  501  502 -0.00000000000E+00 -0.00000000000E+00 -0.48226482361E+03  0.48226482361E+03  0.00000000000E+00 0.  1.
      99926    2    1    2    0    0 -0.17763568394E-14 -0.71054273576E-14 -0.37271127757E+03  0.59181836965E+03  0.45971217759E+03 0.  0.
      99925    2    3    3    0    0  0.65009650568E+01  0.62763412504E+02 -0.10629944028E+03  0.29081291514E+03  0.26323197396E+03 0.  0.
         25    1    4    4    0    0  0.19898087723E+02  0.35246502260E+02 -0.93638913782E+02  0.16141252768E+03  0.12509000000E+03 0.  0.
         25    1    4    4    0    0 -0.13397122667E+02  0.27516910244E+02 -0.12660526501E+02  0.12940038747E+03  0.12509000000E+03 0.  0.
         25    1    3    3    0    0 -0.65009650568E+01 -0.62763412504E+02 -0.26641183729E+03  0.30100545451E+03  0.12509000000E+03 0.  0.
<mgrwt>
<rscale>  2 0.45971218E+03</rscale>
<asrwt>0</asrwt>
<pdfrwt beam="1">  1       21 0.16110816E-01 0.45971218E+03</pdfrwt>
<pdfrwt beam="2">  1       21 0.70921297E-01 0.45971218E+03</pdfrwt>
<totfact> 0.57030928E+04</totfact>
</mgrwt>
</event>
<event>
 7    0  0.4752811E-002  0.4502426E+03  0.7546771E-02  0.1027650E+00
         21   -1    0    0  502  501  0.00000000000E+00  0.00000000000E+00  0.75357180806E+02  0.75357180806E+02  0.00000000000E+00 0.  1.
         21   -1    0    0  501  502 -0.00000000000E+00 -0.00000000000E+00 -0.67252512437E+03  0.67252512437E+03  0.00000000000E+00 0.  1.
      99926    2    1    2    0    0  0.00000000000E+00  0.00000000000E+00 -0.59716794357E+03  0.74788230518E+03  0.45024258970E+03 0.  0.
      99925    2    3    3    0    0  0.96881243269E+02 -0.47618292965E+02 -0.39828910470E+03  0.48932133022E+03  0.26295945726E+03 0.  0.
         25    1    3    3    0    0 -0.96881243269E+02  0.47618292965E+02 -0.19887883887E+03  0.25856097496E+03  0.12509000000E+03 0.  0.
         25    1    4    4    0    0  0.49587358582E+02 -0.64648682803E+02 -0.21744962303E+03  0.26376164424E+03  0.12509000000E+03 0.  0.
         25    1    4    4    0    0  0.47293884686E+02  0.17030389838E+02 -0.18083948167E+03  0.22555968598E+03  0.12509000000E+03 0.  0.
<mgrwt>
<rscale>  2 0.45024259E+03</rscale>
<asrwt>0</asrwt>
<pdfrwt beam="1">  1       21 0.11081938E-01 0.45024259E+03</pdfrwt>
<pdfrwt beam="2">  1       21 0.98900758E-01 0.45024259E+03</pdfrwt>
<totfact> 0.52307806E+04</totfact>
</mgrwt>
</event>
<event>
 7    0  0.4752811E-002  0.4526899E+03  0.7546771E-02  0.1026923E+00
         21   -1    0    0  502  501  0.00000000000E+00  0.00000000000E+00  0.54677358687E+02  0.54677358687E+02  0.00000000000E+00 0. -1.
         21   -1    0    0  501  502 -0.00000000000E+00 -0.00000000000E+00 -0.93698825461E+03  0.93698825461E+03  0.00000000000E+00 0. -1.
      99926    2    1    2    0    0  0.00000000000E+00 -0.17763568394E-14 -0.88231089592E+03  0.99166561330E+03  0.45268992868E+03 0.  0.
      99925    2    3    3    0    0 -0.97149576970E+02 -0.12510534797E+02 -0.44153365245E+03  0.52312891222E+03  0.26290176640E+03 0.  0.
         25    1    4    4    0    0 -0.79386600597E+02  0.87261372104E+00 -0.28773979665E+03  0.32364284711E+03  0.12509000000E+03 0.  0.
         25    1    4    4    0    0 -0.17762976372E+02 -0.13383148518E+02 -0.15379385579E+03  0.19948606511E+03  0.12509000000E+03 0.  0.
         25    1    3    3    0    0  0.97149576970E+02  0.12510534797E+02 -0.44077724347E+03  0.46853670107E+03  0.12509000000E+03 0.  0.
<mgrwt>
<rscale>  2 0.45268993E+03</rscale>
<asrwt>0</asrwt>
<pdfrwt beam="1">  1       21 0.80407890E-02 0.45268993E+03</pdfrwt>
<pdfrwt beam="2">  1       21 0.13779237E+00 0.45268993E+03</pdfrwt>
<totfact> 0.40213191E+04</totfact>
</mgrwt>
</event>
<event>
 7    0  0.4752811E-002  0.4664537E+03  0.7546771E-02  0.1022926E+00
         21   -1    0    0  502  501  0.00000000000E+00  0.00000000000E+00  0.41106878695E+02  0.41106878695E+02  0.00000000000E+00 0.  1.
         21   -1    0    0  501  502 -0.00000000000E+00 -0.00000000000E+00 -0.13232518665E+04  0.13232518665E+04  0.00000000000E+00 0.  1.
      99926    2    1    2    0    0  0.00000000000E+00 -0.88817841970E-15 -0.12821449878E+04  0.13643587452E+04  0.46645365883E+03 0.  0.
      99925    2    3    3    0    0  0.26775824373E+02 -0.22906793716E+01 -0.44598216284E+03  0.51846397046E+03  0.26302586775E+03 0.  0.
         25    1    4    4    0    0 -0.16821586515E+02  0.25309954453E+02 -0.20407750543E+03  0.24128550701E+03  0.12509000000E+03 0.  0.
         25    1    3    3    0    0 -0.26775824373E+02  0.22906793716E+01 -0.83616282499E+03  0.84589477476E+03  0.12509000000E+03 0.  0.
         25    1    4    4    0    0  0.43597410887E+02 -0.27600633825E+02 -0.24190465741E+03  0.27717846345E+03  0.12509000000E+03 0.  0.
<mgrwt>
<rscale>  2 0.46645366E+03</rscale>
<asrwt>0</asrwt>
<pdfrwt beam="1">  1       21 0.60451294E-02 0.46645366E+03</pdfrwt>
<pdfrwt beam="2">  1       21 0.19459586E+00 0.46645366E+03</pdfrwt>
<totfact> 0.24996946E+04</totfact>
</mgrwt>
</event>
<event>
 7    0  0.4752811E-002  0.4445571E+03  0.7546771E-02  0.1029358E+00
         21   -1    0    0  502  501  0.00000000000E+00  0.00000000000E+00  0.55798250399E+02  0.55798250399E+02  0.00000000000E+00 0.  1.
         21   -1    0    0  501  502 -0.00000000000E+00 -0.00000000000E+00 -0.88547146242E+03  0.88547146242E+03  0.00000000000E+00 0.  1.
      99926    2    1    2    0    0  0.00000000000E+00  0.00000000000E+00 -0.82967321202E+03  0.94126971282E+03  0.44455712065E+03 0.  0.
      99925    2    3    3    0    0 -0.81443441150E+02 -0.14027283328E+02 -0.39669665476E+03  0.48307105937E+03  0.26298215475E+03 0.  0.
         25    1    4    4    0    0 -0.26657509063E+02 -0.41780387412E+02 -0.22215080729E+03  0.25972045133E+03  0.12509000000E+03 0.  0.
         25    1    4    4    0    0 -0.54785932087E+02  0.27753104084E+02 -0.17454584747E+03  0.22335060804E+03  0.12509000000E+03 0.  0.
         25    1    3    3    0    0  0.81443441150E+02  0.14027283328E+02 -0.43297655726E+03  0.45819865345E+03  0.12509000000E+03 0.  0.
<mgrwt>
<rscale>  2 0.44455712E+03</rscale>
<asrwt>0</asrwt>
<pdfrwt beam="1">  1       21 0.82056253E-02 0.44455712E+03</pdfrwt>
<pdfrwt beam="2">  1       21 0.13021639E+00 0.44455712E+03</pdfrwt>
<totfact> 0.45065728E+04</totfact>
</mgrwt>
</event>
<event>
 7    0  0.4752811E-002  0.4585544E+03  0.7546771E-02  0.1025201E+00
         21   -1    0    0  502  501  0.00000000000E+00  0.00000000000E+00  0.12349593735E+03  0.12349593735E+03  0.00000000000E+00 0. -1.
         21   -1    0    0  501  502 -0.00000000000E+00 -0.00000000000E+00 -0.42566602549E+03  0.42566602549E+03  0.00000000000E+00 0. -1.
      99926    2    1    2    0    0  0.00000000000E+00  0.00000000000E+00 -0.30217008814E+03  0.54916196284E+03  0.45855435802E+03 0.  0.
      99925    2    3    3    0    0 -0.32540510563E+02  0.87123882593E+02 -0.10563401939E+03  0.29831661174E+03  0.26303003449E+03 0.  0.
         25    1    4    4    0    0  0.74850364180E+01  0.89339605679E+01 -0.38738601350E+02  0.13146873680E+03  0.12509000000E+03 0.  0.
         25    1    4    4    0    0 -0.40025546981E+02  0.78189922025E+02 -0.66895418045E+02  0.16684787494E+03  0.12509000000E+03 0.  0.
         25    1    3    3    0    0  0.32540510563E+02 -0.87123882593E+02 -0.19653606875E+03  0.25084535109E+03  0.12509000000E+03 0.  0.
<mgrwt>
<rscale>  2 0.45855436E+03</rscale>
<asrwt>0</asrwt>
<pdfrwt beam="1">  1       21 0.18161168E-01 0.45855436E+03</pdfrwt>
<pdfrwt beam="2">  1       21 0.62597944E-01 0.45855436E+03</pdfrwt>
<totfact> 0.60210694E+04</totfact>
</mgrwt>
</event>
<event>
 7    0  0.4752811E-002  0.4533743E+03  0.7546771E-02  0.1026721E+00
         21   -1    0    0  502  501  0.00000000000E+00  0.00000000000E+00  0.41445430522E+03  0.41445430522E+03  0.00000000000E+00 0. -1.
         21   -1    0    0  501  502 -0.00000000000E+00 -0.00000000000E+00 -0.12398729205E+03  0.12398729205E+03  0.00000000000E+00 0. -1.
      99926    2    1    2    0    0  0.88817841970E-15  0.00000000000E+00  0.29046701316E+03  0.53844159727E+03  0.45337431327E+03 0.  0.
      99925    2    3    3    0    0  0.44326177996E+01  0.70917329571E+02  0.80815442773E+02  0.28417755183E+03  0.26301488445E+03 0.  0.
         25    1    4    4    0    0  0.19570367451E+02  0.52544161277E+02  0.76025737000E+02  0.15675238101E+03  0.12509000000E+03 0.  0.
         25    1    4    4    0    0 -0.15137749652E+02  0.18373168295E+02  0.47897057736E+01  0.12742517082E+03  0.12509000000E+03 0.  0.
         25    1    3    3    0    0 -0.44326177996E+01 -0.70917329571E+02  0.20965157039E+03  0.25426404543E+03  0.12509000000E+03 0.  0.
<mgrwt>
<rscale>  2 0.45337431E+03</rscale>
<asrwt>0</asrwt>
<pdfrwt beam="1">  1       21 0.60949162E-01 0.45337431E+03</pdfrwt>
<pdfrwt beam="2">  1       21 0.18233425E-01 0.45337431E+03</pdfrwt>
<totfact> 0.63449231E+04</totfact>
</mgrwt>
</event>
<event>
 7    0  0.4752811E-002  0.5010921E+03  0.7546771E-02  0.1013494E+00
         21   -1    0    0  502  501  0.00000000000E+00  0.00000000000E+00  0.17654797818E+04  0.17654797818E+04  0.00000000000E+00 0.  1.
         21   -1    0    0  501  502 -0.00000000000E+00 -0.00000000000E+00 -0.35555950365E+02  0.35555950365E+02  0.00000000000E+00 0.  1.
      99926    2    1    2    0    0  0.71054273576E-14  0.00000000000E+00  0.17299238315E+04  0.18010357322E+04  0.50109205339E+03 0.  0.
      99925    2    3    3    0    0  0.51404072687E+02  0.41468316691E+02  0.55591089765E+03  0.61853166166E+03  0.26302564583E+03 0.  0.
         25    1    3    3    0    0 -0.51404072687E+02 -0.41468316691E+02  0.11740129338E+04  0.11825040705E+04  0.12509000000E+03 0.  0.
         25    1    4    4    0    0  0.39767343080E+02 -0.14260337519E+02  0.23764587051E+03  0.27186001301E+03  0.12509000000E+03 0.  0.
         25    1    4    4    0    0  0.11636729606E+02  0.55728654210E+02  0.31826502714E+03  0.34667164865E+03  0.12509000000E+03 0.  0.
<mgrwt>
<rscale>  2 0.50109205E+03</rscale>
<asrwt>0</asrwt>
<pdfrwt beam="1">  1       21 0.25962932E+00 0.50109205E+03</pdfrwt>
<pdfrwt beam="2">  1       21 0.52288174E-02 0.50109205E+03</pdfrwt>
<totfact> 0.12240379E+04</totfact>
</mgrwt>
</event>
<event>
 7    0  0.4752811E-002  0.4554413E+03  0.7546771E-02  0.1026112E+00
         21   -1    0    0  502  501  0.00000000000E+00  0.00000000000E+00  0.12602199233E+03  0.12602199233E+03  0.00000000000E+00 0. -1.
         21   -1    0    0  501  502 -0.00000000000E+00 -0.00000000000E+00 -0.41148925629E+03  0.41148925629E+03  0.00000000000E+00 0. -1.
      99926    2    1    2    0    0 -0.17763568394E-14  0.00000000000E+00 -0.28546726395E+03  0.53751124862E+03  0.45544130643E+03 0.  0.
      99925    2    3    3    0    0  0.14537981750E+02  0.55846252276E+02 -0.64131531668E+02  0.27680610618E+03  0.26301826982E+03 0.  0.
         25    1    4    4    0    0 -0.32492455035E+02  0.33435276481E+02 -0.25591207578E+02  0.13592680145E+03  0.12509000000E+03 0.  0.
         25    1    3    3    0    0 -0.14537981750E+02 -0.55846252276E+02 -0.22133573229E+03  0.26070514244E+03  0.12509000000E+03 0.  0.
         25    1    4    4    0    0  0.47030436785E+02  0.22410975795E+02 -0.38540324090E+02  0.14087930473E+03  0.12509000000E+03 0.  0.
<mgrwt>
<rscale>  2 0.45544131E+03</rscale>
<asrwt>0</asrwt>
<pdfrwt beam="1">  1       21 0.18532646E-01 0.45544131E+03</pdfrwt>
<pdfrwt beam="2">  1       21 0.60513127E-01 0.45544131E+03</pdfrwt>
<totfact> 0.62480886E+04</totfact>
</mgrwt>
</event>
<event>
 7    0  0.4752811E-002  0.4582282E+03  0.7546771E-02  0.1025296E+00
         21   -1    0    0  502  501  0.00000000000E+00  0.00000000000E+00  0.56862983267E+02  0.56862983267E+02  0.00000000000E+00 0.  1.
         21   -1    0    0  501  502 -0.00000000000E+00 -0.00000000000E+00 -0.92315361182E+03  0.92315361182E+03  0.00000000000E+00 0.  1.
      99926    2    1    2    0    0  0.71054273576E-14  0.00000000000E+00 -0.86629062855E+03  0.98001659509E+03  0.45822818936E+03 0.  0.
      99925    2    3    3    0    0 -0.59163381717E+02  0.16151968554E+02 -0.33287510014E+03  0.42870830939E+03  0.26310414368E+03 0.  0.
         25    1    4    4    0    0 -0.31181750748E+01 -0.55688028019E+01 -0.20361228738E+03  0.23905272693E+03  0.12509000000E+03 0.  0.
         25    1    4    4    0    0 -0.56045206642E+02  0.21720771356E+02 -0.12926281275E+03  0.18965558246E+03  0.12509000000E+03 0.  0.
         25    1    3    3    0    0  0.59163381717E+02 -0.16151968554E+02 -0.53341552842E+03  0.55130828570E+03  0.12509000000E+03 0.  0.
<mgrwt>
<rscale>  2 0.45822819E+03</rscale>
<asrwt>0</asrwt>
<pdfrwt beam="1">  1       21 0.83622043E-02 0.45822819E+03</pdfrwt>
<pdfrwt beam="2">  1       21 0.13575787E+00 0.45822819E+03</pdfrwt>
<totfact> 0.38956150E+04</totfact>
</mgrwt>
</event>
<event>
 7    0  0.4752811E-002  0.4524861E+03  0.7546771E-02  0.1026983E+00
         21   -1    0    0  502  501  0.00000000000E+00  0.00000000000E+00  0.35552970912E+03  0.35552970912E+03  0.00000000000E+00 0.  1.
         21   -1    0    0  501  502 -0.00000000000E+00 -0.00000000000E+00 -0.14397084953E+03  0.14397084953E+03  0.00000000000E+00 0.  1.
      99926    2    1    2    0    0  0.14210854715E-13  0.00000000000E+00  0.21155885958E+03  0.49950055865E+03  0.45248608490E+03 0.  0.
      99925    2    3    3    0    0 -0.80684050142E+02  0.75884232906E+02  0.13214358432E+03  0.31450697283E+03  0.26302923094E+03 0.  0.
         25    1    4    4    0    0 -0.68132033769E+02  0.18856908021E+02  0.92484112418E+02  0.17087532342E+03  0.12509000000E+03 0.  0.
         25    1    3    3    0    0  0.80684050142E+02 -0.75884232906E+02  0.79415275260E+02  0.18499358582E+03  0.12509000000E+03 0.  0.
         25    1    4    4    0    0 -0.12552016372E+02  0.57027324885E+02  0.39659471904E+02  0.14363164940E+03  0.12509000000E+03 0.  0.
<mgrwt>
<rscale>  2 0.45248608E+03</rscale>
<asrwt>0</asrwt>
<pdfrwt beam="1">  1       21 0.52283781E-01 0.45248608E+03</pdfrwt>
<pdfrwt beam="2">  1       21 0.21172184E-01 0.45248608E+03</pdfrwt>
<totfact> 0.66625397E+04</totfact>
</mgrwt>
</event>
<event>
 7    0  0.4752811E-002  0.4498143E+03  0.7546771E-02  0.1027777E+00
         21   -1    0    0  502  501  0.00000000000E+00  0.00000000000E+00  0.19470874765E+03  0.19470874765E+03  0.00000000000E+00 0.  1.
         21   -1    0    0  501  502 -0.00000000000E+00 -0.00000000000E+00 -0.25978921330E+03  0.25978921330E+03  0.00000000000E+00 0.  1.
      99926    2    1    2    0    0  0.00000000000E+00  0.00000000000E+00 -0.65080465655E+02  0.45449796095E+03  0.44981432781E+03 0.  0.
      99925    2    3    3    0    0 -0.91033337701E+02  0.57544048302E+02 -0.51581201649E+02  0.28888357662E+03  0.26304888217E+03 0.  0.
         25    1    4    4    0    0 -0.71947210678E+02  0.60463723659E+02 -0.41729513198E+02  0.16192937774E+03  0.12509000000E+03 0.  0.
         25    1    3    3    0    0  0.91033337701E+02 -0.57544048302E+02 -0.13499264005E+02  0.16561438433E+03  0.12509000000E+03 0.  0.
         25    1    4    4    0    0 -0.19086127023E+02 -0.29196753577E+01 -0.98516884515E+01  0.12695419888E+03  0.12509000000E+03 0.  0.
<mgrwt>
<rscale>  2 0.44981433E+03</rscale>
<asrwt>0</asrwt>
<pdfrwt beam="1">  1       21 0.28633640E-01 0.44981433E+03</pdfrwt>
<pdfrwt beam="2">  1       21 0.38204296E-01 0.44981433E+03</pdfrwt>
<totfact> 0.71494589E+04</totfact>
</mgrwt>
</event>
<event>
 7    0  0.4752811E-002  0.4661758E+03  0.7546771E-02  0.1023005E+00
         21   -1    0    0  502  501  0.00000000000E+00  0.00000000000E+00  0.74126180213E+02  0.74126180213E+02  0.00000000000E+00 0. -1.
         21   -1    0    0  501  502 -0.00000000000E+00 -0.00000000000E+00 -0.73293908793E+03  0.73293908793E+03  0.00000000000E+00 0. -1.
      99926    2    1    2    0    0  0.00000000000E+00  0.14210854715E-13 -0.65881290772E+03  0.80706526815E+03  0.46617582485E+03 0.  0.
      99925    2    3    3    0    0  0.67980760362E+02  0.77129629797E+02 -0.52847773819E+03  0.59920683534E+03  0.26303944226E+03 0.  0.
         25    1    4    4    0    0  0.27139578019E+02  0.32380107911E+02 -0.34221845045E+03  0.36680513084E+03  0.12509000000E+03 0.  0.
         25    1    3    3    0    0 -0.67980760362E+02 -0.77129629797E+02 -0.13033516953E+03  0.20785843280E+03  0.12509000000E+03 0.  0.
         25    1    4    4    0    0  0.40841182342E+02  0.44749521886E+02 -0.18625928774E+03  0.23240170450E+03  0.12509000000E+03 0.  0.
<mgrwt>
<rscale>  2 0.46617582E+03</rscale>
<asrwt>0</asrwt>
<pdfrwt beam="1">  1       21 0.10900910E-01 0.46617582E+03</pdfrwt>
<pdfrwt beam="2">  1       21 0.10778515E+00 0.46617582E+03</pdfrwt>
<totfact> 0.43484097E+04</totfact>
</mgrwt>
</event>
<event>
 7    0  0.4752811E-002  0.4554098E+03  0.7546771E-02  0.1026121E+00
         21   -1    0    0  502  501  0.00000000000E+00  0.00000000000E+00  0.30400653404E+03  0.30400653404E+03  0.00000000000E+00 0.  1.
         21   -1    0    0  501  502 -0.00000000000E+00 -0.00000000000E+00 -0.17055395161E+03  0.17055395161E+03  0.00000000000E+00 0.  1.
      99926    2    1    2    0    0  0.00000000000E+00  0.00000000000E+00  0.13345258243E+03  0.47456048566E+03  0.45540977459E+03 0.  0.
      99925    2    3    3    0    0  0.84434578465E+02  0.65637089461E+02  0.12386278688E+03  0.30970631425E+03  0.26294217151E+03 0.  0.
         25    1    3    3    0    0 -0.84434578465E+02 -0.65637089461E+02  0.95897955524E+01  0.16485417141E+03  0.12509000000E+03 0.  0.
         25    1    4    4    0    0  0.46375202966E+02  0.32880472644E+02  0.10641061220E+03  0.17378869762E+03  0.12509000000E+03 0.  0.
         25    1    4    4    0    0  0.38059375500E+02  0.32756616818E+02  0.17452174680E+02  0.13591761663E+03  0.12509000000E+03 0.  0.
<mgrwt>
<rscale>  2 0.45540977E+03</rscale>
<asrwt>0</asrwt>
<pdfrwt beam="1">  1       21 0.44706843E-01 0.45540977E+03</pdfrwt>
<pdfrwt beam="2">  1       21 0.25081464E-01 0.45540977E+03</pdfrwt>
<totfact> 0.66880507E+04</totfact>
</mgrwt>
</event>
<event>
 7    0  0.4752811E-002  0.4474420E+03  0.7546771E-02  0.1028488E+00
         21   -1    0    0  502  501  0.00000000000E+00  0.00000000000E+00  0.50760295455E+03  0.50760295455E+03  0.00000000000E+00 0.  1.
         21   -1    0    0  501  502 -0.00000000000E+00 -0.00000000000E+00 -0.98602838925E+02  0.98602838925E+02  0.00000000000E+00 0.  1.
      99926    2    1    2    0    0  0.00000000000E+00  0.00000000000E+00  0.40900011563E+03  0.60620579348E+03  0.44744202917E+03 0.  0.
      99925    2    3    3    0    0 -0.67640954585E+02  0.40572214872E+02  0.35488020298E+03  0.44873237857E+03  0.26305776126E+03 0.  0.
         25    1    4    4    0    0 -0.21669302062E+02  0.84103891221E+01  0.11047056623E+03  0.16849791512E+03  0.12509000000E+03 0.  0.
         25    1    3    3    0    0  0.67640954585E+02 -0.40572214872E+02  0.54119912651E+02  0.15747341491E+03  0.12509000000E+03 0.  0.
         25    1    4    4    0    0 -0.45971652523E+02  0.32161825750E+02  0.24440963675E+03  0.28023446345E+03  0.12509000000E+03 0.  0.
<mgrwt>
<rscale>  2 0.44744203E+03</rscale>
<asrwt>0</asrwt>
<pdfrwt beam="1">  1       21 0.74647492E-01 0.44744203E+03</pdfrwt>
<pdfrwt beam="2">  1       21 0.14500418E-01 0.44744203E+03</pdfrwt>
<totfact> 0.61912357E+04</totfact>
</mgrwt>
</event>
<event>
 7    0  0.4752811E-002  0.4553046E+03  0.7546771E-02  0.1026152E+00
         21   -1    0    0  502  501  0.00000000000E+00  0.00000000000E+00  0.19714221574E+03  0.19714221574E+03  0.00000000000E+00 0. -1.
         21   -1    0    0  501  502 -0.00000000000E+00 -0.00000000000E+00 -0.26288417486E+03  0.26288417486E+03  0.00000000000E+00 0. -1.
      99926    2    1    2    0    0  0.00000000000E+00  0.00000000000E+00 -0.65741959116E+02  0.46002639060E+03  0.45530459569E+03 0.  0.
      99925    2    3    3    0    0  0.90799199964E+02  0.37408660825E+02 -0.98898046747E+02  0.29757413033E+03  0.26291754748E+03 0.  0.
         25    1    3    3    0    0 -0.90799199964E+02 -0.37408660825E+02  0.33156087632E+02  0.16245226027E+03  0.12509000000E+03 0.  0.
         25    1    4    4    0    0  0.54488385308E+02 -0.19795239994E+02 -0.57790247647E+02  0.14949266364E+03  0.12509000000E+03 0.  0.
         25    1    4    4    0    0  0.36310814656E+02  0.57203900819E+02 -0.41107799100E+02  0.14808146669E+03  0.12509000000E+03 0.  0.
<mgrwt>
<rscale>  2 0.45530460E+03</rscale>
<asrwt>0</asrwt>
<pdfrwt beam="1">  1       21 0.28991503E-01 0.45530460E+03</pdfrwt>
<pdfrwt beam="2">  1       21 0.38659437E-01 0.45530460E+03</pdfrwt>
<totfact> 0.68013293E+04</totfact>
</mgrwt>
</event>
<event>
 7    0  0.4752811E-002  0.4557534E+03  0.7546771E-02  0.1026020E+00
         21   -1    0    0  502  501  0.00000000000E+00  0.00000000000E+00  0.50127450806E+03  0.50127450806E+03  0.00000000000E+00 0. -1.
         21   -1    0    0  501  502 -0.00000000000E+00 -0.00000000000E+00 -0.10359153162E+03  0.10359153162E+03  0.00000000000E+00 0. -1.
      99926    2    1    2    0    0  0.00000000000E+00  0.00000000000E+00  0.39768297644E+03  0.60486603968E+03  0.45575341602E+03 0.  0.
      99925    2    3    3    0    0 -0.67020410619E+02 -0.82388139054E+02  0.30457268942E+03  0.41619549470E+03  0.26301069516E+03 0.  0.
         25    1    4    4    0    0 -0.53008927244E+02 -0.51358667832E+02  0.10915737216E+03  0.18168791684E+03  0.12509000000E+03 0.  0.
         25    1    4    4    0    0 -0.14011483375E+02 -0.31029471223E+02  0.19541531727E+03  0.23450757786E+03  0.12509000000E+03 0.  0.
         25    1    3    3    0    0  0.67020410619E+02  0.82388139054E+02  0.93110287019E+02  0.18867054499E+03  0.12509000000E+03 0.  0.
<mgrwt>
<rscale>  2 0.45575342E+03</rscale>
<asrwt>0</asrwt>
<pdfrwt beam="1">  1       21 0.73716839E-01 0.45575342E+03</pdfrwt>
<pdfrwt beam="2">  1       21 0.15234049E-01 0.45575342E+03</pdfrwt>
<totfact> 0.58033553E+04</totfact>
</mgrwt>
</event>
<event>
 7    0  0.4752811E-002  0.4463904E+03  0.7546771E-02  0.1028804E+00
         21   -1    0    0  502  501  0.00000000000E+00  0.00000000000E+00  0.10652968528E+03  0.10652968528E+03  0.00000000000E+00 0. -1.
         21   -1    0    0  501  502 -0.00000000000E+00 -0.00000000000E+00 -0.46762638193E+03  0.46762638193E+03  0.00000000000E+00 0. -1.
      99926    2    1    2    0    0  0.88817841970E-15 -0.14210854715E-13 -0.36109669665E+03  0.57415606721E+03  0.44639037309E+03 0.  0.
      99925    2    3    3    0    0 -0.28317618688E+01  0.81729089988E+02 -0.14454610229E+03  0.31104139441E+03  0.26299336555E+03 0.  0.
         25    1    4    4    0    0 -0.11632676384E+02  0.76386132649E+02 -0.55527643170E+02  0.15716547864E+03  0.12509000000E+03 0.  0.
         25    1    3    3    0    0  0.28317618688E+01 -0.81729089988E+02 -0.21655059436E+03  0.26311467280E+03  0.12509000000E+03 0.  0.
         25    1    4    4    0    0  0.88009145147E+01  0.53429573388E+01 -0.89018459123E+02  0.15387591577E+03  0.12509000000E+03 0.  0.
<mgrwt>
<rscale>  2 0.44639037E+03</rscale>
<asrwt>0</asrwt>
<pdfrwt beam="1">  1       21 0.15666130E-01 0.44639037E+03</pdfrwt>
<pdfrwt beam="2">  1       21 0.68768586E-01 0.44639037E+03</pdfrwt>
<totfact> 0.64583371E+04</totfact>
</mgrwt>
</event>
<event>
 7    0  0.4752811E-002  0.4410294E+03  0.7546771E-02  0.1030431E+00
         21   -1    0    0  502  501  0.00000000000E+00  0.00000000000E+00  0.31874849729E+02  0.31874849729E+02  0.00000000000E+00 0. -1.
         21   -1    0    0  501  502 -0.00000000000E+00 -0.00000000000E+00 -0.15255515502E+04  0.15255515502E+04  0.00000000000E+00 0. -1.
      99926    2    1    2    0    0  0.00000000000E+00  0.00000000000E+00 -0.14936767005E+04  0.15574264000E+04  0.44102937053E+03 0.  0.
      99925    2    3    3    0    0 -0.17849264228E+02  0.84677103818E+02 -0.78015981443E+03  0.82787676974E+03  0.26313836984E+03 0.  0.
         25    1    3    3    0    0  0.17849264228E+02 -0.84677103818E+02 -0.71351688608E+03  0.72954963023E+03  0.12509000000E+03 0.  0.
         25    1    4    4    0    0 -0.13350180857E+02  0.60093530400E+02 -0.29592126723E+03  0.32711827253E+03  0.12509000000E+03 0.  0.
         25    1    4    4    0    0 -0.44990833709E+01  0.24583573419E+02 -0.48423854720E+03  0.50075849721E+03  0.12509000000E+03 0.  0.
<mgrwt>
<rscale>  2 0.44102937E+03</rscale>
<asrwt>0</asrwt>
<pdfrwt beam="1">  1       21 0.46874779E-02 0.44102937E+03</pdfrwt>
<pdfrwt beam="2">  1       21 0.22434582E+00 0.44102937E+03</pdfrwt>
<totfact> 0.25011943E+04</totfact>
</mgrwt>
</event>
<event>
 7    0  0.4752811E-002  0.4632795E+03  0.7546771E-02  0.1023834E+00
         21   -1    0    0  502  501  0.00000000000E+00  0.00000000000E+00  0.50141632352E+03  0.50141632352E+03  0.00000000000E+00 0. -1.
         21   -1    0    0  501  502 -0.00000000000E+00 -0.00000000000E+00 -0.10701083778E+03  0.10701083778E+03  0.00000000000E+00 0. -1.
      99926    2    1    2    0    0  0.00000000000E+00  0.00000000000E+00  0.39440548574E+03  0.60842716130E+03  0.46327953055E+03 0.  0.
      99925    2    3    3    0    0  0.71282420576E+02  0.92895287553E+02  0.28518009983E+03  0.40523166194E+03  0.26301006172E+03 0.  0.
         25    1    4    4    0    0  0.44731556225E+02  0.81904455154E+01  0.15258188882E+03  0.20247650831E+03  0.12509000000E+03 0.  0.
         25    1    3    3    0    0 -0.71282420576E+02 -0.92895287553E+02  0.10922538591E+03  0.20319549936E+03  0.12509000000E+03 0.  0.
         25    1    4    4    0    0  0.26550864351E+02  0.84704842037E+02  0.13259821101E+03  0.20275515364E+03  0.12509000000E+03 0.  0.
<mgrwt>
<rscale>  2 0.46327953E+03</rscale>
<asrwt>0</asrwt>
<pdfrwt beam="1">  1       21 0.73737694E-01 0.46327953E+03</pdfrwt>
<pdfrwt beam="2">  1       21 0.15736888E-01 0.46327953E+03</pdfrwt>
<totfact> 0.54508902E+04</totfact>
</mgrwt>
</event>
<event>
 7    0  0.4752811E-002  0.4472588E+03  0.7546771E-02  0.1028543E+00
         21   -1    0    0  502  501  0.00000000000E+00  0.00000000000E+00  0.95934873533E+03  0.95934873533E+03  0.00000000000E+00 0. -1.
         21   -1    0    0  501  502 -0.00000000000E+00 -0.00000000000E+00 -0.52129228793E+02  0.52129228793E+02  0.00000000000E+00 0. -1.
      99926    2    1    2    0    0  0.00000000000E+00  0.00000000000E+00  0.90721950654E+03  0.10114779641E+04  0.44725880524E+03 0.  0.
      99925    2    3    3    0    0  0.33026402624E+02  0.77684147063E+02  0.71915692144E+03  0.77035431537E+03  0.26293254568E+03 0.  0.
         25    1    4    4    0    0  0.15290901230E+01  0.63473143837E+00  0.35601936952E+03  0.37735929904E+03  0.12509000000E+03 0.  0.
         25    1    3    3    0    0 -0.33026402624E+02 -0.77684147063E+02  0.18806258510E+03  0.24112364876E+03  0.12509000000E+03 0.  0.
         25    1    4    4    0    0  0.31497312501E+02  0.77049415624E+02  0.36313755193E+03  0.39299501633E+03  0.12509000000E+03 0.  0.
<mgrwt>
<rscale>  2 0.44725881E+03</rscale>
<asrwt>0</asrwt>
<pdfrwt beam="1">  1       21 0.14108069E+00 0.44725881E+03</pdfrwt>
<pdfrwt beam="2">  1       21 0.76660636E-02 0.44725881E+03</pdfrwt>
<totfact> 0.41155311E+04</totfact>
</mgrwt>
</event>
<event>
 7    0  0.4752811E-002  0.4972097E+03  0.7546771E-02  0.1014510E+00
         21   -1    0    0  502  501  0.00000000000E+00  0.00000000000E+00  0.11234268355E+03  0.11234268355E+03  0.00000000000E+00 0. -1.
         21   -1    0    0  501  502 -0.00000000000E+00 -0.00000000000E+00 -0.55014144407E+03  0.55014144407E+03  0.00000000000E+00 0. -1.
      99926    2    1    2    0    0 -0.14210854715E-13  0.00000000000E+00 -0.43779876051E+03  0.66248412762E+03  0.49720967874E+03 0.  0.
      99925    2    3    3    0    0  0.12228735123E+03  0.80198806381E+02 -0.22579685582E+03  0.37616549303E+03  0.26292625056E+03 0.  0.
         25    1    4    4    0    0  0.30559259839E+02  0.16945657845E+02 -0.12716201598E+03  0.18176553603E+03  0.12509000000E+03 0.  0.
         25    1    3    3    0    0 -0.12228735123E+03 -0.80198806381E+02 -0.21200190469E+03  0.28631863458E+03  0.12509000000E+03 0.  0.
         25    1    4    4    0    0  0.91728091392E+02  0.63253148536E+02 -0.98634839839E+02  0.19439995700E+03  0.12509000000E+03 0.  0.
<mgrwt>
<rscale>  2 0.49720968E+03</rscale>
<asrwt>0</asrwt>
<pdfrwt beam="1">  1       21 0.16520983E-01 0.49720968E+03</pdfrwt>
<pdfrwt beam="2">  1       21 0.80903151E-01 0.49720968E+03</pdfrwt>
<totfact> 0.39934888E+04</totfact>
</mgrwt>
</event>
<event>
 7    0  0.4752811E-002  0.4460382E+03  0.7546771E-02  0.1028910E+00
         21   -1    0    0  502  501  0.00000000000E+00  0.00000000000E+00  0.62065936484E+02  0.62065936484E+02  0.00000000000E+00 0. -1.
         21   -1    0    0  501  502 -0.00000000000E+00 -0.00000000000E+00 -0.80136597529E+03  0.80136597529E+03  0.00000000000E+00 0. -1.
      99926    2    1    2    0    0  0.00000000000E+00 -0.17763568394E-14 -0.73930003881E+03  0.86343191178E+03  0.44603824824E+03 0.  0.
      99925    2    3    3    0    0  0.10416959942E+03  0.95041532302E+01 -0.46428614558E+03  0.54371049563E+03  0.26290272671E+03 0.  0.
         25    1    3    3    0    0 -0.10416959942E+03 -0.95041532302E+01 -0.27501389323E+03  0.31972141615E+03  0.12509000000E+03 0.  0.
         25    1    4    4    0    0  0.19633759897E+02  0.16541072356E+02 -0.16717768981E+03  0.21036867560E+03  0.12509000000E+03 0.  0.
         25    1    4    4    0    0  0.84535839523E+02 -0.70369191258E+01 -0.29710845576E+03  0.33334182003E+03  0.12509000000E+03 0.  0.
<mgrwt>
<rscale>  2 0.44603825E+03</rscale>
<asrwt>0</asrwt>
<pdfrwt beam="1">  1       21 0.91273439E-02 0.44603825E+03</pdfrwt>
<pdfrwt beam="2">  1       21 0.11784793E+00 0.44603825E+03</pdfrwt>
<totfact> 0.48139705E+04</totfact>
</mgrwt>
</event>
<event>
 7    0  0.4752811E-002  0.4579166E+03  0.7546771E-02  0.1025387E+00
         21   -1    0    0  502  501  0.00000000000E+00  0.00000000000E+00  0.17605640005E+03  0.17605640005E+03  0.00000000000E+00 0.  1.
         21   -1    0    0  501  502 -0.00000000000E+00 -0.00000000000E+00 -0.29775636184E+03  0.29775636184E+03  0.00000000000E+00 0.  1.
      99926    2    1    2    0    0  0.00000000000E+00  0.00000000000E+00 -0.12169996179E+03  0.47381276189E+03  0.45791664376E+03 0.  0.
      99925    2    3    3    0    0 -0.73341456701E+02 -0.45155428142E+02  0.39371865273E+01  0.27670826398E+03  0.26293341353E+03 0.  0.
         25    1    3    3    0    0  0.73341456701E+02  0.45155428142E+02 -0.12563714832E+03  0.19710449792E+03  0.12509000000E+03 0.  0.
         25    1    4    4    0    0 -0.55808108050E+02  0.10994570396E+02 -0.99888941364E+01  0.13777776166E+03  0.12509000000E+03 0.  0.
         25    1    4    4    0    0 -0.17533348651E+02 -0.56149998538E+02  0.13926080664E+02  0.13893050231E+03  0.12509000000E+03 0.  0.
<mgrwt>
<rscale>  2 0.45791664E+03</rscale>
<asrwt>0</asrwt>
<pdfrwt beam="1">  1       21 0.25890647E-01 0.45791664E+03</pdfrwt>
<pdfrwt beam="2">  1       21 0.43787700E-01 0.45791664E+03</pdfrwt>
<totfact> 0.65621568E+04</totfact>
</mgrwt>
</event>
<event>
 7    0  0.4752811E-002  0.4532567E+03  0.7546771E-02  0.1026755E+00
         21   -1    0    0  502  501  0.00000000000E+00  0.00000000000E+00  0.15824552543E+04  0.15824552543E+04  0.00000000000E+00 0.  1.
         21   -1    0    0  501  502 -0.00000000000E+00 -0.00000000000E+00 -0.32456159029E+02  0.32456159029E+02  0.00000000000E+00 0.  1.
      99926    2    1    2    0    0  0.00000000000E+00  0.00000000000E+00  0.15499990953E+04  0.16149114133E+04  0.45325674574E+03 0.  0.
      99925    2    3    3    0    0 -0.71136470254E+02  0.22204102596E+02  0.12707199657E+04  0.12999546545E+04  0.26381708277E+03 0.  0.
         25    1    4    4    0    0 -0.18520052514E+02 -0.23758793645E+02  0.51977590290E+03  0.53546425647E+03  0.12509000000E+03 0.  0.
         25    1    3    3    0    0  0.71136470254E+02 -0.22204102596E+02  0.27927912962E+03  0.31495675880E+03  0.12509000000E+03 0.  0.
         25    1    4    4    0    0 -0.52616417740E+02  0.45962896241E+02  0.75094406276E+03  0.76449039807E+03  0.12509000000E+03 0.  0.
<mgrwt>
<rscale>  2 0.45325675E+03</rscale>
<asrwt>0</asrwt>
<pdfrwt beam="1">  1       21 0.23271396E+00 0.45325675E+03</pdfrwt>
<pdfrwt beam="2">  1       21 0.47729656E-02 0.45325675E+03</pdfrwt>
<totfact> 0.21382894E+04</totfact>
</mgrwt>
</event>
<event>
 7    0  0.4752811E-002  0.4596062E+03  0.7546771E-02  0.1024895E+00
         21   -1    0    0  502  501  0.00000000000E+00  0.00000000000E+00  0.63437075599E+02  0.63437075599E+02  0.00000000000E+00 0.  1.
         21   -1    0    0  501  502 -0.00000000000E+00 -0.00000000000E+00 -0.83247009519E+03  0.83247009519E+03  0.00000000000E+00 0.  1.
      99926    2    1    2    0    0 -0.71054273576E-14  0.00000000000E+00 -0.76903301959E+03  0.89590717079E+03  0.45960621563E+03 0.  0.
      99925    2    3    3    0    0 -0.62961293317E+02 -0.99148790277E+02 -0.47728297186E+03  0.55743973436E+03  0.26295515806E+03 0.  0.
         25    1    3    3    0    0  0.62961293317E+02  0.99148790277E+02 -0.29175004773E+03  0.33846743643E+03  0.12509000000E+03 0.  0.
         25    1    4    4    0    0 -0.11592841089E+02 -0.10062080840E+02 -0.20486138772E+03  0.24052304612E+03  0.12509000000E+03 0.  0.
         25    1    4    4    0    0 -0.51368452229E+02 -0.89086709437E+02 -0.27242158414E+03  0.31691668824E+03  0.12509000000E+03 0.  0.
<mgrwt>
<rscale>  2 0.45960622E+03</rscale>
<asrwt>0</asrwt>
<pdfrwt beam="1">  1       21 0.93289824E-02 0.45960622E+03</pdfrwt>
<pdfrwt beam="2">  1       21 0.12242206E+00 0.45960622E+03</pdfrwt>
<totfact> 0.41880089E+04</totfact>
</mgrwt>
</event>
<event>
 7    0  0.4752811E-002  0.4562774E+03  0.7546771E-02  0.1025866E+00
         21   -1    0    0  502  501  0.00000000000E+00  0.00000000000E+00  0.11020188634E+04  0.11020188634E+04  0.00000000000E+00 0. -1.
         21   -1    0    0  501  502 -0.00000000000E+00 -0.00000000000E+00 -0.47229022489E+02  0.47229022489E+02  0.00000000000E+00 0. -1.
      99926    2    1    2    0    0 -0.14210854715E-13  0.00000000000E+00  0.10547898409E+04  0.11492478859E+04  0.45627743176E+03 0.  0.
      99925    2    3    3    0    0 -0.71003933630E+02  0.73345513593E+02  0.53351848822E+03  0.60354425369E+03  0.26306380583E+03 0.  0.
         25    1    3    3    0    0  0.71003933630E+02 -0.73345513593E+02  0.52127135273E+03  0.54570363223E+03  0.12509000000E+03 0.  0.
         25    1    4    4    0    0 -0.83521720284E+01  0.66543981366E+02  0.27913160449E+03  0.31314504780E+03  0.12509000000E+03 0.  0.
         25    1    4    4    0    0 -0.62651761602E+02  0.68015322275E+01  0.25438688373E+03  0.29039920589E+03  0.12509000000E+03 0.  0.
<mgrwt>
<rscale>  2 0.45627743E+03</rscale>
<asrwt>0</asrwt>
<pdfrwt beam="1">  1       21 0.16206158E+00 0.45627743E+03</pdfrwt>
<pdfrwt beam="2">  1       21 0.69454452E-02 0.45627743E+03</pdfrwt>
<totfact> 0.33472990E+04</totfact>
</mgrwt>
</event>
<event>
 7    0  0.4752811E-002  0.4590412E+03  0.7546771E-02  0.1025060E+00
         21   -1    0    0  502  501  0.00000000000E+00  0.00000000000E+00  0.40451031429E+03  0.40451031429E+03  0.00000000000E+00 0. -1.
         21   -1    0    0  501  502 -0.00000000000E+00 -0.00000000000E+00 -0.13023078313E+03  0.13023078313E+03  0.00000000000E+00 0. -1.
      99926    2    1    2    0    0  0.71054273576E-14  0.00000000000E+00  0.27427953115E+03  0.53474109742E+03  0.45904115290E+03 0.  0.
      99925    2    3    3    0    0 -0.49237422286E+02  0.98274627026E+02  0.21839241010E+03  0.35909057943E+03  0.26299918892E+03 0.  0.
         25    1    3    3    0    0  0.49237422286E+02 -0.98274627026E+02  0.55887121052E+02  0.17565051799E+03  0.12509000000E+03 0.  0.
         25    1    4    4    0    0 -0.56641700998E+02  0.33897713583E+02  0.84626349857E+02  0.16482252415E+03  0.12509000000E+03 0.  0.
         25    1    4    4    0    0  0.74042787118E+01  0.64376913443E+02  0.13376606025E+03  0.19426805528E+03  0.12509000000E+03 0.  0.
<mgrwt>
<rscale>  2 0.45904115E+03</rscale>
<asrwt>0</asrwt>
<pdfrwt beam="1">  1       21 0.59486810E-01 0.45904115E+03</pdfrwt>
<pdfrwt beam="2">  1       21 0.19151586E-01 0.45904115E+03</pdfrwt>
<totfact> 0.60912284E+04</totfact>
</mgrwt>
</event>
<event>
 7    0  0.4752811E-002  0.4556672E+03  0.7546771E-02  0.1026045E+00
         21   -1    0    0  502  501  0.00000000000E+00  0.00000000000E+00  0.51939452458E+03  0.51939452458E+03  0.00000000000E+00 0. -1.
         21   -1    0    0  501  502 -0.00000000000E+00 -0.00000000000E+00 -0.99939730594E+02  0.99939730594E+02  0.00000000000E+00 0. -1.
      99926    2    1    2    0    0  0.71054273576E-14  0.14210854715E-13  0.41945479398E+03  0.61933425517E+03  0.45566719811E+03 0.  0.
      99925    2    3    3    0    0  0.47131399580E+02  0.78186061859E+02  0.17141798497E+03  0.32692325021E+03  0.26298337754E+03 0.  0.
         25    1    4    4    0    0  0.61113860241E+02  0.58123733038E+02  0.89706242759E+02  0.17552205088E+03  0.12509000000E+03 0.  0.
         25    1    3    3    0    0 -0.47131399580E+02 -0.78186061859E+02  0.24803680901E+03  0.29241100496E+03  0.12509000000E+03 0.  0.
         25    1    4    4    0    0 -0.13982460661E+02  0.20062328820E+02  0.81711742212E+02  0.15140119933E+03  0.12509000000E+03 0.  0.
<mgrwt>
<rscale>  2 0.45566720E+03</rscale>
<asrwt>0</asrwt>
<pdfrwt beam="1">  1       21 0.76381546E-01 0.45566720E+03</pdfrwt>
<pdfrwt beam="2">  1       21 0.14697019E-01 0.45566720E+03</pdfrwt>
<totfact> 0.57201729E+04</totfact>
</mgrwt>
</event>
<event>
 7    0  0.4752811E-002  0.4562019E+03  0.7546771E-02  0.1025889E+00
         21   -1    0    0  502  501  0.00000000000E+00  0.00000000000E+00  0.35748949000E+02  0.35748949000E+02  0.00000000000E+00 0.  1.
         21   -1    0    0  501  502 -0.00000000000E+00 -0.00000000000E+00 -0.14554283670E+04  0.14554283670E+04  0.00000000000E+00 0.  1.
      99926    2    1    2    0    0  0.00000000000E+00  0.14210854715E-13 -0.14196794180E+04  0.14911773160E+04  0.45620186087E+03 0.  0.
      99925    2    3    3    0    0  0.56021792090E+02 -0.84484025186E+02 -0.72008001039E+03  0.77328955951E+03  0.26303142355E+03 0.  0.
         25    1    4    4    0    0  0.68771583784E+01 -0.76958111401E+02 -0.35953811464E+03  0.38843919755E+03  0.12509000000E+03 0.  0.
         25    1    3    3    0    0 -0.56021792090E+02  0.84484025186E+02 -0.69959940764E+03  0.71788775652E+03  0.12509000000E+03 0.  0.
         25    1    4    4    0    0  0.49144633712E+02 -0.75259137848E+01 -0.36054189575E+03  0.38485036195E+03  0.12509000000E+03 0.  0.
<mgrwt>
<rscale>  2 0.45620186E+03</rscale>
<asrwt>0</asrwt>
<pdfrwt beam="1">  1       21 0.52571983E-02 0.45620186E+03</pdfrwt>
<pdfrwt beam="2">  1       21 0.21403359E+00 0.45620186E+03</pdfrwt>
<totfact> 0.23773471E+04</totfact>
</mgrwt>
</event>
<event>
 7    0  0.4752811E-002  0.4533864E+03  0.7546771E-02  0.1026717E+00
         21   -1    0    0  502  501  0.00000000000E+00  0.00000000000E+00  0.15148348318E+04  0.15148348318E+04  0.00000000000E+00 0.  1.
         21   -1    0    0  501  502 -0.00000000000E+00 -0.00000000000E+00 -0.33924362447E+02  0.33924362447E+02  0.00000000000E+00 0.  1.
      99926    2    1    2    0    0  0.00000000000E+00 -0.44408920985E-15  0.14809104694E+04  0.15487591943E+04  0.45338639540E+03 0.  0.
      99925    2    3    3    0    0  0.94335236665E+02 -0.33176738993E+01  0.72795255679E+03  0.77966669654E+03  0.26278334978E+03 0.  0.
         25    1    4    4    0    0  0.26045046857E+02  0.15190096039E+02  0.43046096985E+03  0.44928080100E+03  0.12509000000E+03 0.  0.
         25    1    3    3    0    0 -0.94335236665E+02  0.33176738993E+01  0.75295791261E+03  0.76909249775E+03  0.12509000000E+03 0.  0.
         25    1    4    4    0    0  0.68290189808E+02 -0.18507769938E+02  0.29749158694E+03  0.33038589554E+03  0.12509000000E+03 0.  0.
<mgrwt>
<rscale>  2 0.45338640E+03</rscale>
<asrwt>0</asrwt>
<pdfrwt beam="1">  1       21 0.22276978E+00 0.45338640E+03</pdfrwt>
<pdfrwt beam="2">  1       21 0.49888778E-02 0.45338640E+03</pdfrwt>
<totfact> 0.22894618E+04</totfact>
</mgrwt>
</event>
<event>
 7    0  0.4752811E-002  0.4517755E+03  0.7546771E-02  0.1027194E+00
         21   -1    0    0  502  501  0.00000000000E+00  0.00000000000E+00  0.13721903086E+03  0.13721903086E+03  0.00000000000E+00 0.  1.
         21   -1    0    0  501  502 -0.00000000000E+00 -0.00000000000E+00 -0.37185279081E+03  0.37185279081E+03  0.00000000000E+00 0.  1.
      99926    2    1    2    0    0  0.00000000000E+00  0.00000000000E+00 -0.23463375994E+03  0.50907182167E+03  0.45177551761E+03 0.  0.
      99925    2    3    3    0    0  0.39024865744E+02  0.28896619942E+02 -0.36894380136E+02  0.27010252402E+03  0.26312777012E+03 0.  0.
         25    1    4    4    0    0  0.82575470115E+01 -0.22933894767E+02 -0.45143011650E+01  0.12752269456E+03  0.12509000000E+03 0.  0.
         25    1    4    4    0    0  0.30767318732E+02  0.51830514709E+02 -0.32380078971E+02  0.14257982947E+03  0.12509000000E+03 0.  0.
         25    1    3    3    0    0 -0.39024865744E+02 -0.28896619942E+02 -0.19773937981E+03  0.23896929764E+03  0.12509000000E+03 0.  0.
<mgrwt>
<rscale>  2 0.45177552E+03</rscale>
<asrwt>0</asrwt>
<pdfrwt beam="1">  1       21 0.20179269E-01 0.45177552E+03</pdfrwt>
<pdfrwt beam="2">  1       21 0.54684234E-01 0.45177552E+03</pdfrwt>
<totfact> 0.66318823E+04</totfact>
</mgrwt>
</event>
<event>
 7    0  0.4752811E-002  0.4531688E+03  0.7546771E-02  0.1026781E+00
         21   -1    0    0  502  501  0.00000000000E+00  0.00000000000E+00  0.85601402383E+02  0.85601402383E+02  0.00000000000E+00 0. -1.
         21   -1    0    0  501  502 -0.00000000000E+00 -0.00000000000E+00 -0.59976228121E+03  0.59976228121E+03  0.00000000000E+00 0. -1.
      99926    2    1    2    0    0  0.00000000000E+00  0.00000000000E+00 -0.51416087883E+03  0.68536368359E+03  0.45316880902E+03 0.  0.
      99925    2    3    3    0    0 -0.78104259432E+02  0.63003418379E+02 -0.39733634892E+03  0.48695706839E+03  0.26302339480E+03 0.  0.
         25    1    4    4    0    0 -0.39634125726E+02  0.34826638003E+02 -0.12995488307E+03  0.18793493121E+03  0.12509000000E+03 0.  0.
         25    1    3    3    0    0  0.78104259432E+02 -0.63003418379E+02 -0.11682452991E+03  0.19840661520E+03  0.12509000000E+03 0.  0.
         25    1    4    4    0    0 -0.38470133707E+02  0.28176780376E+02 -0.26738146585E+03  0.29902213718E+03  0.12509000000E+03 0.  0.
<mgrwt>
<rscale>  2 0.45316881E+03</rscale>
<asrwt>0</asrwt>
<pdfrwt beam="1">  1       21 0.12588442E-01 0.45316881E+03</pdfrwt>
<pdfrwt beam="2">  1       21 0.88200332E-01 0.45316881E+03</pdfrwt>
<totfact> 0.54486345E+04</totfact>
</mgrwt>
</event>
<event>
 7    0  0.4752811E-002  0.4532074E+03  0.7546771E-02  0.1026770E+00
         21   -1    0    0  502  501  0.00000000000E+00  0.00000000000E+00  0.81246717177E+03  0.81246717177E+03  0.00000000000E+00 0.  1.
         21   -1    0    0  501  502 -0.00000000000E+00 -0.00000000000E+00 -0.63201610809E+02  0.63201610809E+02  0.00000000000E+00 0.  1.
      99926    2    1    2    0    0  0.00000000000E+00  0.00000000000E+00  0.74926556096E+03  0.87566878257E+03  0.45320738734E+03 0.  0.
      99925    2    3    3    0    0 -0.10534930336E+03 -0.16393116620E+02  0.53500320587E+03  0.60562605466E+03  0.26303474638E+03 0.  0.
         25    1    4    4    0    0 -0.41904331658E+02 -0.14199439381E+02  0.17768487170E+03  0.22175892050E+03  0.12509000000E+03 0.  0.
         25    1    3    3    0    0  0.10534930336E+03  0.16393116620E+02  0.21426235509E+03  0.27004272791E+03  0.12509000000E+03 0.  0.
         25    1    4    4    0    0 -0.63444971705E+02 -0.21936772389E+01  0.35731833417E+03  0.38386713416E+03  0.12509000000E+03 0.  0.
<mgrwt>
<rscale>  2 0.45320739E+03</rscale>
<asrwt>0</asrwt>
<pdfrwt beam="1">  1       21 0.11948046E+00 0.45320739E+03</pdfrwt>
<pdfrwt beam="2">  1       21 0.92943550E-02 0.45320739E+03</pdfrwt>
<totfact> 0.44929969E+04</totfact>
</mgrwt>
</event>
<event>
 7    0  0.4752811E-002  0.4662288E+03  0.7546771E-02  0.1022990E+00
         21   -1    0    0  502  501  0.00000000000E+00  0.00000000000E+00  0.18273562495E+03  0.18273562495E+03  0.00000000000E+00 0. -1.
         21   -1    0    0  501  502 -0.00000000000E+00 -0.00000000000E+00 -0.29738215727E+03  0.29738215727E+03  0.00000000000E+00 0. -1.
      99926    2    1    2    0    0 -0.14210854715E-13  0.00000000000E+00 -0.11464653232E+03  0.48011778222E+03  0.46622876083E+03 0.  0.
      99925    2    3    3    0    0  0.73581950940E+02 -0.98744210463E+02 -0.85322015427E+02  0.30215104938E+03  0.26239414575E+03 0.  0.
         25    1    4    4    0    0  0.16337280801E+01 -0.41330861884E+02 -0.60089699834E+02  0.14480742156E+03  0.12509000000E+03 0.  0.
         25    1    4    4    0    0  0.71948222860E+02 -0.57413348579E+02 -0.25232315593E+02  0.15734362783E+03  0.12509000000E+03 0.  0.
         25    1    3    3    0    0 -0.73581950940E+02  0.98744210463E+02 -0.29324516889E+02  0.17796673283E+03  0.12509000000E+03 0.  0.
<mgrwt>
<rscale>  2 0.46622876E+03</rscale>
<asrwt>0</asrwt>
<pdfrwt beam="1">  1       21 0.26872886E-01 0.46622876E+03</pdfrwt>
<pdfrwt beam="2">  1       21 0.43732670E-01 0.46622876E+03</pdfrwt>
<totfact> 0.61066424E+04</totfact>
</mgrwt>
</event>
<event>
 7    0  0.4752811E-002  0.4531396E+03  0.7546771E-02  0.1026790E+00
         21   -1    0    0  502  501  0.00000000000E+00  0.00000000000E+00  0.10327955385E+03  0.10327955385E+03  0.00000000000E+00 0. -1.
         21   -1    0    0  501  502 -0.00000000000E+00 -0.00000000000E+00 -0.49703819816E+03  0.49703819816E+03  0.00000000000E+00 0. -1.
      99926    2    1    2    0    0  0.00000000000E+00  0.00000000000E+00 -0.39375864430E+03  0.60031775201E+03  0.45313964008E+03 0.  0.
      99925    2    3    3    0    0 -0.37557103734E+02  0.10292262898E+03 -0.22112204889E+03  0.36062105663E+03  0.26296194094E+03 0.  0.
         25    1    4    4    0    0 -0.21492594318E+02  0.72737490613E+02 -0.16146171961E+03  0.21787627028E+03  0.12509000000E+03 0.  0.
         25    1    3    3    0    0  0.37557103734E+02 -0.10292262898E+03 -0.17263659542E+03  0.23969669538E+03  0.12509000000E+03 0.  0.
         25    1    4    4    0    0 -0.16064509416E+02  0.30185138368E+02 -0.59660329277E+02  0.14274478635E+03  0.12509000000E+03 0.  0.
<mgrwt>
<rscale>  2 0.45313964E+03</rscale>
<asrwt>0</asrwt>
<pdfrwt beam="1">  1       21 0.15188169E-01 0.45313964E+03</pdfrwt>
<pdfrwt beam="2">  1       21 0.73093854E-01 0.45313964E+03</pdfrwt>
<totfact> 0.59528910E+04</totfact>
</mgrwt>
</event>
<event>
 7    0  0.4752811E-002  0.4571952E+03  0.7546771E-02  0.1025598E+00
         21   -1    0    0  502  501  0.00000000000E+00  0.00000000000E+00  0.10986575223E+04  0.10986575223E+04  0.00000000000E+00 0.  1.
         21   -1    0    0  501  502 -0.00000000000E+00 -0.00000000000E+00 -0.47564288035E+02  0.47564288035E+02  0.00000000000E+00 0.  1.
      99926    2    1    2    0    0  0.14210854715E-13  0.00000000000E+00  0.10510932343E+04  0.11462218104E+04  0.45719520052E+03 0.  0.
      99925    2    3    3    0    0  0.51458961138E+02 -0.99989365916E+02  0.59695709084E+03  0.66193569362E+03  0.26297375574E+03 0.  0.
         25    1    4    4    0    0 -0.15467315666E+02 -0.44336875205E+02  0.27765708256E+03  0.30813302315E+03  0.12509000000E+03 0.  0.
         25    1    3    3    0    0 -0.51458961138E+02  0.99989365916E+02  0.45413614347E+03  0.48428611676E+03  0.12509000000E+03 0.  0.
         25    1    4    4    0    0  0.66926276803E+02 -0.55652490712E+02  0.31930000828E+03  0.35380267047E+03  0.12509000000E+03 0.  0.
<mgrwt>
<rscale>  2 0.45719520E+03</rscale>
<asrwt>0</asrwt>
<pdfrwt beam="1">  1       21 0.16156727E+00 0.45719520E+03</pdfrwt>
<pdfrwt beam="2">  1       21 0.69947489E-02 0.45719520E+03</pdfrwt>
<totfact> 0.33334767E+04</totfact>
</mgrwt>
</event>
<event>
 7    0  0.4752811E-002  0.4558712E+03  0.7546771E-02  0.1025986E+00
         21   -1    0    0  502  501  0.00000000000E+00  0.00000000000E+00  0.61197679570E+03  0.61197679570E+03  0.00000000000E+00 0.  1.
         21   -1    0    0  501  502 -0.00000000000E+00 -0.00000000000E+00 -0.84896410518E+02  0.84896410518E+02  0.00000000000E+00 0.  1.
      99926    2    1    2    0    0  0.00000000000E+00  0.00000000000E+00  0.52708038518E+03  0.69687320622E+03  0.45587118038E+03 0.  0.
      99925    2    3    3    0    0  0.25926106732E+02  0.11094318721E+03  0.33626534773E+03  0.44184685382E+03  0.26300894348E+03 0.  0.
         25    1    4    4    0    0  0.15293884587E+02  0.17948242880E+02  0.11910233858E+03  0.17432417355E+03  0.12509000000E+03 0.  0.
         25    1    3    3    0    0 -0.25926106732E+02 -0.11094318721E+03  0.19081503745E+03  0.25502635239E+03  0.12509000000E+03 0.  0.
         25    1    4    4    0    0  0.10632222145E+02  0.92994944325E+02  0.21716300915E+03  0.26752268028E+03  0.12509000000E+03 0.  0.
<mgrwt>
<rscale>  2 0.45587118E+03</rscale>
<asrwt>0</asrwt>
<pdfrwt beam="1">  1       21 0.89996585E-01 0.45587118E+03</pdfrwt>
<pdfrwt beam="2">  1       21 0.12484767E-01 0.45587118E+03</pdfrwt>
<totfact> 0.52710718E+04</totfact>
</mgrwt>
</event>
<event>
 7    0  0.4752811E-002  0.4671465E+03  0.7546771E-02  0.1022729E+00
         21   -1    0    0  502  501  0.00000000000E+00  0.00000000000E+00  0.26763762670E+03  0.26763762670E+03  0.00000000000E+00 0.  1.
         21   -1    0    0  501  502 -0.00000000000E+00 -0.00000000000E+00 -0.20384455084E+03  0.20384455084E+03  0.00000000000E+00 0.  1.
      99926    2    1    2    0    0  0.71054273576E-14  0.00000000000E+00  0.63793075865E+02  0.47148217754E+03  0.46714653720E+03 0.  0.
      99925    2    3    3    0    0 -0.49930427524E+02 -0.23626501358E+02 -0.72525311513E+02  0.27839807671E+03  0.26304811184E+03 0.  0.
         25    1    4    4    0    0 -0.38584543820E+02  0.84179994505E+01 -0.27936760882E+01  0.13120572572E+03  0.12509000000E+03 0.  0.
         25    1    4    4    0    0 -0.11345883704E+02 -0.32044500808E+02 -0.69731635424E+02  0.14719235098E+03  0.12509000000E+03 0.  0.
         25    1    3    3    0    0  0.49930427524E+02  0.23626501358E+02  0.13631838738E+03  0.19308410084E+03  0.12509000000E+03 0.  0.
<mgrwt>
<rscale>  2 0.46714654E+03</rscale>
<asrwt>0</asrwt>
<pdfrwt beam="1">  1       21 0.39358474E-01 0.46714654E+03</pdfrwt>
<pdfrwt beam="2">  1       21 0.29977140E-01 0.46714654E+03</pdfrwt>
<totfact> 0.61204710E+04</totfact>
</mgrwt>
</event>
<event>
 7    0  0.4752811E-002  0.4684244E+03  0.7546771E-02  0.1022366E+00
         21   -1    0    0  502  501  0.00000000000E+00  0.00000000000E+00  0.99318000628E+02  0.99318000628E+02  0.00000000000E+00 0.  1.
         21   -1    0    0  501  502 -0.00000000000E+00 -0.00000000000E+00 -0.55232040444E+03  0.55232040444E+03  0.00000000000E+00 0.  1.
      99926    2    1    2    0    0  0.35527136788E-14  0.00000000000E+00 -0.45300240381E+03  0.65163840507E+03  0.46842441557E+03 0.  0.
      99925    2    3    3    0    0  0.21500918241E+02  0.11110567489E+03 -0.35660414357E+03  0.45735280819E+03  0.26305572693E+03 0.  0.
         25    1    3    3    0    0 -0.21500918241E+02 -0.11110567489E+03 -0.96398260246E+02  0.19428559688E+03  0.12509000000E+03 0.  0.
         25    1    4    4    0    0  0.24041167988E+02  0.20597829653E+02 -0.13026102024E+03  0.18335127444E+03  0.12509000000E+03 0.  0.
         25    1    4    4    0    0 -0.25402497473E+01  0.90507845236E+02 -0.22634312333E+03  0.27400153375E+03  0.12509000000E+03 0.  0.
<mgrwt>
<rscale>  2 0.46842442E+03</rscale>
<asrwt>0</asrwt>
<pdfrwt beam="1">  1       21 0.14605588E-01 0.46842442E+03</pdfrwt>
<pdfrwt beam="2">  1       21 0.81223591E-01 0.46842442E+03</pdfrwt>
<totfact> 0.50087778E+04</totfact>
</mgrwt>
</event>
<event>
 6    0  0.4752811E-002  0.4397490E+03  0.7546771E-02  0.1030824E+00
         21   -1    0    0  502  501  0.00000000000E+00  0.00000000000E+00  0.35537494883E+03  0.35537494883E+03  0.00000000000E+00 0.  1.
         21   -1    0    0  501  502 -0.00000000000E+00 -0.00000000000E+00 -0.13603884728E+03  0.13603884728E+03  0.00000000000E+00 0.  1.
      99926    2    1    2    0    0  0.00000000000E+00  0.00000000000E+00  0.21933610155E+03  0.49141379611E+03  0.43974901201E+03 0.  0.
         25    1    3    3    0    0  0.27596547294E+02 -0.61847148404E+02  0.29040821806E+02  0.14518097885E+03  0.12509000000E+03 0.  0.
         25    1    3    3    0    0 -0.16714542720E+02  0.93829389642E+02  0.81950099007E+02  0.17733205330E+03  0.12509000000E+03 0.  0.
         25    1    3    3    0    0 -0.10882004573E+02 -0.31982241238E+02  0.10834518074E+03  0.16890076397E+03  0.12509000000E+03 0.  0.
<mgrwt>
<rscale>  2 0.43974901E+03</rscale>
<asrwt>0</asrwt>
<pdfrwt beam="1">  1       21 0.52261022E-01 0.43974901E+03</pdfrwt>
<pdfrwt beam="2">  1       21 0.20005713E-01 0.43974901E+03</pdfrwt>
<totfact> 0.74496523E+04</totfact>
</mgrwt>
</event>
<event>
 7    0  0.4752811E-002  0.4459431E+03  0.7546771E-02  0.1028939E+00
         21   -1    0    0  502  501  0.00000000000E+00  0.00000000000E+00  0.29703821671E+03  0.29703821671E+03  0.00000000000E+00 0.  1.
         21   -1    0    0  501  502 -0.00000000000E+00 -0.00000000000E+00 -0.16737346639E+03  0.16737346639E+03  0.00000000000E+00 0.  1.
      99926    2    1    2    0    0  0.00000000000E+00  0.14210854715E-13  0.12966475032E+03  0.46441168310E+03  0.44594311736E+03 0.  0.
      99925    2    3    3    0    0  0.19604319002E+02  0.10064882583E+03  0.10308191386E+03  0.30049502514E+03  0.26297692618E+03 0.  0.
         25    1    4    4    0    0  0.45530416151E+02  0.31571964076E+02  0.44055859180E+02  0.14372972740E+03  0.12509000000E+03 0.  0.
         25    1    4    4    0    0 -0.25926097149E+02  0.69076861751E+02  0.59026054683E+02  0.15676529774E+03  0.12509000000E+03 0.  0.
         25    1    3    3    0    0 -0.19604319002E+02 -0.10064882583E+03  0.26582836454E+02  0.16391665796E+03  0.12509000000E+03 0.  0.
<mgrwt>
<rscale>  2 0.44594312E+03</rscale>
<asrwt>0</asrwt>
<pdfrwt beam="1">  1       21 0.43682090E-01 0.44594312E+03</pdfrwt>
<pdfrwt beam="2">  1       21 0.24613745E-01 0.44594312E+03</pdfrwt>
<totfact> 0.72956453E+04</totfact>
</mgrwt>
</event>
<event>
 7    0  0.4752811E-002  0.4436421E+03  0.7546771E-02  0.1029635E+00
         21   -1    0    0  502  501  0.00000000000E+00  0.00000000000E+00  0.14151292221E+03  0.14151292221E+03  0.00000000000E+00 0.  1.
         21   -1    0    0  501  502 -0.00000000000E+00 -0.00000000000E+00 -0.34770376316E+03  0.34770376316E+03  0.00000000000E+00 0.  1.
      99926    2    1    2    0    0 -0.71054273576E-14  0.00000000000E+00 -0.20619084095E+03  0.48921668538E+03  0.44364208813E+03 0.  0.
      99925    2    3    3    0    0  0.41504236057E+02 -0.93387150566E+02 -0.13188574258E+03  0.31141759301E+03  0.26295114877E+03 0.  0.
         25    1    4    4    0    0  0.58722210365E+02 -0.52152044297E+02 -0.52971915774E+02  0.15691292386E+03  0.12509000000E+03 0.  0.
         25    1    3    3    0    0 -0.41504236057E+02  0.93387150566E+02 -0.74305098373E+02  0.17779909236E+03  0.12509000000E+03 0.  0.
         25    1    4    4    0    0 -0.17217974308E+02 -0.41235106269E+02 -0.78913826804E+02  0.15450466915E+03  0.12509000000E+03 0.  0.
<mgrwt>
<rscale>  2 0.44364209E+03</rscale>
<asrwt>0</asrwt>
<pdfrwt beam="1">  1       21 0.20810724E-01 0.44364209E+03</pdfrwt>
<pdfrwt beam="2">  1       21 0.51132906E-01 0.44364209E+03</pdfrwt>
<totfact> 0.72340876E+04</totfact>
</mgrwt>
</event>
<event>
 7    0  0.4752811E-002  0.4512043E+03  0.7546771E-02  0.1027364E+00
         21   -1    0    0  502  501  0.00000000000E+00  0.00000000000E+00  0.84389021125E+02  0.84389021125E+02  0.00000000000E+00 0. -1.
         21   -1    0    0  501  502 -0.00000000000E+00 -0.00000000000E+00 -0.60311561198E+03  0.60311561198E+03  0.00000000000E+00 0. -1.
      99926    2    1    2    0    0  0.14210854715E-13  0.00000000000E+00 -0.51872659085E+03  0.68750463310E+03  0.45120432675E+03 0.  0.
      99925    2    3    3    0    0 -0.88651913686E+02  0.51152552654E+02 -0.38708411918E+03  0.47905081594E+03  0.26302057616E+03 0.  0.
         25    1    4    4    0    0 -0.99996860444E+01 -0.87034313517E+00 -0.16622136089E+03  0.20827337836E+03  0.12509000000E+03 0.  0.
         25    1    4    4    0    0 -0.78652227642E+02  0.52022895789E+02 -0.22086275829E+03  0.27077743758E+03  0.12509000000E+03 0.  0.
         25    1    3    3    0    0  0.88651913686E+02 -0.51152552654E+02 -0.13164247167E+03  0.20845381716E+03  0.12509000000E+03 0.  0.
<mgrwt>
<rscale>  2 0.45120433E+03</rscale>
<asrwt>0</asrwt>
<pdfrwt beam="1">  1       21 0.12410150E-01 0.45120433E+03</pdfrwt>
<pdfrwt beam="2">  1       21 0.88693472E-01 0.45120433E+03</pdfrwt>
<totfact> 0.55218381E+04</totfact>
</mgrwt>
</event>
<event>
 7    0  0.4752811E-002  0.4542395E+03  0.7546771E-02  0.1026465E+00
         21   -1    0    0  502  501  0.00000000000E+00  0.00000000000E+00  0.13228767145E+04  0.13228767145E+04  0.00000000000E+00 0. -1.
         21   -1    0    0  501  502 -0.00000000000E+00 -0.00000000000E+00 -0.38993336914E+02  0.38993336914E+02  0.00000000000E+00 0. -1.
      99926    2    1    2    0    0  0.00000000000E+00  0.00000000000E+00  0.12838833776E+04  0.13618700514E+04  0.45423948495E+03 0.  0.
      99925    2    3    3    0    0  0.64982225899E+02 -0.90699984008E+02  0.77409064267E+03  0.82522741664E+03  0.26331500019E+03 0.  0.
         25    1    4    4    0    0  0.36430838553E+02 -0.87386562357E+02  0.39584503430E+03  0.42579856336E+03  0.12509000000E+03 0.  0.
         25    1    4    4    0    0  0.28551387347E+02 -0.33134216513E+01  0.37824560837E+03  0.39942885328E+03  0.12509000000E+03 0.  0.
         25    1    3    3    0    0 -0.64982225899E+02  0.90699984008E+02  0.50979273489E+03  0.53664263475E+03  0.12509000000E+03 0.  0.
<mgrwt>
<rscale>  2 0.45423948E+03</rscale>
<asrwt>0</asrwt>
<pdfrwt beam="1">  1       21 0.19454066E+00 0.45423948E+03</pdfrwt>
<pdfrwt beam="2">  1       21 0.57343151E-02 0.45423948E+03</pdfrwt>
<totfact> 0.27528436E+04</totfact>
</mgrwt>
</event>
<event>
 7    0  0.4752811E-002  0.4325164E+03  0.7546771E-02  0.1033068E+00
         21   -1    0    0  502  501  0.00000000000E+00  0.00000000000E+00  0.92722615558E+02  0.92722615558E+02  0.00000000000E+00 0.  1.
         21   -1    0    0  501  502 -0.00000000000E+00 -0.00000000000E+00 -0.50438201295E+03  0.50438201295E+03  0.00000000000E+00 0.  1.
      99926    2    1    2    0    0  0.00000000000E+00  0.00000000000E+00 -0.41165939739E+03  0.59710462850E+03  0.43251644815E+03 0.  0.
      99925    2    3    3    0    0 -0.65374212228E+02 -0.58832745277E+02 -0.28916639206E+03  0.40117830563E+03  0.26380248495E+03 0.  0.
         25    1    4    4    0    0 -0.41030815647E+02 -0.40036053722E+02 -0.91509519030E+02  0.16525106234E+03  0.12509000000E+03 0.  0.
         25    1    3    3    0    0  0.65374212228E+02  0.58832745277E+02 -0.12249300533E+03  0.19592632287E+03  0.12509000000E+03 0.  0.
         25    1    4    4    0    0 -0.24343396581E+02 -0.18796691555E+02 -0.19765687303E+03  0.23592724329E+03  0.12509000000E+03 0.  0.
<mgrwt>
<rscale>  2 0.43251645E+03</rscale>
<asrwt>0</asrwt>
<pdfrwt beam="1">  1       21 0.13635679E-01 0.43251645E+03</pdfrwt>
<pdfrwt beam="2">  1       21 0.74173824E-01 0.43251645E+03</pdfrwt>
<totfact> 0.70584737E+04</totfact>
</mgrwt>
</event>
<event>
 7    0  0.4752811E-002  0.4659634E+03  0.7546771E-02  0.1023066E+00
         21   -1    0    0  502  501  0.00000000000E+00  0.00000000000E+00  0.61684314359E+03  0.61684314359E+03  0.00000000000E+00 0.  1.
         21   -1    0    0  501  502 -0.00000000000E+00 -0.00000000000E+00 -0.87997189298E+02  0.87997189298E+02  0.00000000000E+00 0.  1.
      99926    2    1    2    0    0  0.00000000000E+00  0.00000000000E+00  0.52884595430E+03  0.70484033289E+03  0.46596335853E+03 0.  0.
      99925    2    3    3    0    0 -0.46028025212E+02  0.97627537995E+02  0.23972172101E+03  0.37183876284E+03  0.26295978162E+03 0.  0.
         25    1    4    4    0    0 -0.68305299322E+01  0.65086592352E+02  0.78555053982E+02  0.16155904571E+03  0.12509000000E+03 0.  0.
         25    1    4    4    0    0 -0.39197495280E+02  0.32540945643E+02  0.16116666703E+03  0.21027971714E+03  0.12509000000E+03 0.  0.
         25    1    3    3    0    0  0.46028025212E+02 -0.97627537995E+02  0.28912423329E+03  0.33300157005E+03  0.12509000000E+03 0.  0.
<mgrwt>
<rscale>  2 0.46596336E+03</rscale>
<asrwt>0</asrwt>
<pdfrwt beam="1">  1       21 0.90712225E-01 0.46596336E+03</pdfrwt>
<pdfrwt beam="2">  1       21 0.12940763E-01 0.46596336E+03</pdfrwt>
<totfact> 0.48334027E+04</totfact>
</mgrwt>
</event>
<event>
 7    0  0.4752811E-002  0.4587255E+03  0.7546771E-02  0.1025151E+00
         21   -1    0    0  502  501  0.00000000000E+00  0.00000000000E+00  0.12081194589E+03  0.12081194589E+03  0.00000000000E+00 0. -1.
         21   -1    0    0  501  502 -0.00000000000E+00 -0.00000000000E+00 -0.43544765858E+03  0.43544765858E+03  0.00000000000E+00 0. -1.
      99926    2    1    2    0    0  0.00000000000E+00  0.00000000000E+00 -0.31463571269E+03  0.55625960447E+03  0.45872553436E+03 0.  0.
      99925    2    3    3    0    0 -0.65480849843E+02  0.27843770964E+02 -0.85276185958E+02  0.28548974301E+03  0.26300066196E+03 0.  0.
         25    1    3    3    0    0  0.65480849843E+02 -0.27843770964E+02 -0.22935952673E+03  0.27076986147E+03  0.12509000000E+03 0.  0.
         25    1    4    4    0    0 -0.62624594516E+00  0.31190607010E+02 -0.21150714280E+02  0.13064496532E+03  0.12509000000E+03 0.  0.
         25    1    4    4    0    0 -0.64854603898E+02 -0.33468360458E+01 -0.64125471678E+02  0.15484477768E+03  0.12509000000E+03 0.  0.
<mgrwt>
<rscale>  2 0.45872553E+03</rscale>
<asrwt>0</asrwt>
<pdfrwt beam="1">  1       21 0.17766463E-01 0.45872553E+03</pdfrwt>
<pdfrwt beam="2">  1       21 0.64036419E-01 0.45872553E+03</pdfrwt>
<totfact> 0.59676453E+04</totfact>
</mgrwt>
</event>
<event>
 7    0  0.4752811E-002  0.4623746E+03  0.7546771E-02  0.1024095E+00
         21   -1    0    0  502  501  0.00000000000E+00  0.00000000000E+00  0.37906819897E+02  0.37906819897E+02  0.00000000000E+00 0. -1.
         21   -1    0    0  501  502 -0.00000000000E+00 -0.00000000000E+00 -0.14099724349E+04  0.14099724349E+04  0.00000000000E+00 0. -1.
      99926    2    1    2    0    0  0.00000000000E+00  0.00000000000E+00 -0.13720656150E+04  0.14478792548E+04  0.46237461501E+03 0.  0.
      99925    2    3    3    0    0 -0.31038311509E+02 -0.72051175448E+02 -0.57316539712E+03  0.63544844857E+03  0.26290950853E+03 0.  0.
         25    1    4    4    0    0  0.40725559538E+01 -0.18106011635E+02 -0.19977223406E+03  0.23643364179E+03  0.12509000000E+03 0.  0.
         25    1    4    4    0    0 -0.35110867463E+02 -0.53945163813E+02 -0.37339316306E+03  0.39901480678E+03  0.12509000000E+03 0.  0.
         25    1    3    3    0    0  0.31038311509E+02  0.72051175448E+02 -0.79890021792E+03  0.81243080626E+03  0.12509000000E+03 0.  0.
<mgrwt>
<rscale>  2 0.46237462E+03</rscale>
<asrwt>0</asrwt>
<pdfrwt beam="1">  1       21 0.55745330E-02 0.46237462E+03</pdfrwt>
<pdfrwt beam="2">  1       21 0.20734886E+00 0.46237462E+03</pdfrwt>
<totfact> 0.23696456E+04</totfact>
</mgrwt>
</event>
<event>
 7    0  0.4752811E-002  0.4572083E+03  0.7546771E-02  0.1025594E+00
         21   -1    0    0  502  501  0.00000000000E+00  0.00000000000E+00  0.56409867113E+03  0.56409867113E+03  0.00000000000E+00 0.  1.
         21   -1    0    0  501  502 -0.00000000000E+00 -0.00000000000E+00 -0.92643117174E+02  0.92643117174E+02  0.00000000000E+00 0.  1.
      99926    2    1    2    0    0  0.00000000000E+00  0.00000000000E+00  0.47145555395E+03  0.65674178830E+03  0.45720830827E+03 0.  0.
      99925    2    3    3    0    0 -0.18970649498E+02  0.64778713461E+02  0.16193574752E+03  0.31614497984E+03  0.26299865911E+03 0.  0.
         25    1    4    4    0    0 -0.19388304167E+02  0.12867654505E+02  0.38587333254E+02  0.13295853962E+03  0.12509000000E+03 0.  0.
         25    1    4    4    0    0  0.41765466928E+00  0.51911058956E+02  0.12334841427E+03  0.18318644022E+03  0.12509000000E+03 0.  0.
         25    1    3    3    0    0  0.18970649498E+02 -0.64778713461E+02  0.30951980643E+03  0.34059680846E+03  0.12509000000E+03 0.  0.
<mgrwt>
<rscale>  2 0.45720831E+03</rscale>
<asrwt>0</asrwt>
<pdfrwt beam="1">  1       21 0.82955686E-01 0.45720831E+03</pdfrwt>
<pdfrwt beam="2">  1       21 0.13623988E-01 0.45720831E+03</pdfrwt>
<totfact> 0.54361703E+04</totfact>
</mgrwt>
</event>
<event>
 7    0  0.4752811E-002  0.4528052E+03  0.7546771E-02  0.1026889E+00
         21   -1    0    0  502  501  0.00000000000E+00  0.00000000000E+00  0.24454298156E+03  0.24454298156E+03  0.00000000000E+00 0. -1.
         21   -1    0    0  501  502 -0.00000000000E+00 -0.00000000000E+00 -0.20960792838E+03  0.20960792838E+03  0.00000000000E+00 0. -1.
      99926    2    1    2    0    0 -0.14210854715E-13  0.00000000000E+00  0.34935053186E+02  0.45415090994E+03  0.45280524628E+03 0.  0.
      99925    2    3    3    0    0  0.10682246376E+03 -0.26853058156E+02  0.86006495824E+01  0.28541106755E+03  0.26316037089E+03 0.  0.
         25    1    4    4    0    0  0.18424379495E+02 -0.21286776974E+02 -0.19164483639E+02  0.12964324189E+03  0.12509000000E+03 0.  0.
         25    1    3    3    0    0 -0.10682246376E+03  0.26853058156E+02  0.26334403604E+02  0.16873984239E+03  0.12509000000E+03 0.  0.
         25    1    4    4    0    0  0.88398084268E+02 -0.55662811812E+01  0.27765133221E+02  0.15576782566E+03  0.12509000000E+03 0.  0.
<mgrwt>
<rscale>  2 0.45280525E+03</rscale>
<asrwt>0</asrwt>
<pdfrwt beam="1">  1       21 0.35962203E-01 0.45280525E+03</pdfrwt>
<pdfrwt beam="2">  1       21 0.30824695E-01 0.45280525E+03</pdfrwt>
<totfact> 0.69822777E+04</totfact>
</mgrwt>
</event>
<event>
 7    0  0.4752811E-002  0.4527484E+03  0.7546771E-02  0.1026906E+00
         21   -1    0    0  502  501  0.00000000000E+00  0.00000000000E+00  0.38695346792E+03  0.38695346792E+03  0.00000000000E+00 0. -1.
         21   -1    0    0  501  502 -0.00000000000E+00 -0.00000000000E+00 -0.13243263939E+03  0.13243263939E+03  0.00000000000E+00 0. -1.
      99926    2    1    2    0    0  0.00000000000E+00  0.35527136788E-14  0.25452082853E+03  0.51938610731E+03  0.45274835870E+03 0.  0.
      99925    2    3    3    0    0  0.95061100926E+02 -0.10319641692E+02  0.22533939413E+03  0.35925437364E+03  0.26295009891E+03 0.  0.
         25    1    4    4    0    0  0.26989137016E+02 -0.40040516710E+02  0.11534531641E+03  0.17687200630E+03  0.12509000000E+03 0.  0.
         25    1    3    3    0    0 -0.95061100926E+02  0.10319641692E+02  0.29181434400E+02  0.16013173367E+03  0.12509000000E+03 0.  0.
         25    1    4    4    0    0  0.68071963910E+02  0.29720875018E+02  0.10999407772E+03  0.18238236734E+03  0.12509000000E+03 0.  0.
<mgrwt>
<rscale>  2 0.45274836E+03</rscale>
<asrwt>0</asrwt>
<pdfrwt beam="1">  1       21 0.56904921E-01 0.45274836E+03</pdfrwt>
<pdfrwt beam="2">  1       21 0.19475388E-01 0.45274836E+03</pdfrwt>
<totfact> 0.65083992E+04</totfact>
</mgrwt>
</event>
<event>
 7    0  0.4752811E-002  0.4622859E+03  0.7546771E-02  0.1024120E+00
         21   -1    0    0  502  501  0.00000000000E+00  0.00000000000E+00  0.64942329627E+02  0.64942329627E+02  0.00000000000E+00 0.  1.
         21   -1    0    0  501  502 -0.00000000000E+00 -0.00000000000E+00 -0.82268484122E+03  0.82268484122E+03  0.00000000000E+00 0.  1.
      99926    2    1    2    0    0  0.00000000000E+00  0.14210854715E-13 -0.75774251160E+03  0.88762717085E+03  0.46228592943E+03 0.  0.
      99925    2    3    3    0    0 -0.70323460044E+02 -0.80224900256E+02 -0.57873660328E+03  0.64457975374E+03  0.26299349668E+03 0.  0.
         25    1    3    3    0    0  0.70323460044E+02  0.80224900256E+02 -0.17900590831E+03  0.24304741711E+03  0.12509000000E+03 0.  0.
         25    1    4    4    0    0 -0.74041345378E+02 -0.34960172443E+02 -0.27620652639E+03  0.31407306125E+03  0.12509000000E+03 0.  0.
         25    1    4    4    0    0  0.37178853340E+01 -0.45264727813E+02 -0.30253007689E+03  0.33050669249E+03  0.12509000000E+03 0.  0.
<mgrwt>
<rscale>  2 0.46228593E+03</rscale>
<asrwt>0</asrwt>
<pdfrwt beam="1">  1       21 0.95503423E-02 0.46228593E+03</pdfrwt>
<pdfrwt beam="2">  1       21 0.12098307E+00 0.46228593E+03</pdfrwt>
<totfact> 0.41362038E+04</totfact>
</mgrwt>
</event>
<event>
 7    0  0.4752811E-002  0.4624323E+03  0.7546771E-02  0.1024078E+00
         21   -1    0    0  502  501  0.00000000000E+00  0.00000000000E+00  0.25887606755E+03  0.25887606755E+03  0.00000000000E+00 0. -1.
         21   -1    0    0  501  502 -0.00000000000E+00 -0.00000000000E+00 -0.20651159117E+03  0.20651159117E+03  0.00000000000E+00 0. -1.
      99926    2    1    2    0    0  0.35527136788E-14 -0.71054273576E-14  0.52364476379E+02  0.46538765872E+03  0.46243230261E+03 0.  0.
      99925    2    3    3    0    0  0.28024568887E+02 -0.59043600881E+02  0.13401045723E+03  0.30233828719E+03  0.26301732640E+03 0.  0.
         25    1    3    3    0    0 -0.28024568887E+02  0.59043600881E+02 -0.81645980850E+02  0.16304937153E+03  0.12509000000E+03 0.  0.
         25    1    4    4    0    0  0.48149988496E+02 -0.76272209519E+01  0.64216783642E+02  0.14882170303E+03  0.12509000000E+03 0.  0.
         25    1    4    4    0    0 -0.20125419609E+02 -0.51416379929E+02  0.69793673586E+02  0.15351658416E+03  0.12509000000E+03 0.  0.
<mgrwt>
<rscale>  2 0.46243230E+03</rscale>
<asrwt>0</asrwt>
<pdfrwt beam="1">  1       21 0.38070010E-01 0.46243230E+03</pdfrwt>
<pdfrwt beam="2">  1       21 0.30369351E-01 0.46243230E+03</pdfrwt>
<totfact> 0.63916276E+04</totfact>
</mgrwt>
</event>
<event>
 7    0  0.4752811E-002  0.4537986E+03  0.7546771E-02  0.1026595E+00
         21   -1    0    0  502  501  0.00000000000E+00  0.00000000000E+00  0.11684609257E+03  0.11684609257E+03  0.00000000000E+00 0.  1.
         21   -1    0    0  501  502 -0.00000000000E+00 -0.00000000000E+00 -0.44060772868E+03  0.44060772868E+03  0.00000000000E+00 0.  1.
      99926    2    1    2    0    0 -0.71054273576E-14  0.00000000000E+00 -0.32376163611E+03  0.55745382125E+03  0.45379859609E+03 0.  0.
      99925    2    3    3    0    0 -0.44286339149E+02  0.45980046048E+02 -0.90422482228E+02  0.28511191609E+03  0.26274918637E+03 0.  0.
         25    1    4    4    0    0 -0.14070310025E+02  0.14880975766E+02 -0.84984283405E+02  0.15260817013E+03  0.12509000000E+03 0.  0.
         25    1    4    4    0    0 -0.30216029125E+02  0.31099070281E+02 -0.54381988235E+01  0.13250374597E+03  0.12509000000E+03 0.  0.
         25    1    3    3    0    0  0.44286339149E+02 -0.45980046048E+02 -0.23333915388E+03  0.27234190516E+03  0.12509000000E+03 0.  0.
<mgrwt>
<rscale>  2 0.45379860E+03</rscale>
<asrwt>0</asrwt>
<pdfrwt beam="1">  1       21 0.17183249E-01 0.45379860E+03</pdfrwt>
<pdfrwt beam="2">  1       21 0.64795253E-01 0.45379860E+03</pdfrwt>
<totfact> 0.61963405E+04</totfact>
</mgrwt>
</event>
<event>
 7    0  0.4752811E-002  0.4407158E+03  0.7546771E-02  0.1030527E+00
         21   -1    0    0  502  501  0.00000000000E+00  0.00000000000E+00  0.54950839173E+02  0.54950839173E+02  0.00000000000E+00 0. -1.
         21   -1    0    0  501  502 -0.00000000000E+00 -0.00000000000E+00 -0.88365541736E+03  0.88365541736E+03  0.00000000000E+00 0. -1.
      99926    2    1    2    0    0  0.00000000000E+00  0.17763568394E-14 -0.82870457818E+03  0.93860625653E+03  0.44071581194E+03 0.  0.
      99925    2    3    3    0    0 -0.10430455089E+02  0.84729260180E+01 -0.31929161554E+03  0.41388760861E+03  0.26301184752E+03 0.  0.
         25    1    3    3    0    0  0.10430455089E+02 -0.84729260180E+01 -0.50941296264E+03  0.52471864792E+03  0.12509000000E+03 0.  0.
         25    1    4    4    0    0 -0.10496052133E+02 -0.33273233517E+02 -0.18134228056E+03  0.22304664534E+03  0.12509000000E+03 0.  0.
         25    1    4    4    0    0  0.65597043909E-01  0.41746159535E+02 -0.13794933498E+03  0.19084096327E+03  0.12509000000E+03 0.  0.
<mgrwt>
<rscale>  2 0.44071581E+03</rscale>
<asrwt>0</asrwt>
<pdfrwt beam="1">  1       21 0.80810062E-02 0.44071581E+03</pdfrwt>
<pdfrwt beam="2">  1       21 0.12994932E+00 0.44071581E+03</pdfrwt>
<totfact> 0.46597364E+04</totfact>
</mgrwt>
</event>
<event>
 7    0  0.4752811E-002  0.4611446E+03  0.7546771E-02  0.1024450E+00
         21   -1    0    0  502  501  0.00000000000E+00  0.00000000000E+00  0.82934276785E+02  0.82934276785E+02  0.00000000000E+00 0. -1.
         21   -1    0    0  501  502 -0.00000000000E+00 -0.00000000000E+00 -0.64103282240E+03  0.64103282240E+03  0.00000000000E+00 0. -1.
      99926    2    1    2    0    0  0.00000000000E+00 -0.35527136788E-14 -0.55809854561E+03  0.72396709918E+03  0.46114463467E+03 0.  0.
      99925    2    3    3    0    0 -0.10706721037E+03 -0.29898912857E+02 -0.28088739033E+03  0.40016026596E+03  0.26243700174E+03 0.  0.
         25    1    4    4    0    0 -0.42623943046E+02  0.17489862809E+02 -0.16302358393E+03  0.21058701964E+03  0.12509000000E+03 0.  0.
         25    1    3    3    0    0  0.10706721037E+03  0.29898912857E+02 -0.27721115528E+03  0.32380683322E+03  0.12509000000E+03 0.  0.
         25    1    4    4    0    0 -0.64443267328E+02 -0.47388775666E+02 -0.11786380640E+03  0.18957324632E+03  0.12509000000E+03 0.  0.
<mgrwt>
<rscale>  2 0.46114463E+03</rscale>
<asrwt>0</asrwt>
<pdfrwt beam="1">  1       21 0.12196217E-01 0.46114463E+03</pdfrwt>
<pdfrwt beam="2">  1       21 0.94269534E-01 0.46114463E+03</pdfrwt>
<totfact> 0.49199853E+04</totfact>
</mgrwt>
</event>
<event>
 7    0  0.4752811E-002  0.5134918E+03  0.7546771E-02  0.1010316E+00
         21   -1    0    0  502  501  0.00000000000E+00  0.00000000000E+00  0.43951829873E+03  0.43951829873E+03  0.00000000000E+00 0. -1.
         21   -1    0    0  501  502 -0.00000000000E+00 -0.00000000000E+00 -0.14997886861E+03  0.14997886861E+03  0.00000000000E+00 0. -1.
      99926    2    1    2    0    0 -0.71054273576E-14  0.00000000000E+00  0.28953943013E+03  0.58949716734E+03  0.51349180003E+03 0.  0.
      99925    2    3    3    0    0  0.53663183337E+02 -0.15247052319E+03  0.18574142252E+03  0.36026250118E+03  0.26298706437E+03 0.  0.
         25    1    3    3    0    0 -0.53663183337E+02  0.15247052319E+03  0.10379800761E+03  0.22923466616E+03  0.12509000000E+03 0.  0.
         25    1    4    4    0    0  0.24787382793E+02 -0.30840483791E+02  0.67672681991E+02  0.14762333750E+03  0.12509000000E+03 0.  0.
         25    1    4    4    0    0  0.28875800544E+02 -0.12163003940E+03  0.11806874052E+03  0.21263916368E+03  0.12509000000E+03 0.  0.
<mgrwt>
<rscale>  2 0.51349180E+03</rscale>
<asrwt>0</asrwt>
<pdfrwt beam="1">  1       21 0.64635043E-01 0.51349180E+03</pdfrwt>
<pdfrwt beam="2">  1       21 0.22055716E-01 0.51349180E+03</pdfrwt>
<totfact> 0.38290675E+04</totfact>
</mgrwt>
</event>
<event>
 7    0  0.4752811E-002  0.4429369E+03  0.7546771E-02  0.1029850E+00
         21   -1    0    0  502  501  0.00000000000E+00  0.00000000000E+00  0.45389772847E+02  0.45389772847E+02  0.00000000000E+00 0. -1.
         21   -1    0    0  501  502 -0.00000000000E+00 -0.00000000000E+00 -0.10806018739E+04  0.10806018739E+04  0.00000000000E+00 0. -1.
      99926    2    1    2    0    0 -0.17763568394E-14  0.14210854715E-13 -0.10352121010E+04  0.11259916467E+04  0.44293689661E+03 0.  0.
      99925    2    3    3    0    0  0.77153995730E+01  0.10038436059E+03 -0.62630835369E+03  0.68668955257E+03  0.26295216383E+03 0.  0.
         25    1    4    4    0    0 -0.16702997218E+02  0.17935206794E+02 -0.32999665956E+03  0.35375975631E+03  0.12509000000E+03 0.  0.
         25    1    3    3    0    0 -0.77153995730E+01 -0.10038436059E+03 -0.40890374735E+03  0.43930209417E+03  0.12509000000E+03 0.  0.
         25    1    4    4    0    0  0.24418396791E+02  0.82449153794E+02 -0.29631169413E+03  0.33292979627E+03  0.12509000000E+03 0.  0.
<mgrwt>
<rscale>  2 0.44293690E+03</rscale>
<asrwt>0</asrwt>
<pdfrwt beam="1">  1       21 0.66749662E-02 0.44293690E+03</pdfrwt>
<pdfrwt beam="2">  1       21 0.15891205E+00 0.44293690E+03</pdfrwt>
<totfact> 0.38048214E+04</totfact>
</mgrwt>
</event>
<event>
 7    0  0.4752811E-002  0.4563600E+03  0.7546771E-02  0.1025842E+00
         21   -1    0    0  502  501  0.00000000000E+00  0.00000000000E+00  0.21621564089E+03  0.21621564089E+03  0.00000000000E+00 0. -1.
         21   -1    0    0  501  502 -0.00000000000E+00 -0.00000000000E+00 -0.24080640034E+03  0.24080640034E+03  0.00000000000E+00 0. -1.
      99926    2    1    2    0    0  0.00000000000E+00  0.00000000000E+00 -0.24590759450E+02  0.45702204124E+03  0.45635999028E+03 0.  0.
      99925    2    3    3    0    0  0.14337203224E+02  0.17575430020E+02  0.97322206866E+02  0.28088365646E+03  0.26250631493E+03 0.  0.
         25    1    4    4    0    0  0.31677114076E+02  0.11696955046E+02  0.82479626062E+02  0.15359249698E+03  0.12509000000E+03 0.  0.
         25    1    3    3    0    0 -0.14337203224E+02 -0.17575430020E+02 -0.12191296632E+03  0.17613838478E+03  0.12509000000E+03 0.  0.
         25    1    4    4    0    0 -0.17339910852E+02  0.58784749739E+01  0.14842580804E+02  0.12729115948E+03  0.12509000000E+03 0.  0.
<mgrwt>
<rscale>  2 0.45635999E+03</rscale>
<asrwt>0</asrwt>
<pdfrwt beam="1">  1       21 0.31796418E-01 0.45635999E+03</pdfrwt>
<pdfrwt beam="2">  1       21 0.35412706E-01 0.45635999E+03</pdfrwt>
<totfact> 0.67660760E+04</totfact>
</mgrwt>
</event>
<event>
 7    0  0.4752811E-002  0.4511410E+03  0.7546771E-02  0.1027382E+00
         21   -1    0    0  502  501  0.00000000000E+00  0.00000000000E+00  0.32405481682E+03  0.32405481682E+03  0.00000000000E+00 0.  1.
         21   -1    0    0  501  502 -0.00000000000E+00 -0.00000000000E+00 -0.15701677388E+03  0.15701677388E+03  0.00000000000E+00 0.  1.
      99926    2    1    2    0    0  0.00000000000E+00  0.00000000000E+00  0.16703804294E+03  0.48107159071E+03  0.45114096200E+03 0.  0.
      99925    2    3    3    0    0 -0.68009698929E+01 -0.26690180648E+02  0.21850118586E+03  0.34303325504E+03  0.26300271273E+03 0.  0.
         25    1    4    4    0    0 -0.15248559267E+01  0.17323065442E+02  0.72065557867E+02  0.14540758753E+03  0.12509000000E+03 0.  0.
         25    1    3    3    0    0  0.68009698929E+01  0.26690180648E+02 -0.51463142924E+02  0.13803833567E+03  0.12509000000E+03 0.  0.
         25    1    4    4    0    0 -0.52761139662E+01 -0.44013246090E+02  0.14643562799E+03  0.19762566750E+03  0.12509000000E+03 0.  0.
<mgrwt>
<rscale>  2 0.45114096E+03</rscale>
<asrwt>0</asrwt>
<pdfrwt beam="1">  1       21 0.47655120E-01 0.45114096E+03</pdfrwt>
<pdfrwt beam="2">  1       21 0.23090702E-01 0.45114096E+03</pdfrwt>
<totfact> 0.68702787E+04</totfact>
</mgrwt>
</event>
<event>
 7    0  0.4752811E-002  0.4471933E+03  0.7546771E-02  0.1028562E+00
         21   -1    0    0  502  501  0.00000000000E+00  0.00000000000E+00  0.52216600335E+03  0.52216600335E+03  0.00000000000E+00 0. -1.
         21   -1    0    0  501  502 -0.00000000000E+00 -0.00000000000E+00 -0.95746316736E+02  0.95746316736E+02  0.00000000000E+00 0. -1.
      99926    2    1    2    0    0  0.00000000000E+00  0.00000000000E+00  0.42641968661E+03  0.61791232009E+03  0.44719334318E+03 0.  0.
      99925    2    3    3    0    0 -0.34353636070E+02 -0.40145076264E+02  0.14373040832E+03  0.30430024184E+03  0.26296084775E+03 0.  0.
         25    1    3    3    0    0  0.34353636070E+02  0.40145076264E+02  0.28268927829E+03  0.31361207825E+03  0.12509000000E+03 0.  0.
         25    1    4    4    0    0 -0.32517854223E+02 -0.42595816932E+02  0.40211372059E+02  0.14190235025E+03  0.12509000000E+03 0.  0.
         25    1    4    4    0    0 -0.18357818466E+01  0.24507406676E+01  0.10351903626E+03  0.16239789159E+03  0.12509000000E+03 0.  0.
<mgrwt>
<rscale>  2 0.44719334E+03</rscale>
<asrwt>0</asrwt>
<pdfrwt beam="1">  1       21 0.76789117E-01 0.44719334E+03</pdfrwt>
<pdfrwt beam="2">  1       21 0.14080341E-01 0.44719334E+03</pdfrwt>
<totfact> 0.61280282E+04</totfact>
</mgrwt>
</event>
<event>
 7    0  0.4752811E-002  0.4560654E+03  0.7546771E-02  0.1025929E+00
         21   -1    0    0  502  501  0.00000000000E+00  0.00000000000E+00  0.12888862845E+03  0.12888862845E+03  0.00000000000E+00 0.  1.
         21   -1    0    0  501  502 -0.00000000000E+00 -0.00000000000E+00 -0.40344066396E+03  0.40344066396E+03  0.00000000000E+00 0.  1.
      99926    2    1    2    0    0  0.00000000000E+00  0.14210854715E-13 -0.27455203551E+03  0.53232929242E+03  0.45606540689E+03 0.  0.
      99925    2    3    3    0    0  0.33029579784E+02  0.98225376634E+02 -0.22856672821E+03  0.36350591032E+03  0.26297265986E+03 0.  0.
         25    1    4    4    0    0 -0.38525893312E+01  0.85517071950E+02 -0.11930296228E+03  0.19289561153E+03  0.12509000000E+03 0.  0.
         25    1    4    4    0    0  0.36882169116E+02  0.12708304684E+02 -0.10926376594E+03  0.17061029879E+03  0.12509000000E+03 0.  0.
         25    1    3    3    0    0 -0.33029579784E+02 -0.98225376634E+02 -0.45985307296E+02  0.16882338210E+03  0.12509000000E+03 0.  0.
<mgrwt>
<rscale>  2 0.45606541E+03</rscale>
<asrwt>0</asrwt>
<pdfrwt beam="1">  1       21 0.18954210E-01 0.45606541E+03</pdfrwt>
<pdfrwt beam="2">  1       21 0.59329508E-01 0.45606541E+03</pdfrwt>
<totfact> 0.62519517E+04</totfact>
</mgrwt>
</event>
<event>
 7    0  0.4752811E-002  0.4111013E+03  0.7546771E-02  0.1040002E+00
         21   -1    0    0  502  501  0.00000000000E+00  0.00000000000E+00  0.38891534656E+03  0.38891534656E+03  0.00000000000E+00 0. -1.
         21   -1    0    0  501  502 -0.00000000000E+00 -0.00000000000E+00 -0.10863820528E+03  0.10863820528E+03  0.00000000000E+00 0. -1.
      99926    2    1    2    0    0  0.44408920985E-15  0.00000000000E+00  0.28027714128E+03  0.49755355184E+03  0.41110127831E+03 0.  0.
      99925    2    3    3    0    0  0.28050595916E+01 -0.52134631317E+02  0.22908798986E+03  0.35266143520E+03  0.26298838878E+03 0.  0.
         25    1    3    3    0    0 -0.28050595916E+01  0.52134631317E+02  0.51189151412E+02  0.14489211664E+03  0.12509000000E+03 0.  0.
         25    1    4    4    0    0  0.15883358805E+02  0.12105438032E+02  0.10122048171E+03  0.16214782371E+03  0.12509000000E+03 0.  0.
         25    1    4    4    0    0 -0.13078299213E+02 -0.64240069349E+02  0.12786750815E+03  0.19051361149E+03  0.12509000000E+03 0.  0.
<mgrwt>
<rscale>  2 0.41110128E+03</rscale>
<asrwt>0</asrwt>
<pdfrwt beam="1">  1       21 0.57193433E-01 0.41110128E+03</pdfrwt>
<pdfrwt beam="2">  1       21 0.15976207E-01 0.41110128E+03</pdfrwt>
<totfact> 0.94203490E+04</totfact>
</mgrwt>
</event>
<event>
 7    0  0.4752811E-002  0.4411973E+03  0.7546771E-02  0.1030380E+00
         21   -1    0    0  502  501  0.00000000000E+00  0.00000000000E+00  0.57909648838E+03  0.57909648838E+03  0.00000000000E+00 0. -1.
         21   -1    0    0  501  502 -0.00000000000E+00 -0.00000000000E+00 -0.84033947024E+02  0.84033947024E+02  0.00000000000E+00 0. -1.
      99926    2    1    2    0    0  0.00000000000E+00  0.00000000000E+00  0.49506254136E+03  0.66313043540E+03  0.44119729658E+03 0.  0.
      99925    2    3    3    0    0  0.62835879049E+00 -0.96419070787E+02  0.35340751324E+03  0.45097321272E+03  0.26302649321E+03 0.  0.
         25    1    4    4    0    0 -0.79630452079E+01 -0.57725413458E+02  0.11846967706E+03  0.18187414861E+03  0.12509000000E+03 0.  0.
         25    1    4    4    0    0  0.85914039984E+01 -0.38693657329E+02  0.23493783617E+03  0.26909906411E+03  0.12509000000E+03 0.  0.
         25    1    3    3    0    0 -0.62835879049E+00  0.96419070787E+02  0.14165502812E+03  0.21215722269E+03  0.12509000000E+03 0.  0.
<mgrwt>
<rscale>  2 0.44119730E+03</rscale>
<asrwt>0</asrwt>
<pdfrwt beam="1">  1       21 0.85161246E-01 0.44119730E+03</pdfrwt>
<pdfrwt beam="2">  1       21 0.12357934E-01 0.44119730E+03</pdfrwt>
<totfact> 0.61356775E+04</totfact>
</mgrwt>
</event>
<event>
 7    0  0.4752811E-002  0.4532279E+03  0.7546771E-02  0.1026764E+00
         21   -1    0    0  502  501  0.00000000000E+00  0.00000000000E+00  0.20559548954E+03  0.20559548954E+03  0.00000000000E+00 0.  1.
         21   -1    0    0  501  502 -0.00000000000E+00 -0.00000000000E+00 -0.24978116101E+03  0.24978116101E+03  0.00000000000E+00 0.  1.
      99926    2    1    2    0    0  0.00000000000E+00  0.00000000000E+00 -0.44185671478E+02  0.45537665055E+03  0.45322789003E+03 0.  0.
      99925    2    3    3    0    0 -0.51482684468E+01 -0.93786240536E+02 -0.88199244696E+02  0.29287413885E+03  0.26300910794E+03 0.  0.
         25    1    4    4    0    0  0.33130973252E+02 -0.26290195001E+02 -0.43808116055E+02  0.13912402695E+03  0.12509000000E+03 0.  0.
         25    1    4    4    0    0 -0.38279241699E+02 -0.67496045536E+02 -0.44391128641E+02  0.15375011190E+03  0.12509000000E+03 0.  0.
         25    1    3    3    0    0  0.51482684468E+01  0.93786240536E+02  0.44013573218E+02  0.16250251170E+03  0.12509000000E+03 0.  0.
<mgrwt>
<rscale>  2 0.45322789E+03</rscale>
<asrwt>0</asrwt>
<pdfrwt beam="1">  1       21 0.30234631E-01 0.45322789E+03</pdfrwt>
<pdfrwt beam="2">  1       21 0.36732523E-01 0.45322789E+03</pdfrwt>
<totfact> 0.69495615E+04</totfact>
</mgrwt>
</event>
<event>
 7    0  0.4752811E-002  0.4564654E+03  0.7546771E-02  0.1025811E+00
         21   -1    0    0  502  501  0.00000000000E+00  0.00000000000E+00  0.36223905098E+03  0.36223905098E+03  0.00000000000E+00 0.  1.
         21   -1    0    0  501  502 -0.00000000000E+00 -0.00000000000E+00 -0.14380051702E+03  0.14380051702E+03  0.00000000000E+00 0.  1.
      99926    2    1    2    0    0  0.00000000000E+00  0.00000000000E+00  0.21843853396E+03  0.50603956800E+03  0.45646538890E+03 0.  0.
      99925    2    3    3    0    0 -0.66754499469E+02 -0.42362840418E+02  0.22915748143E+03  0.35767118396E+03  0.26299192211E+03 0.  0.
         25    1    3    3    0    0  0.66754499469E+02  0.42362840418E+02 -0.10718947473E+02  0.14836838404E+03  0.12509000000E+03 0.  0.
         25    1    4    4    0    0 -0.26708194994E+02 -0.10580608558E+02  0.61461837105E+02  0.14230369805E+03  0.12509000000E+03 0.  0.
         25    1    4    4    0    0 -0.40046304475E+02 -0.31782231860E+02  0.16769564432E+03  0.21536748592E+03  0.12509000000E+03 0.  0.
<mgrwt>
<rscale>  2 0.45646539E+03</rscale>
<asrwt>0</asrwt>
<pdfrwt beam="1">  1       21 0.53270448E-01 0.45646539E+03</pdfrwt>
<pdfrwt beam="2">  1       21 0.21147135E-01 0.45646539E+03</pdfrwt>
<totfact> 0.64099610E+04</totfact>
</mgrwt>
</event>
<event>
 7    0  0.4752811E-002  0.4535277E+03  0.7546771E-02  0.1026675E+00
         21   -1    0    0  502  501  0.00000000000E+00  0.00000000000E+00  0.20289044462E+03  0.20289044462E+03  0.00000000000E+00 0.  1.
         21   -1    0    0  501  502 -0.00000000000E+00 -0.00000000000E+00 -0.25344639851E+03  0.25344639851E+03  0.00000000000E+00 0.  1.
      99926    2    1    2    0    0  0.00000000000E+00  0.35527136788E-14 -0.50555953895E+02  0.45633684313E+03  0.45352773887E+03 0.  0.
      99925    2    3    3    0    0  0.88148888118E+02 -0.24737624312E+02  0.32858530404E+02  0.28030371891E+03  0.26288460449E+03 0.  0.
         25    1    4    4    0    0  0.43953702943E+02 -0.52216953811E+02  0.24238940251E+02  0.14454609158E+03  0.12509000000E+03 0.  0.
         25    1    3    3    0    0 -0.88148888118E+02  0.24737624312E+02 -0.83414484299E+02  0.17603312422E+03  0.12509000000E+03 0.  0.
         25    1    4    4    0    0  0.44195185175E+02  0.27479329499E+02  0.86195901531E+01  0.13575762732E+03  0.12509000000E+03 0.  0.
<mgrwt>
<rscale>  2 0.45352774E+03</rscale>
<asrwt>0</asrwt>
<pdfrwt beam="1">  1       21 0.29836830E-01 0.45352774E+03</pdfrwt>
<pdfrwt beam="2">  1       21 0.37271529E-01 0.45352774E+03</pdfrwt>
<totfact> 0.69257867E+04</totfact>
</mgrwt>
</event>
<event>
 7    0  0.4752811E-002  0.4460912E+03  0.7546771E-02  0.1028894E+00
         21   -1    0    0  502  501  0.00000000000E+00  0.00000000000E+00  0.14425358794E+03  0.14425358794E+03  0.00000000000E+00 0.  1.
         21   -1    0    0  501  502 -0.00000000000E+00 -0.00000000000E+00 -0.34487414377E+03  0.34487414377E+03  0.00000000000E+00 0.  1.
      99926    2    1    2    0    0  0.00000000000E+00  0.35527136788E-14 -0.20062055583E+03  0.48912773170E+03  0.44609116837E+03 0.  0.
      99925    2    3    3    0    0 -0.92380500366E+02 -0.30199352333E+02 -0.85269192916E+02  0.29316956588E+03  0.26311860703E+03 0.  0.
         25    1    4    4    0    0 -0.40016903424E+02 -0.23351131282E+02 -0.10652253308E+01  0.13339891565E+03  0.12509000000E+03 0.  0.
         25    1    4    4    0    0 -0.52363596942E+02 -0.68482210510E+01 -0.84203967586E+02  0.15977065023E+03  0.12509000000E+03 0.  0.
         25    1    3    3    0    0  0.92380500366E+02  0.30199352333E+02 -0.11535136291E+03  0.19595816583E+03  0.12509000000E+03 0.  0.
<mgrwt>
<rscale>  2 0.44609117E+03</rscale>
<asrwt>0</asrwt>
<pdfrwt beam="1">  1       21 0.21213763E-01 0.44609117E+03</pdfrwt>
<pdfrwt beam="2">  1       21 0.50716786E-01 0.44609117E+03</pdfrwt>
<totfact> 0.70926409E+04</totfact>
</mgrwt>
</event>
<event>
 7    0  0.4752811E-002  0.4560038E+03  0.7546771E-02  0.1025947E+00
         21   -1    0    0  502  501  0.00000000000E+00  0.00000000000E+00  0.20047280845E+03  0.20047280845E+03  0.00000000000E+00 0.  1.
         21   -1    0    0  501  502 -0.00000000000E+00 -0.00000000000E+00 -0.25931132246E+03  0.25931132246E+03  0.00000000000E+00 0.  1.
      99926    2    1    2    0    0  0.17763568394E-14  0.00000000000E+00 -0.58838514010E+02  0.45978413091E+03  0.45600381172E+03 0.  0.
      99925    2    3    3    0    0 -0.96961094663E+01 -0.17255650649E+02  0.76340853475E+02  0.27454714348E+03  0.26297611311E+03 0.  0.
         25    1    4    4    0    0 -0.39445151975E+02 -0.19363849909E+02  0.57747415463E+02  0.14461379875E+03  0.12509000000E+03 0.  0.
         25    1    4    4    0    0  0.29749042509E+02  0.21081992603E+01  0.18593438012E+02  0.12993334472E+03  0.12509000000E+03 0.  0.
         25    1    3    3    0    0  0.96961094663E+01  0.17255650649E+02 -0.13517936749E+03  0.18523698743E+03  0.12509000000E+03 0.  0.
<mgrwt>
<rscale>  2 0.45600381E+03</rscale>
<asrwt>0</asrwt>
<pdfrwt beam="1">  1       21 0.29481295E-01 0.45600381E+03</pdfrwt>
<pdfrwt beam="2">  1       21 0.38134018E-01 0.45600381E+03</pdfrwt>
<totfact> 0.67653082E+04</totfact>
</mgrwt>
</event>
<event>
 7    0  0.4752811E-002  0.4414082E+03  0.7546771E-02  0.1030316E+00
         21   -1    0    0  502  501  0.00000000000E+00  0.00000000000E+00  0.19318734241E+03  0.19318734241E+03  0.00000000000E+00 0.  1.
         21   -1    0    0  501  502 -0.00000000000E+00 -0.00000000000E+00 -0.25214020475E+03  0.25214020475E+03  0.00000000000E+00 0.  1.
      99926    2    1    2    0    0  0.71054273576E-14  0.00000000000E+00 -0.58952862341E+02  0.44532754716E+03  0.44140818330E+03 0.  0.
      99925    2    3    3    0    0 -0.40243183418E+02  0.87884187434E+02 -0.11960204198E+02  0.28040646836E+03  0.26294789751E+03 0.  0.
         25    1    4    4    0    0  0.18462451649E+02  0.29467855912E+02  0.88495591239E+00  0.12983646599E+03  0.12509000000E+03 0.  0.
         25    1    4    4    0    0 -0.58705635067E+02  0.58416331522E+02 -0.12845160111E+02  0.15057000238E+03  0.12509000000E+03 0.  0.
         25    1    3    3    0    0  0.40243183418E+02 -0.87884187434E+02 -0.46992658143E+02  0.16492107880E+03  0.12509000000E+03 0.  0.
<mgrwt>
<rscale>  2 0.44140818E+03</rscale>
<asrwt>0</asrwt>
<pdfrwt beam="1">  1       21 0.28409904E-01 0.44140818E+03</pdfrwt>
<pdfrwt beam="2">  1       21 0.37079442E-01 0.44140818E+03</pdfrwt>
<totfact> 0.77309330E+04</totfact>
</mgrwt>
</event>
<event>
 7    0  0.4752811E-002  0.4565814E+03  0.7546771E-02  0.1025777E+00
         21   -1    0    0  502  501  0.00000000000E+00  0.00000000000E+00  0.84093618331E+02  0.84093618331E+02  0.00000000000E+00 0. -1.
         21   -1    0    0  501  502 -0.00000000000E+00 -0.00000000000E+00 -0.61974556899E+03  0.61974556899E+03  0.00000000000E+00 0. -1.
      99926    2    1    2    0    0  0.14210854715E-13  0.00000000000E+00 -0.53565195066E+03  0.70383918732E+03  0.45658141592E+03 0.  0.
      99925    2    3    3    0    0  0.69717822743E+02  0.39854485885E+02 -0.20824575224E+03  0.34426821837E+03  0.26211706926E+03 0.  0.
         25    1    4    4    0    0  0.64257668886E+02  0.45513828572E+02 -0.98024521831E+02  0.17736085132E+03  0.12509000000E+03 0.  0.
         25    1    3    3    0    0 -0.69717822743E+02 -0.39854485885E+02 -0.32740619842E+03  0.35957096896E+03  0.12509000000E+03 0.  0.
         25    1    4    4    0    0  0.54601538571E+01 -0.56593426875E+01 -0.11022123041E+03  0.16690736704E+03  0.12509000000E+03 0.  0.
<mgrwt>
<rscale>  2 0.45658142E+03</rscale>
<asrwt>0</asrwt>
<pdfrwt beam="1">  1       21 0.12366709E-01 0.45658142E+03</pdfrwt>
<pdfrwt beam="2">  1       21 0.91139051E-01 0.45658142E+03</pdfrwt>
<totfact> 0.52044328E+04</totfact>
</mgrwt>
</event>
<event>
 7    0  0.4752811E-002  0.4454406E+03  0.7546771E-02  0.1029090E+00
         21   -1    0    0  502  501  0.00000000000E+00  0.00000000000E+00  0.24182028563E+03  0.24182028563E+03  0.00000000000E+00 0. -1.
         21   -1    0    0  501  502 -0.00000000000E+00 -0.00000000000E+00 -0.20512895104E+03  0.20512895104E+03  0.00000000000E+00 0. -1.
      99926    2    1    2    0    0 -0.35527136788E-14  0.00000000000E+00  0.36691334588E+02  0.44694923667E+03  0.44544064265E+03 0.  0.
      99925    2    3    3    0    0 -0.30330647062E+02 -0.96485274944E+02 -0.69399564517E+00  0.28179922168E+03  0.26302274289E+03 0.  0.
         25    1    3    3    0    0  0.30330647062E+02  0.96485274944E+02  0.37385330234E+02  0.16515001498E+03  0.12509000000E+03 0.  0.
         25    1    4    4    0    0 -0.23750186733E+02 -0.28581223823E+02  0.34612986030E+02  0.13500564665E+03  0.12509000000E+03 0.  0.
         25    1    4    4    0    0 -0.65804603294E+01 -0.67904051121E+02 -0.35306981675E+02  0.14679357504E+03  0.12509000000E+03 0.  0.
<mgrwt>
<rscale>  2 0.44544064E+03</rscale>
<asrwt>0</asrwt>
<pdfrwt beam="1">  1       21 0.35561807E-01 0.44544064E+03</pdfrwt>
<pdfrwt beam="2">  1       21 0.30166022E-01 0.44544064E+03</pdfrwt>
<totfact> 0.74674737E+04</totfact>
</mgrwt>
</event>
<event>
 7    0  0.4752811E-002  0.4551268E+03  0.7546771E-02  0.1026204E+00
         21   -1    0    0  502  501  0.00000000000E+00  0.00000000000E+00  0.17465161197E+02  0.17465161197E+02  0.00000000000E+00 0. -1.
         21   -1    0    0  501  502 -0.00000000000E+00 -0.00000000000E+00 -0.29650509709E+04  0.29650509709E+04  0.00000000000E+00 0. -1.
      99926    2    1    2    0    0  0.00000000000E+00  0.00000000000E+00 -0.29475858097E+04  0.29825161321E+04  0.45512676548E+03 0.  0.
      99925    2    3    3    0    0 -0.73243028497E+02  0.25480357058E+02 -0.13129552948E+04  0.13412732439E+04  0.26296105938E+03 0.  0.
         25    1    3    3    0    0  0.73243028497E+02 -0.25480357058E+02 -0.16346305149E+04  0.16412428882E+04  0.12509000000E+03 0.  0.
         25    1    4    4    0    0 -0.16065961262E+02  0.15469969124E+02 -0.45931937899E+03  0.47657028345E+03  0.12509000000E+03 0.  0.
         25    1    4    4    0    0 -0.57177067235E+02  0.10010387934E+02 -0.85363591585E+03  0.86470296046E+03  0.12509000000E+03 0.  0.
<mgrwt>
<rscale>  2 0.45512677E+03</rscale>
<asrwt>0</asrwt>
<pdfrwt beam="1">  1       21 0.25684083E-02 0.45512677E+03</pdfrwt>
<pdfrwt beam="2">  1       21 0.43603652E+00 0.45512677E+03</pdfrwt>
<totfact> 0.33425516E+03</totfact>
</mgrwt>
</event>
<event>
 7    0  0.4752811E-002  0.4546324E+03  0.7546771E-02  0.1026350E+00
         21   -1    0    0  502  501  0.00000000000E+00  0.00000000000E+00  0.32292854505E+03  0.32292854505E+03  0.00000000000E+00 0.  1.
         21   -1    0    0  501  502 -0.00000000000E+00 -0.00000000000E+00 -0.16001268979E+03  0.16001268979E+03  0.00000000000E+00 0.  1.
      99926    2    1    2    0    0  0.00000000000E+00  0.71054273576E-14  0.16291585526E+03  0.48294123484E+03  0.45463244541E+03 0.  0.
      99925    2    3    3    0    0 -0.80805559253E+02  0.51888587470E+02  0.16559694577E+03  0.32521786859E+03  0.26291129623E+03 0.  0.
         25    1    4    4    0    0 -0.57053098387E+02  0.48891028767E+02  0.53082024984E+02  0.15527587773E+03  0.12509000000E+03 0.  0.
         25    1    3    3    0    0  0.80805559253E+02 -0.51888587470E+02 -0.26810905178E+01  0.15772336625E+03  0.12509000000E+03 0.  0.
         25    1    4    4    0    0 -0.23752460865E+02  0.29975587029E+01  0.11251492079E+03  0.16994199085E+03  0.12509000000E+03 0.  0.
<mgrwt>
<rscale>  2 0.45463245E+03</rscale>
<asrwt>0</asrwt>
<pdfrwt beam="1">  1       21 0.47489492E-01 0.45463245E+03</pdfrwt>
<pdfrwt beam="2">  1       21 0.23531278E-01 0.45463245E+03</pdfrwt>
<totfact> 0.66680960E+04</totfact>
</mgrwt>
</event>
<event>
 7    0  0.4752811E-002  0.4543555E+03  0.7546771E-02  0.1026431E+00
         21   -1    0    0  502  501  0.00000000000E+00  0.00000000000E+00  0.34520592591E+02  0.34520592591E+02  0.00000000000E+00 0. -1.
         21   -1    0    0  501  502 -0.00000000000E+00 -0.00000000000E+00 -0.14950418346E+04  0.14950418346E+04  0.00000000000E+00 0. -1.
      99926    2    1    2    0    0  0.00000000000E+00 -0.26645352591E-14 -0.14605212420E+04  0.15295624272E+04  0.45435549992E+03 0.  0.
      99925    2    3    3    0    0  0.89615565187E+02 -0.13185288529E+01 -0.69455030100E+03  0.74828675330E+03  0.26362901301E+03 0.  0.
         25    1    4    4    0    0  0.74179029395E+02 -0.29040602801E+02 -0.33813363324E+03  0.36922587537E+03  0.12509000000E+03 0.  0.
         25    1    3    3    0    0 -0.89615565187E+02  0.13185288529E+01 -0.76597094098E+03  0.78127567386E+03  0.12509000000E+03 0.  0.
         25    1    4    4    0    0  0.15436535793E+02  0.27722073948E+02 -0.35641666776E+03  0.37906087793E+03  0.12509000000E+03 0.  0.
<mgrwt>
<rscale>  2 0.45435550E+03</rscale>
<asrwt>0</asrwt>
<pdfrwt beam="1">  1       21 0.50765582E-02 0.45435550E+03</pdfrwt>
<pdfrwt beam="2">  1       21 0.21985907E+00 0.45435550E+03</pdfrwt>
<totfact> 0.23179624E+04</totfact>
</mgrwt>
</event>
<event>
 7    0  0.4752811E-002  0.4536179E+03  0.7546771E-02  0.1026649E+00
         21   -1    0    0  502  501  0.00000000000E+00  0.00000000000E+00  0.38406159783E+03  0.38406159783E+03  0.00000000000E+00 0.  1.
         21   -1    0    0  501  502 -0.00000000000E+00 -0.00000000000E+00 -0.13394284963E+03  0.13394284963E+03  0.00000000000E+00 0.  1.
      99926    2    1    2    0    0  0.22759572005E-14  0.14210854715E-13  0.25011874820E+03  0.51800444747E+03  0.45361792225E+03 0.  0.
      99925    2    3    3    0    0 -0.46856952785E+00 -0.86955216148E+02  0.23784622520E+03  0.36516612736E+03  0.26308562209E+03 0.  0.
         25    1    4    4    0    0  0.31935090041E+02 -0.17353810312E+02  0.11527263777E+03  0.17394336385E+03  0.12509000000E+03 0.  0.
         25    1    4    4    0    0 -0.32403659569E+02 -0.69601405836E+02  0.12257358743E+03  0.19122276351E+03  0.12509000000E+03 0.  0.
         25    1    3    3    0    0  0.46856952785E+00  0.86955216148E+02  0.12272523002E+02  0.15283832011E+03  0.12509000000E+03 0.  0.
<mgrwt>
<rscale>  2 0.45361792E+03</rscale>
<asrwt>0</asrwt>
<pdfrwt beam="1">  1       21 0.56479647E-01 0.45361792E+03</pdfrwt>
<pdfrwt beam="2">  1       21 0.19697478E-01 0.45361792E+03</pdfrwt>
<totfact> 0.64730330E+04</totfact>
</mgrwt>
</event>
<event>
 7    0  0.4752811E-002  0.4520766E+03  0.7546771E-02  0.1027105E+00
         21   -1    0    0  502  501  0.00000000000E+00  0.00000000000E+00  0.22072833327E+03  0.22072833327E+03  0.00000000000E+00 0. -1.
         21   -1    0    0  501  502 -0.00000000000E+00 -0.00000000000E+00 -0.23147604765E+03  0.23147604765E+03  0.00000000000E+00 0. -1.
      99926    2    1    2    0    0  0.26645352591E-14  0.35527136788E-14 -0.10747714385E+02  0.45220438092E+03  0.45207664036E+03 0.  0.
      99925    2    3    3    0    0  0.73316205544E+01  0.14404893623E+02 -0.11472276645E+03  0.28874315257E+03  0.26448070136E+03 0.  0.
         25    1    3    3    0    0 -0.73316205544E+01 -0.14404893623E+02  0.10397505207E+03  0.16346122835E+03  0.12509000000E+03 0.  0.
         25    1    4    4    0    0  0.23964139549E+02  0.40884678620E+02 -0.39547909338E+02  0.13948972064E+03  0.12509000000E+03 0.  0.
         25    1    4    4    0    0 -0.16632518995E+02 -0.26479784996E+02 -0.75174857114E+02  0.14925343193E+03  0.12509000000E+03 0.  0.
<mgrwt>
<rscale>  2 0.45207664E+03</rscale>
<asrwt>0</asrwt>
<pdfrwt beam="1">  1       21 0.32460049E-01 0.45207664E+03</pdfrwt>
<pdfrwt beam="2">  1       21 0.34040595E-01 0.45207664E+03</pdfrwt>
<totfact> 0.70378418E+04</totfact>
</mgrwt>
</event>
<event>
 7    0  0.4752811E-002  0.4579289E+03  0.7546771E-02  0.1025384E+00
         21   -1    0    0  502  501  0.00000000000E+00  0.00000000000E+00  0.11581527024E+04  0.11581527024E+04  0.00000000000E+00 0. -1.
         21   -1    0    0  501  502 -0.00000000000E+00 -0.00000000000E+00 -0.45265804192E+02  0.45265804192E+02  0.00000000000E+00 0. -1.
      99926    2    1    2    0    0 -0.71054273576E-14  0.00000000000E+00  0.11128868982E+04  0.12034185066E+04  0.45792887418E+03 0.  0.
      99925    2    3    3    0    0 -0.47379375407E+02  0.18399496823E+02  0.97221800315E+03  0.10084349359E+04  0.26296354813E+03 0.  0.
         25    1    3    3    0    0  0.47379375407E+02 -0.18399496823E+02  0.14066889509E+03  0.19498357070E+03  0.12509000000E+03 0.  0.
         25    1    4    4    0    0 -0.64814433955E+02  0.97112415930E+01  0.51780778730E+03  0.53671932306E+03  0.12509000000E+03 0.  0.
         25    1    4    4    0    0  0.17435058549E+02  0.86882552302E+01  0.45441021585E+03  0.47171561286E+03  0.12509000000E+03 0.  0.
<mgrwt>
<rscale>  2 0.45792887E+03</rscale>
<asrwt>0</asrwt>
<pdfrwt beam="1">  1       21 0.17031655E+00 0.45792887E+03</pdfrwt>
<pdfrwt beam="2">  1       21 0.66567367E-02 0.45792887E+03</pdfrwt>
<totfact> 0.31326940E+04</totfact>
</mgrwt>
</event>
<event>
 7    0  0.4752811E-002  0.4677145E+03  0.7546771E-02  0.1022567E+00
         21   -1    0    0  502  501  0.00000000000E+00  0.00000000000E+00  0.55698406415E+03  0.55698406415E+03  0.00000000000E+00 0.  1.
         21   -1    0    0  501  502 -0.00000000000E+00 -0.00000000000E+00 -0.98188116342E+02  0.98188116342E+02  0.00000000000E+00 0.  1.
      99926    2    1    2    0    0 -0.88817841970E-15 -0.14210854715E-13  0.45879594781E+03  0.65517218049E+03  0.46771451161E+03 0.  0.
      99925    2    3    3    0    0  0.69258501796E+01 -0.72313212337E+02  0.42755869719E+03  0.50718420123E+03  0.26296807099E+03 0.  0.
         25    1    4    4    0    0  0.22558322937E+02 -0.32753902594E+00  0.21558345873E+03  0.25026530122E+03  0.12509000000E+03 0.  0.
         25    1    3    3    0    0 -0.69258501796E+01  0.72313212337E+02  0.31237250623E+02  0.14798797926E+03  0.12509000000E+03 0.  0.
         25    1    4    4    0    0 -0.15632472758E+02 -0.71985673311E+02  0.21197523845E+03  0.25691890001E+03  0.12509000000E+03 0.  0.
<mgrwt>
<rscale>  2 0.46771451E+03</rscale>
<asrwt>0</asrwt>
<pdfrwt beam="1">  1       21 0.81909420E-01 0.46771451E+03</pdfrwt>
<pdfrwt beam="2">  1       21 0.14439429E-01 0.46771451E+03</pdfrwt>
<totfact> 0.50179034E+04</totfact>
</mgrwt>
</event>
<event>
 7    0  0.4752811E-002  0.4601865E+03  0.7546771E-02  0.1024727E+00
         21   -1    0    0  502  501  0.00000000000E+00  0.00000000000E+00  0.15675735595E+03  0.15675735595E+03  0.00000000000E+00 0.  1.
         21   -1    0    0  501  502 -0.00000000000E+00 -0.00000000000E+00 -0.33773789750E+03  0.33773789750E+03  0.00000000000E+00 0.  1.
      99926    2    1    2    0    0  0.00000000000E+00  0.00000000000E+00 -0.18098054155E+03  0.49449525344E+03  0.46018648313E+03 0.  0.
      99925    2    3    3    0    0 -0.64898923091E+01 -0.40292066198E+02  0.52510954142E+01  0.26647047407E+03  0.26327432508E+03 0.  0.
         25    1    4    4    0    0 -0.34239758553E+02 -0.42057421205E+02 -0.13316180772E+02  0.13698911093E+03  0.12509000000E+03 0.  0.
         25    1    3    3    0    0  0.64898923091E+01  0.40292066198E+02 -0.18623163697E+03  0.22802477937E+03  0.12509000000E+03 0.  0.
         25    1    4    4    0    0  0.27749866244E+02  0.17653550067E+01  0.18567276187E+02  0.12948136314E+03  0.12509000000E+03 0.  0.
<mgrwt>
<rscale>  2 0.46018648E+03</rscale>
<asrwt>0</asrwt>
<pdfrwt beam="1">  1       21 0.23052553E-01 0.46018648E+03</pdfrwt>
<pdfrwt beam="2">  1       21 0.49667337E-01 0.46018648E+03</pdfrwt>
<totfact> 0.63023962E+04</totfact>
</mgrwt>
</event>
<event>
 6    0  0.4752811E-002  0.4584971E+03  0.7546771E-02  0.1025218E+00
         21   -1    0    0  502  501  0.00000000000E+00  0.00000000000E+00  0.13920988670E+04  0.13920988670E+04  0.00000000000E+00 0. -1.
         21   -1    0    0  501  502 -0.00000000000E+00 -0.00000000000E+00 -0.37752279379E+02  0.37752279379E+02  0.00000000000E+00 0. -1.
      99926    2    1    2    0    0 -0.71054273576E-14  0.00000000000E+00  0.13543465876E+04  0.14298511464E+04  0.45849713347E+03 0.  0.
         25    1    3    3    0    0  0.35358445059E+02 -0.80638326160E+01  0.15763868823E+03  0.20448156191E+03  0.12509000000E+03 0.  0.
         25    1    3    3    0    0 -0.33879445935E+02  0.36319706017E+02  0.65532547804E+03  0.66900368323E+03  0.12509000000E+03 0.  0.
         25    1    3    3    0    0 -0.14789991238E+01 -0.28255873401E+02  0.54138242134E+03  0.55636590123E+03  0.12509000000E+03 0.  0.
<mgrwt>
<rscale>  2 0.45849713E+03</rscale>
<asrwt>0</asrwt>
<pdfrwt beam="1">  1       21 0.20472039E+00 0.45849713E+03</pdfrwt>
<pdfrwt beam="2">  1       21 0.55518067E-02 0.45849713E+03</pdfrwt>
<totfact> 0.24864745E+04</totfact>
</mgrwt>
</event>
<event>
 7    0  0.4752811E-002  0.4416427E+03  0.7546771E-02  0.1030244E+00
         21   -1    0    0  502  501  0.00000000000E+00  0.00000000000E+00  0.47701460272E+02  0.47701460272E+02  0.00000000000E+00 0. -1.
         21   -1    0    0  501  502 -0.00000000000E+00 -0.00000000000E+00 -0.10222341713E+04  0.10222341713E+04  0.00000000000E+00 0. -1.
      99926    2    1    2    0    0  0.00000000000E+00  0.00000000000E+00 -0.97453271105E+03  0.10699356316E+04  0.44164267326E+03 0.  0.
      99925    2    3    3    0    0  0.94580250456E+02 -0.30945451406E+02 -0.59215753178E+03  0.65549464598E+03  0.26290615002E+03 0.  0.
         25    1    4    4    0    0  0.82030580029E+02 -0.31159263793E+02 -0.36854481075E+03  0.39896453654E+03  0.12509000000E+03 0.  0.
         25    1    4    4    0    0  0.12549670427E+02  0.21381238684E+00 -0.22361272103E+03  0.25653010944E+03  0.12509000000E+03 0.  0.
         25    1    3    3    0    0 -0.94580250456E+02  0.30945451406E+02 -0.38237517926E+03  0.41444098561E+03  0.12509000000E+03 0.  0.
<mgrwt>
<rscale>  2 0.44164267E+03</rscale>
<asrwt>0</asrwt>
<pdfrwt beam="1">  1       21 0.70149212E-02 0.44164267E+03</pdfrwt>
<pdfrwt beam="2">  1       21 0.15032854E+00 0.44164267E+03</pdfrwt>
<totfact> 0.40626638E+04</totfact>
</mgrwt>
</event>
<event>
 7    0  0.4752811E-002  0.4508629E+03  0.7546771E-02  0.1027465E+00
         21   -1    0    0  502  501  0.00000000000E+00  0.00000000000E+00  0.90383814493E+02  0.90383814493E+02  0.00000000000E+00 0.  1.
         21   -1    0    0  501  502 -0.00000000000E+00 -0.00000000000E+00 -0.56226149350E+03  0.56226149350E+03  0.00000000000E+00 0.  1.
      99926    2    1    2    0    0 -0.14210854715E-13  0.00000000000E+00 -0.47187767901E+03  0.65264530799E+03  0.45086289945E+03 0.  0.
      99925    2    3    3    0    0 -0.10356544191E+03  0.34308129576E+02 -0.30725518595E+03  0.41886994181E+03  0.26295138400E+03 0.  0.
         25    1    4    4    0    0 -0.51140045713E+02  0.22943035166E+02 -0.95189394872E+02  0.16688384024E+03  0.12509000000E+03 0.  0.
         25    1    3    3    0    0  0.10356544191E+03 -0.34308129576E+02 -0.16462249305E+03  0.23377536618E+03  0.12509000000E+03 0.  0.
         25    1    4    4    0    0 -0.52425396200E+02  0.11365094409E+02 -0.21206579108E+03  0.25198610157E+03  0.12509000000E+03 0.  0.
<mgrwt>
<rscale>  2 0.45086290E+03</rscale>
<asrwt>0</asrwt>
<pdfrwt beam="1">  1       21 0.13291738E-01 0.45086290E+03</pdfrwt>
<pdfrwt beam="2">  1       21 0.82685511E-01 0.45086290E+03</pdfrwt>
<totfact> 0.57399690E+04</totfact>
</mgrwt>
</event>
<event>
 7    0  0.4752811E-002  0.4526461E+03  0.7546771E-02  0.1026936E+00
         21   -1    0    0  502  501  0.00000000000E+00  0.00000000000E+00  0.35411490736E+03  0.35411490736E+03  0.00000000000E+00 0.  1.
         21   -1    0    0  501  502 -0.00000000000E+00 -0.00000000000E+00 -0.14464830963E+03  0.14464830963E+03  0.00000000000E+00 0.  1.
      99926    2    1    2    0    0  0.00000000000E+00  0.35527136788E-14  0.20946659773E+03  0.49876321699E+03  0.45264609914E+03 0.  0.
      99925    2    3    3    0    0 -0.71047309594E+02 -0.19482638631E+02  0.38781769796E+02  0.27469154990E+03  0.26177113766E+03 0.  0.
         25    1    4    4    0    0 -0.50096309155E+02 -0.42554690121E+02  0.48712862744E+01  0.14139228894E+03  0.12509000000E+03 0.  0.
         25    1    4    4    0    0 -0.20951000438E+02  0.23072051490E+02  0.33910483522E+02  0.13329926096E+03  0.12509000000E+03 0.  0.
         25    1    3    3    0    0  0.71047309594E+02  0.19482638631E+02  0.17068482793E+03  0.22407166709E+03  0.12509000000E+03 0.  0.
<mgrwt>
<rscale>  2 0.45264610E+03</rscale>
<asrwt>0</asrwt>
<pdfrwt beam="1">  1       21 0.52075721E-01 0.45264610E+03</pdfrwt>
<pdfrwt beam="2">  1       21 0.21271810E-01 0.45264610E+03</pdfrwt>
<totfact> 0.66593283E+04</totfact>
</mgrwt>
</event>
<event>
 7    0  0.4752811E-002  0.4548722E+03  0.7546771E-02  0.1026279E+00
         21   -1    0    0  502  501  0.00000000000E+00  0.00000000000E+00  0.61420113051E+03  0.61420113051E+03  0.00000000000E+00 0. -1.
         21   -1    0    0  501  502 -0.00000000000E+00 -0.00000000000E+00 -0.84218643950E+02  0.84218643950E+02  0.00000000000E+00 0. -1.
      99926    2    1    2    0    0  0.00000000000E+00  0.88817841970E-15  0.52998248656E+03  0.69841977446E+03  0.45487222964E+03 0.  0.
      99925    2    3    3    0    0  0.10022351046E+03  0.44067149347E+01  0.25346209412E+03  0.37877120694E+03  0.26298369315E+03 0.  0.
         25    1    4    4    0    0  0.68435913002E+02  0.36063894851E+02  0.15258763239E+03  0.21193058382E+03  0.12509000000E+03 0.  0.
         25    1    3    3    0    0 -0.10022351046E+03 -0.44067149347E+01  0.27652039243E+03  0.31964856752E+03  0.12509000000E+03 0.  0.
         25    1    4    4    0    0  0.31787597456E+02 -0.31657179916E+02  0.10087446173E+03  0.16684062312E+03  0.12509000000E+03 0.  0.
<mgrwt>
<rscale>  2 0.45487223E+03</rscale>
<asrwt>0</asrwt>
<pdfrwt beam="1">  1       21 0.90323693E-01 0.45487223E+03</pdfrwt>
<pdfrwt beam="2">  1       21 0.12385095E-01 0.45487223E+03</pdfrwt>
<totfact> 0.53042161E+04</totfact>
</mgrwt>
</event>
<event>
 7    0  0.4752811E-002  0.4481258E+03  0.7546771E-02  0.1028282E+00
         21   -1    0    0  502  501  0.00000000000E+00  0.00000000000E+00  0.53808158942E+02  0.53808158942E+02  0.00000000000E+00 0.  1.
         21   -1    0    0  501  502 -0.00000000000E+00 -0.00000000000E+00 -0.93302187441E+03  0.93302187441E+03  0.00000000000E+00 0.  1.
      99926    2    1    2    0    0 -0.71054273576E-14  0.00000000000E+00 -0.87921371547E+03  0.98683003336E+03  0.44812582749E+03 0.  0.
      99925    2    3    3    0    0  0.52825834983E+02  0.88296629169E+02 -0.49461197470E+03  0.56951376160E+03  0.26290312964E+03 0.  0.
         25    1    4    4    0    0  0.32035525218E+01  0.57703361316E+02 -0.30796461392E+03  0.33738650267E+03  0.12509000000E+03 0.  0.
         25    1    4    4    0    0  0.49622282462E+02  0.30593267854E+02 -0.18664736077E+03  0.23212725893E+03  0.12509000000E+03 0.  0.
         25    1    3    3    0    0 -0.52825834983E+02 -0.88296629169E+02 -0.38460174078E+03  0.41731627176E+03  0.12509000000E+03 0.  0.
<mgrwt>
<rscale>  2 0.44812583E+03</rscale>
<asrwt>0</asrwt>
<pdfrwt beam="1">  1       21 0.79129643E-02 0.44812583E+03</pdfrwt>
<pdfrwt beam="2">  1       21 0.13720910E+00 0.44812583E+03</pdfrwt>
<totfact> 0.41887220E+04</totfact>
</mgrwt>
</event>
<event>
 7    0  0.4752811E-002  0.4628080E+03  0.7546771E-02  0.1023970E+00
         21   -1    0    0  502  501  0.00000000000E+00  0.00000000000E+00  0.31189466910E+02  0.31189466910E+02  0.00000000000E+00 0. -1.
         21   -1    0    0  501  502 -0.00000000000E+00 -0.00000000000E+00 -0.17168556314E+04  0.17168556314E+04  0.00000000000E+00 0. -1.
      99926    2    1    2    0    0  0.00000000000E+00  0.00000000000E+00 -0.16856661645E+04  0.17480450983E+04  0.46280800298E+03 0.  0.
      99925    2    3    3    0    0 -0.95391070540E+02  0.51735995622E+02 -0.12554573419E+04  0.12870643951E+04  0.26188843095E+03 0.  0.
         25    1    4    4    0    0 -0.83093560074E+02  0.33098652758E+02 -0.59915339164E+03  0.61857283755E+03  0.12509000000E+03 0.  0.
         25    1    3    3    0    0  0.95391070540E+02 -0.51735995622E+02 -0.43020882259E+03  0.46098070319E+03  0.12509000000E+03 0.  0.
         25    1    4    4    0    0 -0.12297510466E+02  0.18637342863E+02 -0.65630395024E+03  0.66849155755E+03  0.12509000000E+03 0.  0.
<mgrwt>
<rscale>  2 0.46280800E+03</rscale>
<asrwt>0</asrwt>
<pdfrwt beam="1">  1       21 0.45866858E-02 0.46280800E+03</pdfrwt>
<pdfrwt beam="2">  1       21 0.25247880E+00 0.46280800E+03</pdfrwt>
<totfact> 0.17212238E+04</totfact>
</mgrwt>
</event>
<event>
 7    0  0.4752811E-002  0.4471323E+03  0.7546771E-02  0.1028581E+00
         21   -1    0    0  502  501  0.00000000000E+00  0.00000000000E+00  0.51730402103E+03  0.51730402103E+03  0.00000000000E+00 0. -1.
         21   -1    0    0  501  502 -0.00000000000E+00 -0.00000000000E+00 -0.96619806547E+02  0.96619806547E+02  0.00000000000E+00 0. -1.
      99926    2    1    2    0    0  0.00000000000E+00 -0.48849813084E-14  0.42068421449E+03  0.61392382758E+03  0.44713225980E+03 0.  0.
      99925    2    3    3    0    0  0.72791396744E+02  0.35242610212E+01  0.16189073598E+03  0.31738954546E+03  0.26309029879E+03 0.  0.
         25    1    3    3    0    0 -0.72791396744E+02 -0.35242610212E+01  0.25879347850E+03  0.29653428212E+03  0.12509000000E+03 0.  0.
         25    1    4    4    0    0  0.35882111672E+02  0.38780770947E+02  0.10081221296E+03  0.16912150814E+03  0.12509000000E+03 0.  0.
         25    1    4    4    0    0  0.36909285072E+02 -0.35256509926E+02  0.61078523023E+02  0.14826803732E+03  0.12509000000E+03 0.  0.
<mgrwt>
<rscale>  2 0.44713226E+03</rscale>
<asrwt>0</asrwt>
<pdfrwt beam="1">  1       21 0.76074120E-01 0.44713226E+03</pdfrwt>
<pdfrwt beam="2">  1       21 0.14208795E-01 0.44713226E+03</pdfrwt>
<totfact> 0.61566575E+04</totfact>
</mgrwt>
</event>
<event>
 7    0  0.4752811E-002  0.4594579E+03  0.7546771E-02  0.1024939E+00
         21   -1    0    0  502  501  0.00000000000E+00  0.00000000000E+00  0.51756032502E+02  0.51756032502E+02  0.00000000000E+00 0.  1.
         21   -1    0    0  501  502 -0.00000000000E+00 -0.00000000000E+00 -0.10196956496E+04  0.10196956496E+04  0.00000000000E+00 0.  1.
      99926    2    1    2    0    0  0.00000000000E+00  0.00000000000E+00 -0.96793961709E+03  0.10714516821E+04  0.45945794664E+03 0.  0.
      99925    2    3    3    0    0 -0.24958654507E+02 -0.44405153422E+02 -0.85325848326E+03  0.89426809752E+03  0.26281293519E+03 0.  0.
         25    1    4    4    0    0 -0.42051440007E+01 -0.36521922238E+02 -0.30903834446E+03  0.33541577256E+03  0.12509000000E+03 0.  0.
         25    1    4    4    0    0 -0.20753510507E+02 -0.78832311845E+01 -0.54422013880E+03  0.55885232496E+03  0.12509000000E+03 0.  0.
         25    1    3    3    0    0  0.24958654507E+02  0.44405153422E+02 -0.11468113383E+03  0.17718358457E+03  0.12509000000E+03 0.  0.
<mgrwt>
<rscale>  2 0.45945795E+03</rscale>
<asrwt>0</asrwt>
<pdfrwt beam="1">  1       21 0.76111811E-02 0.45945795E+03</pdfrwt>
<pdfrwt beam="2">  1       21 0.14995525E+00 0.45945795E+03</pdfrwt>
<totfact> 0.35257395E+04</totfact>
</mgrwt>
</event>
<event>
 7    0  0.4752811E-002  0.4546609E+03  0.7546771E-02  0.1026341E+00
         21   -1    0    0  502  501  0.00000000000E+00  0.00000000000E+00  0.75290088441E+02  0.75290088441E+02  0.00000000000E+00 0.  1.
         21   -1    0    0  501  502 -0.00000000000E+00 -0.00000000000E+00 -0.68640014270E+03  0.68640014270E+03  0.00000000000E+00 0.  1.
      99926    2    1    2    0    0  0.00000000000E+00  0.14210854715E-13 -0.61111005426E+03  0.76169023114E+03  0.45466087340E+03 0.  0.
      99925    2    3    3    0    0  0.30168350620E+02  0.74208559395E+02 -0.51779570535E+03  0.58627040478E+03  0.26302767038E+03 0.  0.
         25    1    3    3    0    0 -0.30168350620E+02 -0.74208559395E+02 -0.93314348913E+02  0.17541982636E+03  0.12509000000E+03 0.  0.
         25    1    4    4    0    0  0.56696940731E+01  0.59458550102E+02 -0.33855007405E+03  0.36582936644E+03  0.12509000000E+03 0.  0.
         25    1    4    4    0    0  0.24498656547E+02  0.14750009293E+02 -0.17924563129E+03  0.22044103834E+03  0.12509000000E+03 0.  0.
<mgrwt>
<rscale>  2 0.45466087E+03</rscale>
<asrwt>0</asrwt>
<pdfrwt beam="1">  1       21 0.11072071E-01 0.45466087E+03</pdfrwt>
<pdfrwt beam="2">  1       21 0.10094120E+00 0.45466087E+03</pdfrwt>
<totfact> 0.49805746E+04</totfact>
</mgrwt>
</event>
<event>
 7    0  0.4752811E-002  0.4780824E+03  0.7546771E-02  0.1019664E+00
         21   -1    0    0  502  501  0.00000000000E+00  0.00000000000E+00  0.20608712709E+03  0.20608712709E+03  0.00000000000E+00 0. -1.
         21   -1    0    0  501  502 -0.00000000000E+00 -0.00000000000E+00 -0.27726473331E+03  0.27726473331E+03  0.00000000000E+00 0. -1.
      99926    2    1    2    0    0 -0.14210854715E-13 -0.14210854715E-13 -0.71177606215E+02  0.48335186039E+03  0.47808238759E+03 0.  0.
      99925    2    3    3    0    0 -0.90467680032E+02 -0.93182601949E+02 -0.75873718086E+02  0.30297181714E+03  0.26299753317E+03 0.  0.
         25    1    4    4    0    0 -0.51379109286E+02 -0.87223805360E+02 -0.28109719313E+02  0.16335687776E+03  0.12509000000E+03 0.  0.
         25    1    4    4    0    0 -0.39088570746E+02 -0.59587965886E+01 -0.47763998773E+02  0.13961493938E+03  0.12509000000E+03 0.  0.
         25    1    3    3    0    0  0.90467680032E+02  0.93182601949E+02  0.46961118708E+01  0.18038004325E+03  0.12509000000E+03 0.  0.
<mgrwt>
<rscale>  2 0.47808239E+03</rscale>
<asrwt>0</asrwt>
<pdfrwt beam="1">  1       21 0.30306931E-01 0.47808239E+03</pdfrwt>
<pdfrwt beam="2">  1       21 0.40774225E-01 0.47808239E+03</pdfrwt>
<totfact> 0.55554089E+04</totfact>
</mgrwt>
</event>
<event>
 7    0  0.4752811E-002  0.4393693E+03  0.7546771E-02  0.1030940E+00
         21   -1    0    0  502  501  0.00000000000E+00  0.00000000000E+00  0.14118406368E+04  0.14118406368E+04  0.00000000000E+00 0. -1.
         21   -1    0    0  501  502 -0.00000000000E+00 -0.00000000000E+00 -0.34183279349E+02  0.34183279349E+02  0.00000000000E+00 0. -1.
      99926    2    1    2    0    0  0.14210854715E-13 -0.35527136788E-14  0.13776573574E+04  0.14460239161E+04  0.43936928833E+03 0.  0.
      99925    2    3    3    0    0  0.84843609484E+02 -0.19980781841E+02  0.73269100559E+03  0.78328205626E+03  0.26286308275E+03 0.  0.
         25    1    4    4    0    0  0.30197233123E+02 -0.22925389896E+02  0.46158371289E+03  0.47973375793E+03  0.12509000000E+03 0.  0.
         25    1    4    4    0    0  0.54646376360E+02  0.29446080543E+01  0.27110729270E+03  0.30354829833E+03  0.12509000000E+03 0.  0.
         25    1    3    3    0    0 -0.84843609484E+02  0.19980781841E+02  0.64496635183E+03  0.66274185986E+03  0.12509000000E+03 0.  0.
<mgrwt>
<rscale>  2 0.43936929E+03</rscale>
<asrwt>0</asrwt>
<pdfrwt beam="1">  1       21 0.20762358E+00 0.43936929E+03</pdfrwt>
<pdfrwt beam="2">  1       21 0.50269538E-02 0.43936929E+03</pdfrwt>
<totfact> 0.28430172E+04</totfact>
</mgrwt>
</event>
<event>
 7    0  0.4752811E-002  0.4565375E+03  0.7546771E-02  0.1025790E+00
         21   -1    0    0  502  501  0.00000000000E+00  0.00000000000E+00  0.97404201139E+03  0.97404201139E+03  0.00000000000E+00 0.  1.
         21   -1    0    0  501  502 -0.00000000000E+00 -0.00000000000E+00 -0.53495243551E+02  0.53495243551E+02  0.00000000000E+00 0.  1.
      99926    2    1    2    0    0  0.00000000000E+00  0.35527136788E-14  0.92054676784E+03  0.10275372549E+04  0.45653746671E+03 0.  0.
      99925    2    3    3    0    0  0.11355764714E+03  0.12750079428E+02  0.55954599377E+03  0.62875539637E+03  0.26302799389E+03 0.  0.
         25    1    3    3    0    0 -0.11355764714E+03 -0.12750079428E+02  0.36100077406E+03  0.39878185857E+03  0.12509000000E+03 0.  0.
         25    1    4    4    0    0  0.13970212363E+02 -0.42108993094E+01  0.23985394540E+03  0.27090648152E+03  0.12509000000E+03 0.  0.
         25    1    4    4    0    0  0.99587434776E+02  0.16960978737E+02  0.31969204838E+03  0.35784891485E+03  0.12509000000E+03 0.  0.
<mgrwt>
<rscale>  2 0.45653747E+03</rscale>
<asrwt>0</asrwt>
<pdfrwt beam="1">  1       21 0.14324146E+00 0.45653747E+03</pdfrwt>
<pdfrwt beam="2">  1       21 0.78669482E-02 0.45653747E+03</pdfrwt>
<totfact> 0.37658512E+04</totfact>
</mgrwt>
</event>
<event>
 7    0  0.4752811E-002  0.4579347E+03  0.7546771E-02  0.1025382E+00
         21   -1    0    0  502  501  0.00000000000E+00  0.00000000000E+00  0.61915049776E+02  0.61915049776E+02  0.00000000000E+00 0. -1.
         21   -1    0    0  501  502 -0.00000000000E+00 -0.00000000000E+00 -0.84674156487E+03  0.84674156487E+03  0.00000000000E+00 0. -1.
      99926    2    1    2    0    0  0.00000000000E+00  0.00000000000E+00 -0.78482651510E+03  0.90865661465E+03  0.45793469463E+03 0.  0.
      99925    2    3    3    0    0  0.11518496004E+03 -0.13841391350E+02 -0.49689860062E+03  0.57397893214E+03  0.26283918298E+03 0.  0.
         25    1    3    3    0    0 -0.11518496004E+03  0.13841391350E+02 -0.28792791448E+03  0.33467768251E+03  0.12509000000E+03 0.  0.
         25    1    4    4    0    0  0.27517629771E+02 -0.35774026197E+02 -0.22876164904E+03  0.26460612440E+03  0.12509000000E+03 0.  0.
         25    1    4    4    0    0  0.87667330265E+02  0.21932634847E+02 -0.26813695157E+03  0.30937280774E+03  0.12509000000E+03 0.  0.
<mgrwt>
<rscale>  2 0.45793469E+03</rscale>
<asrwt>0</asrwt>
<pdfrwt beam="1">  1       21 0.91051553E-02 0.45793469E+03</pdfrwt>
<pdfrwt beam="2">  1       21 0.12452081E+00 0.45793469E+03</pdfrwt>
<totfact> 0.41890824E+04</totfact>
</mgrwt>
</event>
<event>
 7    0  0.4752811E-002  0.4571375E+03  0.7546771E-02  0.1025615E+00
         21   -1    0    0  502  501  0.00000000000E+00  0.00000000000E+00  0.29023515449E+03  0.29023515449E+03  0.00000000000E+00 0.  1.
         21   -1    0    0  501  502 -0.00000000000E+00 -0.00000000000E+00 -0.18000467081E+03  0.18000467081E+03  0.00000000000E+00 0.  1.
      99926    2    1    2    0    0 -0.14210854715E-13  0.88817841970E-15  0.11023048368E+03  0.47023982531E+03  0.45713754360E+03 0.  0.
      99925    2    3    3    0    0 -0.11416858164E+03  0.30232338363E+01  0.54709612672E+02  0.29198809266E+03  0.26309750960E+03 0.  0.
         25    1    4    4    0    0 -0.16739167327E+02 -0.46368265113E+01  0.81174775871E+01  0.12655078595E+03  0.12509000000E+03 0.  0.
         25    1    3    3    0    0  0.11416858164E+03 -0.30232338363E+01  0.55520871006E+02  0.17825173265E+03  0.12509000000E+03 0.  0.
         25    1    4    4    0    0 -0.97429414310E+02  0.76600603476E+01  0.46592135085E+02  0.16543730670E+03  0.12509000000E+03 0.  0.
<mgrwt>
<rscale>  2 0.45713754E+03</rscale>
<asrwt>0</asrwt>
<pdfrwt beam="1">  1       21 0.42681641E-01 0.45713754E+03</pdfrwt>
<pdfrwt beam="2">  1       21 0.26471275E-01 0.45713754E+03</pdfrwt>
<totfact> 0.66286833E+04</totfact>
</mgrwt>
</event>
<event>
 7    0  0.4752811E-002  0.4540093E+03  0.7546771E-02  0.1026533E+00
         21   -1    0    0  502  501  0.00000000000E+00  0.00000000000E+00  0.12650546023E+03  0.12650546023E+03  0.00000000000E+00 0.  1.
         21   -1    0    0  501  502 -0.00000000000E+00 -0.00000000000E+00 -0.40734305609E+03  0.40734305609E+03  0.00000000000E+00 0.  1.
      99926    2    1    2    0    0 -0.35527136788E-14  0.00000000000E+00 -0.28083759586E+03  0.53384851631E+03  0.45400934255E+03 0.  0.
      99925    2    3    3    0    0  0.21020232153E+02 -0.87816264239E+02 -0.25645248853E+03  0.37765732583E+03  0.26211377388E+03 0.  0.
         25    1    3    3    0    0 -0.21020232153E+02  0.87816264239E+02 -0.24385107335E+02  0.15619119048E+03  0.12509000000E+03 0.  0.
         25    1    4    4    0    0 -0.25177332821E+02 -0.36418794757E+02 -0.14393978440E+03  0.19577128577E+03  0.12509000000E+03 0.  0.
         25    1    4    4    0    0  0.46197564974E+02 -0.51397469482E+02 -0.11251270412E+03  0.18188604006E+03  0.12509000000E+03 0.  0.
<mgrwt>
<rscale>  2 0.45400934E+03</rscale>
<asrwt>0</asrwt>
<pdfrwt beam="1">  1       21 0.18603744E-01 0.45400934E+03</pdfrwt>
<pdfrwt beam="2">  1       21 0.59903390E-01 0.45400934E+03</pdfrwt>
<totfact> 0.63442602E+04</totfact>
</mgrwt>
</event>
<event>
 7    0  0.4752811E-002  0.4665308E+03  0.7546771E-02  0.1022904E+00
         21   -1    0    0  502  501  0.00000000000E+00  0.00000000000E+00  0.51023479945E+03  0.51023479945E+03  0.00000000000E+00 0. -1.
         21   -1    0    0  501  502 -0.00000000000E+00 -0.00000000000E+00 -0.10664256030E+03  0.10664256030E+03  0.00000000000E+00 0. -1.
      99926    2    1    2    0    0  0.00000000000E+00  0.14210854715E-13  0.40359223915E+03  0.61687735975E+03  0.46653079370E+03 0.  0.
      99925    2    3    3    0    0 -0.58695256200E+02 -0.86772246776E+02  0.33830049801E+03  0.44113585790E+03  0.26301912908E+03 0.  0.
         25    1    4    4    0    0 -0.38745691085E+01 -0.72451536585E+02  0.15336444738E+03  0.21078994107E+03  0.12509000000E+03 0.  0.
         25    1    4    4    0    0 -0.54820687092E+02 -0.14320710191E+02  0.18493605063E+03  0.23034591682E+03  0.12509000000E+03 0.  0.
         25    1    3    3    0    0  0.58695256200E+02  0.86772246776E+02  0.65291741138E+02  0.17574150185E+03  0.12509000000E+03 0.  0.
<mgrwt>
<rscale>  2 0.46653079E+03</rscale>
<asrwt>0</asrwt>
<pdfrwt beam="1">  1       21 0.75034528E-01 0.46653079E+03</pdfrwt>
<pdfrwt beam="2">  1       21 0.15682730E-01 0.46653079E+03</pdfrwt>
<totfact> 0.52686716E+04</totfact>
</mgrwt>
</event>
<event>
 7    0  0.4752811E-002  0.4616392E+03  0.7546771E-02  0.1024307E+00
         21   -1    0    0  502  501  0.00000000000E+00  0.00000000000E+00  0.15856589151E+04  0.15856589151E+04  0.00000000000E+00 0. -1.
         21   -1    0    0  501  502 -0.00000000000E+00 -0.00000000000E+00 -0.33599715382E+02  0.33599715382E+02  0.00000000000E+00 0. -1.
      99926    2    1    2    0    0  0.14210854715E-13  0.00000000000E+00  0.15520591997E+04  0.16192586304E+04  0.46163920214E+03 0.  0.
      99925    2    3    3    0    0 -0.91810479740E+02 -0.42235190999E+02  0.74909563630E+03  0.80035023034E+03  0.26306509333E+03 0.  0.
         25    1    4    4    0    0 -0.60799275681E+02 -0.20799820101E+02  0.49563127433E+03  0.51519613026E+03  0.12509000000E+03 0.  0.
         25    1    4    4    0    0 -0.31011204059E+02 -0.21435370898E+02  0.25346436198E+03  0.28515410008E+03  0.12509000000E+03 0.  0.
         25    1    3    3    0    0  0.91810479740E+02  0.42235190999E+02  0.80296356338E+03  0.81890840011E+03  0.12509000000E+03 0.  0.
<mgrwt>
<rscale>  2 0.46163920E+03</rscale>
<asrwt>0</asrwt>
<pdfrwt beam="1">  1       21 0.23318509E+00 0.46163920E+03</pdfrwt>
<pdfrwt beam="2">  1       21 0.49411357E-02 0.46163920E+03</pdfrwt>
<totfact> 0.19949665E+04</totfact>
</mgrwt>
</event>
<event>
 7    0  0.4752811E-002  0.4431570E+03  0.7546771E-02  0.1029783E+00
         21   -1    0    0  502  501  0.00000000000E+00  0.00000000000E+00  0.17308224435E+04  0.17308224435E+04  0.00000000000E+00 0. -1.
         21   -1    0    0  501  502 -0.00000000000E+00 -0.00000000000E+00 -0.28366307834E+02  0.28366307834E+02  0.00000000000E+00 0. -1.
      99926    2    1    2    0    0  0.00000000000E+00 -0.72164496601E-15  0.17024561357E+04  0.17591887514E+04  0.44315704774E+03 0.  0.
      99925    2    3    3    0    0  0.69678643213E+02  0.15870561565E+00  0.13778780408E+04  0.14044302613E+04  0.26271909893E+03 0.  0.
         25    1    4    4    0    0  0.64831232244E+02 -0.21024122934E+02  0.82055633619E+03  0.83282970131E+03  0.12509000000E+03 0.  0.
         25    1    3    3    0    0 -0.69678643213E+02 -0.15870561565E+00  0.32457809487E+03  0.35475849007E+03  0.12509000000E+03 0.  0.
         25    1    4    4    0    0  0.48474109695E+01  0.21182828550E+02  0.55732170466E+03  0.57160056001E+03  0.12509000000E+03 0.  0.
<mgrwt>
<rscale>  2 0.44315705E+03</rscale>
<asrwt>0</asrwt>
<pdfrwt beam="1">  1       21 0.25453264E+00 0.44315705E+03</pdfrwt>
<pdfrwt beam="2">  1       21 0.41715170E-02 0.44315705E+03</pdfrwt>
<totfact> 0.19817206E+04</totfact>
</mgrwt>
</event>
<event>
 7    0  0.4752811E-002  0.4543143E+03  0.7546771E-02  0.1026443E+00
         21   -1    0    0  502  501  0.00000000000E+00  0.00000000000E+00  0.16134947702E+03  0.16134947702E+03  0.00000000000E+00 0. -1.
         21   -1    0    0  501  502 -0.00000000000E+00 -0.00000000000E+00 -0.31980498180E+03  0.31980498180E+03  0.00000000000E+00 0. -1.
      99926    2    1    2    0    0  0.00000000000E+00  0.00000000000E+00 -0.15845550478E+03  0.48115445882E+03  0.45431428136E+03 0.  0.
      99925    2    3    3    0    0 -0.52801684571E+02 -0.60649943256E+02 -0.16485958555E+02  0.27555948401E+03  0.26304906176E+03 0.  0.
         25    1    4    4    0    0 -0.20811204866E+01 -0.39385684625E+02 -0.39520448433E+02  0.13698517132E+03  0.12509000000E+03 0.  0.
         25    1    4    4    0    0 -0.50720564084E+02 -0.21264258631E+02  0.23034489878E+02  0.13857431270E+03  0.12509000000E+03 0.  0.
         25    1    3    3    0    0  0.52801684571E+02  0.60649943256E+02 -0.14196954623E+03  0.20559497481E+03  0.12509000000E+03 0.  0.
<mgrwt>
<rscale>  2 0.45431428E+03</rscale>
<asrwt>0</asrwt>
<pdfrwt beam="1">  1       21 0.23727864E-01 0.45431428E+03</pdfrwt>
<pdfrwt beam="2">  1       21 0.47030145E-01 0.45431428E+03</pdfrwt>
<totfact> 0.66979996E+04</totfact>
</mgrwt>
</event>
<event>
 7    0  0.4752811E-002  0.4548055E+03  0.7546771E-02  0.1026299E+00
         21   -1    0    0  502  501  0.00000000000E+00  0.00000000000E+00  0.12829138690E+04  0.12829138690E+04  0.00000000000E+00 0.  1.
         21   -1    0    0  501  502 -0.00000000000E+00 -0.00000000000E+00 -0.40308249855E+02  0.40308249855E+02  0.00000000000E+00 0.  1.
      99926    2    1    2    0    0  0.00000000000E+00 -0.66613381478E-15  0.12426056191E+04  0.13232221188E+04  0.45480550908E+03 0.  0.
      99925    2    3    3    0    0  0.11094065403E+03 -0.17704851499E+01  0.84420531755E+03  0.89115583719E+03  0.26299267033E+03 0.  0.
         25    1    4    4    0    0  0.72762317835E+02  0.86827912109E+01  0.32934176320E+03  0.35983781186E+03  0.12509000000E+03 0.  0.
         25    1    4    4    0    0  0.38178336198E+02 -0.10453276361E+02  0.51486355435E+03  0.53131802533E+03  0.12509000000E+03 0.  0.
         25    1    3    3    0    0 -0.11094065403E+03  0.17704851499E+01  0.39840030156E+03  0.43206628162E+03  0.12509000000E+03 0.  0.
<mgrwt>
<rscale>  2 0.45480551E+03</rscale>
<asrwt>0</asrwt>
<pdfrwt beam="1">  1       21 0.18866378E+00 0.45480551E+03</pdfrwt>
<pdfrwt beam="2">  1       21 0.59276847E-02 0.45480551E+03</pdfrwt>
<totfact> 0.28490756E+04</totfact>
</mgrwt>
</event>
<event>
 7    0  0.4752811E-002  0.4620339E+03  0.7546771E-02  0.1024193E+00
         21   -1    0    0  502  501  0.00000000000E+00  0.00000000000E+00  0.98750703111E+03  0.98750703111E+03  0.00000000000E+00 0. -1.
         21   -1    0    0  501  502 -0.00000000000E+00 -0.00000000000E+00 -0.54044001986E+02  0.54044001986E+02  0.00000000000E+00 0. -1.
      99926    2    1    2    0    0 -0.17763568394E-14  0.00000000000E+00  0.93346302912E+03  0.10415510331E+04  0.46203390330E+03 0.  0.
      99925    2    3    3    0    0  0.80596833403E+01  0.37862773562E+02  0.83900085510E+03  0.88009156902E+03  0.26294521651E+03 0.  0.
         25    1    4    4    0    0 -0.13127882768E+02 -0.16247614891E+02  0.36339381151E+03  0.38488816121E+03  0.12509000000E+03 0.  0.
         25    1    4    4    0    0  0.21187566108E+02  0.54110388453E+02  0.47560704359E+03  0.49520340781E+03  0.12509000000E+03 0.  0.
         25    1    3    3    0    0 -0.80596833403E+01 -0.37862773562E+02  0.94462174021E+02  0.16145946407E+03  0.12509000000E+03 0.  0.
<mgrwt>
<rscale>  2 0.46203390E+03</rscale>
<asrwt>0</asrwt>
<pdfrwt beam="1">  1       21 0.14522161E+00 0.46203390E+03</pdfrwt>
<pdfrwt beam="2">  1       21 0.79476480E-02 0.46203390E+03</pdfrwt>
<totfact> 0.35594060E+04</totfact>
</mgrwt>
</event>
<event>
 7    0  0.4752811E-002  0.4512810E+03  0.7546771E-02  0.1027341E+00
         21   -1    0    0  502  501  0.00000000000E+00  0.00000000000E+00  0.15548628164E+03  0.15548628164E+03  0.00000000000E+00 0. -1.
         21   -1    0    0  501  502 -0.00000000000E+00 -0.00000000000E+00 -0.32744776217E+03  0.32744776217E+03  0.00000000000E+00 0. -1.
      99926    2    1    2    0    0  0.00000000000E+00  0.00000000000E+00 -0.17196148053E+03  0.48293404381E+03  0.45128099881E+03 0.  0.
      99925    2    3    3    0    0  0.60105071005E+02 -0.47734614253E+02 -0.19237966686E+03  0.33475974310E+03  0.26298847204E+03 0.  0.
         25    1    4    4    0    0  0.15688139690E+02 -0.43373826390E+01 -0.13208514958E+03  0.18264425930E+03  0.12509000000E+03 0.  0.
         25    1    4    4    0    0  0.44416931315E+02 -0.43397231614E+02 -0.60294517274E+02  0.15211548380E+03  0.12509000000E+03 0.  0.
         25    1    3    3    0    0 -0.60105071005E+02  0.47734614253E+02  0.20418186325E+02  0.14817430071E+03  0.12509000000E+03 0.  0.
<mgrwt>
<rscale>  2 0.45128100E+03</rscale>
<asrwt>0</asrwt>
<pdfrwt beam="1">  1       21 0.22865630E-01 0.45128100E+03</pdfrwt>
<pdfrwt beam="2">  1       21 0.48154082E-01 0.45128100E+03</pdfrwt>
<totfact> 0.68486838E+04</totfact>
</mgrwt>
</event>
<event>
 7    0  0.4752811E-002  0.4589882E+03  0.7546771E-02  0.1025075E+00
         21   -1    0    0  502  501  0.00000000000E+00  0.00000000000E+00  0.28741128517E+03  0.28741128517E+03  0.00000000000E+00 0. -1.
         21   -1    0    0  501  502 -0.00000000000E+00 -0.00000000000E+00 -0.18324797915E+03  0.18324797915E+03  0.00000000000E+00 0. -1.
      99926    2    1    2    0    0  0.00000000000E+00  0.00000000000E+00  0.10416330602E+03  0.47065926432E+03  0.45898817933E+03 0.  0.
      99925    2    3    3    0    0 -0.10449850379E+03  0.39965620889E+02  0.30558123181E+02  0.28740419839E+03  0.26296422991E+03 0.  0.
         25    1    4    4    0    0 -0.47368374525E+02 -0.14723333329E+02  0.36039634338E+02  0.13930866015E+03  0.12509000000E+03 0.  0.
         25    1    3    3    0    0  0.10449850379E+03 -0.39965620889E+02  0.73605182841E+02  0.18325506593E+03  0.12509000000E+03 0.  0.
         25    1    4    4    0    0 -0.57130129263E+02  0.54688954218E+02 -0.54815111561E+01  0.14809553824E+03  0.12509000000E+03 0.  0.
<mgrwt>
<rscale>  2 0.45898818E+03</rscale>
<asrwt>0</asrwt>
<pdfrwt beam="1">  1       21 0.42266366E-01 0.45898818E+03</pdfrwt>
<pdfrwt beam="2">  1       21 0.26948232E-01 0.45898818E+03</pdfrwt>
<totfact> 0.65296663E+04</totfact>
</mgrwt>
</event>
<event>
 7    0  0.4752811E-002  0.4210253E+03  0.7546771E-02  0.1036733E+00
         21   -1    0    0  502  501  0.00000000000E+00  0.00000000000E+00  0.26717069247E+03  0.26717069247E+03  0.00000000000E+00 0. -1.
         21   -1    0    0  501  502 -0.00000000000E+00 -0.00000000000E+00 -0.16586988651E+03  0.16586988651E+03  0.00000000000E+00 0. -1.
      99926    2    1    2    0    0 -0.44408920985E-15  0.71054273576E-14  0.10130080597E+03  0.43304057898E+03  0.42102528398E+03 0.  0.
      99925    2    3    3    0    0 -0.37317645319E+01  0.51428354566E+02  0.69578610213E+01  0.26809543331E+03  0.26299799963E+03 0.  0.
         25    1    4    4    0    0  0.18689215509E+02  0.61255062309E+02  0.48750870172E+01  0.14061558949E+03  0.12509000000E+03 0.  0.
         25    1    3    3    0    0  0.37317645319E+01 -0.51428354566E+02  0.94342944944E+02  0.16494514567E+03  0.12509000000E+03 0.  0.
         25    1    4    4    0    0 -0.22420980041E+02 -0.98267077427E+01  0.20827740041E+01  0.12747984381E+03  0.12509000000E+03 0.  0.
<mgrwt>
<rscale>  2 0.42102528E+03</rscale>
<asrwt>0</asrwt>
<pdfrwt beam="1">  1       21 0.39289808E-01 0.42102528E+03</pdfrwt>
<pdfrwt beam="2">  1       21 0.24392630E-01 0.42102528E+03</pdfrwt>
<totfact> 0.92909034E+04</totfact>
</mgrwt>
</event>
<event>
 7    0  0.4752811E-002  0.4543425E+03  0.7546771E-02  0.1026435E+00
         21   -1    0    0  502  501  0.00000000000E+00  0.00000000000E+00  0.41155028674E+03  0.41155028674E+03  0.00000000000E+00 0.  1.
         21   -1    0    0  501  502 -0.00000000000E+00 -0.00000000000E+00 -0.12539603110E+03  0.12539603110E+03  0.00000000000E+00 0.  1.
      99926    2    1    2    0    0  0.00000000000E+00  0.00000000000E+00  0.28615425564E+03  0.53694631784E+03  0.45434248120E+03 0.  0.
      99925    2    3    3    0    0 -0.52132293618E+02 -0.15095145330E+02  0.63602258215E+02  0.27594336937E+03  0.26297120831E+03 0.  0.
         25    1    3    3    0    0  0.52132293618E+02  0.15095145330E+02  0.22255199742E+03  0.26100294846E+03  0.12509000000E+03 0.  0.
         25    1    4    4    0    0 -0.43093416590E+02 -0.19876582206E+02  0.68569938822E+02  0.15033783850E+03  0.12509000000E+03 0.  0.
         25    1    4    4    0    0 -0.90388770279E+01  0.47814368763E+01 -0.49676806075E+01  0.12560553088E+03  0.12509000000E+03 0.  0.
<mgrwt>
<rscale>  2 0.45434248E+03</rscale>
<asrwt>0</asrwt>
<pdfrwt beam="1">  1       21 0.60522101E-01 0.45434248E+03</pdfrwt>
<pdfrwt beam="2">  1       21 0.18440593E-01 0.45434248E+03</pdfrwt>
<totfact> 0.63064986E+04</totfact>
</mgrwt>
</event>
<event>
 7    0  0.4752811E-002  0.4593206E+03  0.7546771E-02  0.1024978E+00
         21   -1    0    0  502  501  0.00000000000E+00  0.00000000000E+00  0.13267854021E+03  0.13267854021E+03  0.00000000000E+00 0.  1.
         21   -1    0    0  501  502 -0.00000000000E+00 -0.00000000000E+00 -0.39753123812E+03  0.39753123812E+03  0.00000000000E+00 0.  1.
      99926    2    1    2    0    0  0.00000000000E+00  0.00000000000E+00 -0.26485269791E+03  0.53020977833E+03  0.45932064774E+03 0.  0.
      99925    2    3    3    0    0 -0.95239671234E+02  0.37489502917E+02 -0.10012093910E+03  0.29942824036E+03  0.26297720600E+03 0.  0.
         25    1    4    4    0    0 -0.74897825610E+02  0.51637107899E+02 -0.55131296713E+02  0.16420427269E+03  0.12509000000E+03 0.  0.
         25    1    3    3    0    0  0.95239671234E+02 -0.37489502917E+02 -0.16473175881E+03  0.23078153796E+03  0.12509000000E+03 0.  0.
         25    1    4    4    0    0 -0.20341845625E+02 -0.14147604981E+02 -0.44989642388E+02  0.13522396767E+03  0.12509000000E+03 0.  0.
<mgrwt>
<rscale>  2 0.45932065E+03</rscale>
<asrwt>0</asrwt>
<pdfrwt beam="1">  1       21 0.19511550E-01 0.45932065E+03</pdfrwt>
<pdfrwt beam="2">  1       21 0.58460475E-01 0.45932065E+03</pdfrwt>
<totfact> 0.61073733E+04</totfact>
</mgrwt>
</event>
<event>
 7    0  0.4752811E-002  0.4570359E+03  0.7546771E-02  0.1025644E+00
         21   -1    0    0  502  501  0.00000000000E+00  0.00000000000E+00  0.14003079538E+04  0.14003079538E+04  0.00000000000E+00 0. -1.
         21   -1    0    0  501  502 -0.00000000000E+00 -0.00000000000E+00 -0.37292121301E+02  0.37292121301E+02  0.00000000000E+00 0. -1.
      99926    2    1    2    0    0  0.00000000000E+00  0.00000000000E+00  0.13630158325E+04  0.14376000751E+04  0.45703590262E+03 0.  0.
      99925    2    3    3    0    0  0.60725179281E+02 -0.93488178014E+02  0.76657798195E+03  0.81807347801E+03  0.26301107618E+03 0.  0.
         25    1    4    4    0    0  0.17691713204E+02 -0.41716237589E+02  0.26150304099E+03  0.29340175484E+03  0.12509000000E+03 0.  0.
         25    1    4    4    0    0  0.43033466077E+02 -0.51771940425E+02  0.50507494095E+03  0.52467172317E+03  0.12509000000E+03 0.  0.
         25    1    3    3    0    0 -0.60725179281E+02  0.93488178014E+02  0.59643785053E+03  0.61952659706E+03  0.12509000000E+03 0.  0.
<mgrwt>
<rscale>  2 0.45703590E+03</rscale>
<asrwt>0</asrwt>
<pdfrwt beam="1">  1       21 0.20592761E+00 0.45703590E+03</pdfrwt>
<pdfrwt beam="2">  1       21 0.54841364E-02 0.45703590E+03</pdfrwt>
<totfact> 0.24950032E+04</totfact>
</mgrwt>
</event>
<event>
 7    0  0.4752811E-002  0.4545766E+03  0.7546771E-02  0.1026366E+00
         21   -1    0    0  502  501  0.00000000000E+00  0.00000000000E+00  0.10967274892E+03  0.10967274892E+03  0.00000000000E+00 0.  1.
         21   -1    0    0  501  502 -0.00000000000E+00 -0.00000000000E+00 -0.47103740398E+03  0.47103740398E+03  0.00000000000E+00 0.  1.
      99926    2    1    2    0    0  0.17763568394E-14  0.17763568394E-14 -0.36136465505E+03  0.58071015290E+03  0.45457658075E+03 0.  0.
      99925    2    3    3    0    0  0.41507609737E+01 -0.14825438629E+02 -0.36988905811E+03  0.45438835750E+03  0.26346506727E+03 0.  0.
         25    1    4    4    0    0  0.38374985142E+02 -0.59218055394E+01 -0.15178737662E+03  0.20048596726E+03  0.12509000000E+03 0.  0.
         25    1    4    4    0    0 -0.34224224168E+02 -0.89036330891E+01 -0.21810168149E+03  0.25390239024E+03  0.12509000000E+03 0.  0.
         25    1    3    3    0    0 -0.41507609737E+01  0.14825438629E+02  0.85244030552E+01  0.12632179541E+03  0.12509000000E+03 0.  0.
<mgrwt>
<rscale>  2 0.45457658E+03</rscale>
<asrwt>0</asrwt>
<pdfrwt beam="1">  1       21 0.16128346E-01 0.45457658E+03</pdfrwt>
<pdfrwt beam="2">  1       21 0.69270206E-01 0.45457658E+03</pdfrwt>
<totfact> 0.60082464E+04</totfact>
</mgrwt>
</event>
<event>
 7    0  0.4752811E-002  0.4549693E+03  0.7546771E-02  0.1026250E+00
         21   -1    0    0  502  501  0.00000000000E+00  0.00000000000E+00  0.23334487432E+03  0.23334487432E+03  0.00000000000E+00 0. -1.
         21   -1    0    0  501  502 -0.00000000000E+00 -0.00000000000E+00 -0.22177156385E+03  0.22177156385E+03  0.00000000000E+00 0. -1.
      99926    2    1    2    0    0  0.00000000000E+00  0.00000000000E+00  0.11573310467E+02  0.45511643817E+03  0.45496926355E+03 0.  0.
      99925    2    3    3    0    0  0.53563371339E+02  0.45457168459E+02 -0.81360530053E+02  0.28417903522E+03  0.26306424936E+03 0.  0.
         25    1    4    4    0    0  0.33856546046E+02  0.26564088723E+02  0.36286014047E+00  0.13228588847E+03  0.12509000000E+03 0.  0.
         25    1    3    3    0    0 -0.53563371339E+02 -0.45457168459E+02  0.92933840519E+02  0.17093740295E+03  0.12509000000E+03 0.  0.
         25    1    4    4    0    0  0.19706825293E+02  0.18893079736E+02 -0.81723390193E+02  0.15189314675E+03  0.12509000000E+03 0.  0.
<mgrwt>
<rscale>  2 0.45496926E+03</rscale>
<asrwt>0</asrwt>
<pdfrwt beam="1">  1       21 0.34315423E-01 0.45496926E+03</pdfrwt>
<pdfrwt beam="2">  1       21 0.32613465E-01 0.45496926E+03</pdfrwt>
<totfact> 0.68554081E+04</totfact>
</mgrwt>
</event>
<event>
 7    0  0.4752811E-002  0.4556162E+03  0.7546771E-02  0.1026060E+00
         21   -1    0    0  502  501  0.00000000000E+00  0.00000000000E+00  0.36464134363E+03  0.36464134363E+03  0.00000000000E+00 0.  1.
         21   -1    0    0  501  502 -0.00000000000E+00 -0.00000000000E+00 -0.14232212855E+03  0.14232212855E+03  0.00000000000E+00 0.  1.
      99926    2    1    2    0    0  0.35527136788E-14 -0.71054273576E-14  0.22231921508E+03  0.50696347218E+03  0.45561620771E+03 0.  0.
      99925    2    3    3    0    0 -0.16618680589E+02  0.31827725787E+02  0.19685884008E+02  0.26613789290E+03  0.26296893227E+03 0.  0.
         25    1    4    4    0    0 -0.39995387588E+01  0.55520136683E+02  0.15788429092E+01  0.13692509899E+03  0.12509000000E+03 0.  0.
         25    1    4    4    0    0 -0.12619141831E+02 -0.23692410896E+02  0.18107041099E+02  0.12921279392E+03  0.12509000000E+03 0.  0.
         25    1    3    3    0    0  0.16618680589E+02 -0.31827725787E+02  0.20263333107E+03  0.24082557927E+03  0.12509000000E+03 0.  0.
<mgrwt>
<rscale>  2 0.45561621E+03</rscale>
<asrwt>0</asrwt>
<pdfrwt beam="1">  1       21 0.53623727E-01 0.45561621E+03</pdfrwt>
<pdfrwt beam="2">  1       21 0.20929725E-01 0.45561621E+03</pdfrwt>
<totfact> 0.64468292E+04</totfact>
</mgrwt>
</event>
<event>
 7    0  0.4752811E-002  0.4524230E+03  0.7546771E-02  0.1027002E+00
         21   -1    0    0  502  501  0.00000000000E+00  0.00000000000E+00  0.60412697058E+02  0.60412697058E+02  0.00000000000E+00 0.  1.
         21   -1    0    0  501  502 -0.00000000000E+00 -0.00000000000E+00 -0.84703444477E+03  0.84703444477E+03  0.00000000000E+00 0.  1.
      99926    2    1    2    0    0  0.00000000000E+00  0.00000000000E+00 -0.78662174771E+03  0.90744714182E+03  0.45242296719E+03 0.  0.
      99925    2    3    3    0    0  0.25579758116E+02 -0.85400193641E+02 -0.62798917642E+03  0.68663202035E+03  0.26295552584E+03 0.  0.
         25    1    4    4    0    0  0.73682394232E+01 -0.84552457272E+02 -0.33378638679E+03  0.36642089063E+03  0.12509000000E+03 0.  0.
         25    1    4    4    0    0  0.18211518693E+02 -0.84773636955E+00 -0.29420278963E+03  0.32021112972E+03  0.12509000000E+03 0.  0.
         25    1    3    3    0    0 -0.25579758116E+02  0.85400193641E+02 -0.15863257129E+03  0.22081512148E+03  0.12509000000E+03 0.  0.
<mgrwt>
<rscale>  2 0.45242297E+03</rscale>
<asrwt>0</asrwt>
<pdfrwt beam="1">  1       21 0.88842203E-02 0.45242297E+03</pdfrwt>
<pdfrwt beam="2">  1       21 0.12456389E+00 0.45242297E+03</pdfrwt>
<totfact> 0.43789993E+04</totfact>
</mgrwt>
</event>
<event>
 7    0  0.4752811E-002  0.4584209E+03  0.7546771E-02  0.1025240E+00
         21   -1    0    0  502  501  0.00000000000E+00  0.00000000000E+00  0.25276049325E+03  0.25276049325E+03  0.00000000000E+00 0.  1.
         21   -1    0    0  501  502 -0.00000000000E+00 -0.00000000000E+00 -0.20785456488E+03  0.20785456488E+03  0.00000000000E+00 0.  1.
      99926    2    1    2    0    0 -0.71054273576E-14  0.00000000000E+00  0.44905928368E+02  0.46061505813E+03  0.45842086489E+03 0.  0.
      99925    2    3    3    0    0  0.42615120702E+02  0.91772605737E+02 -0.29772749808E+02  0.28323785342E+03  0.26286689655E+03 0.  0.
         25    1    4    4    0    0  0.54921545059E+02  0.31337656263E+02  0.20768959766E+01  0.14017933660E+03  0.12509000000E+03 0.  0.
         25    1    3    3    0    0 -0.42615120702E+02 -0.91772605737E+02  0.74678678176E+02  0.17737720471E+03  0.12509000000E+03 0.  0.
         25    1    4    4    0    0 -0.12306424358E+02  0.60434949474E+02 -0.31849645784E+02  0.14305851682E+03  0.12509000000E+03 0.  0.
<mgrwt>
<rscale>  2 0.45842086E+03</rscale>
<asrwt>0</asrwt>
<pdfrwt beam="1">  1       21 0.37170661E-01 0.45842086E+03</pdfrwt>
<pdfrwt beam="2">  1       21 0.30566848E-01 0.45842086E+03</pdfrwt>
<totfact> 0.66308025E+04</totfact>
</mgrwt>
</event>
<event>
 7    0  0.4752811E-002  0.4055012E+03  0.7546771E-02  0.1041891E+00
         21   -1    0    0  502  501  0.00000000000E+00  0.00000000000E+00  0.14455466900E+03  0.14455466900E+03  0.00000000000E+00 0. -1.
         21   -1    0    0  501  502 -0.00000000000E+00 -0.00000000000E+00 -0.28437550453E+03  0.28437550453E+03  0.00000000000E+00 0. -1.
      99926    2    1    2    0    0  0.35527136788E-14  0.00000000000E+00 -0.13982083553E+03  0.42893017353E+03  0.40550120557E+03 0.  0.
      99925    2    3    3    0    0 -0.22754949291E+02 -0.49965318789E+02 -0.97965962838E+02  0.28605379596E+03  0.26308767267E+03 0.  0.
         25    1    4    4    0    0 -0.25197112734E+02 -0.14800569084E+02 -0.88002150267E+02  0.15571075071E+03  0.12509000000E+03 0.  0.
         25    1    4    4    0    0  0.24421634426E+01 -0.35164749705E+02 -0.99638125713E+01  0.13034304525E+03  0.12509000000E+03 0.  0.
         25    1    3    3    0    0  0.22754949291E+02  0.49965318789E+02 -0.41854872694E+02  0.14287637757E+03  0.12509000000E+03 0.  0.
<mgrwt>
<rscale>  2 0.40550121E+03</rscale>
<asrwt>0</asrwt>
<pdfrwt beam="1">  1       21 0.21258040E-01 0.40550121E+03</pdfrwt>
<pdfrwt beam="2">  1       21 0.41819926E-01 0.40550121E+03</pdfrwt>
<totfact> 0.10678213E+05</totfact>
</mgrwt>
</event>
<event>
 7    0  0.4752811E-002  0.4538137E+03  0.7546771E-02  0.1026591E+00
         21   -1    0    0  502  501  0.00000000000E+00  0.00000000000E+00  0.42966308666E+03  0.42966308666E+03  0.00000000000E+00 0. -1.
         21   -1    0    0  501  502 -0.00000000000E+00 -0.00000000000E+00 -0.11983043643E+03  0.11983043643E+03  0.00000000000E+00 0. -1.
      99926    2    1    2    0    0  0.00000000000E+00  0.00000000000E+00  0.30983265023E+03  0.54949352308E+03  0.45381368507E+03 0.  0.
      99925    2    3    3    0    0 -0.19737621316E+02 -0.31410925906E+02  0.67264009978E+02  0.27406063961E+03  0.26307521203E+03 0.  0.
         25    1    3    3    0    0  0.19737621316E+02  0.31410925906E+02  0.24256864025E+03  0.27543288347E+03  0.12509000000E+03 0.  0.
         25    1    4    4    0    0  0.79844500796E+01 -0.49066162614E+02  0.49932648860E+02  0.14356885902E+03  0.12509000000E+03 0.  0.
         25    1    4    4    0    0 -0.27722071395E+02  0.17655236707E+02  0.17331361118E+02  0.13049178060E+03  0.12509000000E+03 0.  0.
<mgrwt>
<rscale>  2 0.45381369E+03</rscale>
<asrwt>0</asrwt>
<pdfrwt beam="1">  1       21 0.63185748E-01 0.45381369E+03</pdfrwt>
<pdfrwt beam="2">  1       21 0.17622123E-01 0.45381369E+03</pdfrwt>
<totfact> 0.62484416E+04</totfact>
</mgrwt>
</event>
<event>
 7    0  0.4752811E-002  0.4553476E+03  0.7546771E-02  0.1026139E+00
         21   -1    0    0  502  501  0.00000000000E+00  0.00000000000E+00  0.26676880983E+03  0.26676880983E+03  0.00000000000E+00 0.  1.
         21   -1    0    0  501  502 -0.00000000000E+00 -0.00000000000E+00 -0.19430815208E+03  0.19430815208E+03  0.00000000000E+00 0.  1.
      99926    2    1    2    0    0  0.00000000000E+00  0.00000000000E+00  0.72460657746E+02  0.46107696191E+03  0.45534757920E+03 0.  0.
      99925    2    3    3    0    0  0.56105652489E+02  0.98189231658E+02  0.53527353566E+02  0.29138622096E+03  0.26315733456E+03 0.  0.
         25    1    4    4    0    0  0.28793969353E+01  0.18387799405E+02  0.42292595687E+02  0.13335131737E+03  0.12509000000E+03 0.  0.
         25    1    4    4    0    0  0.53226255553E+02  0.79801432253E+02  0.11234757879E+02  0.15803490360E+03  0.12509000000E+03 0.  0.
         25    1    3    3    0    0 -0.56105652489E+02 -0.98189231658E+02  0.18933304180E+02  0.16969074094E+03  0.12509000000E+03 0.  0.
<mgrwt>
<rscale>  2 0.45534758E+03</rscale>
<asrwt>0</asrwt>
<pdfrwt beam="1">  1       21 0.39230707E-01 0.45534758E+03</pdfrwt>
<pdfrwt beam="2">  1       21 0.28574728E-01 0.45534758E+03</pdfrwt>
<totfact> 0.67913683E+04</totfact>
</mgrwt>
</event>
<event>
 7    0  0.4752811E-002  0.4538077E+03  0.7546771E-02  0.1026593E+00
         21   -1    0    0  502  501  0.00000000000E+00  0.00000000000E+00  0.75890073266E+03  0.75890073266E+03  0.00000000000E+00 0. -1.
         21   -1    0    0  501  502 -0.00000000000E+00 -0.00000000000E+00 -0.67842010264E+02  0.67842010264E+02  0.00000000000E+00 0. -1.
      99926    2    1    2    0    0  0.00000000000E+00  0.00000000000E+00  0.69105872239E+03  0.82674274292E+03  0.45380767421E+03 0.  0.
      99925    2    3    3    0    0  0.14875661513E+01 -0.97475308754E+02  0.53645365309E+03  0.60526162810E+03  0.26278407079E+03 0.  0.
         25    1    3    3    0    0 -0.14875661513E+01  0.97475308754E+02  0.15460506930E+03  0.22148111482E+03  0.12509000000E+03 0.  0.
         25    1    4    4    0    0 -0.19097551471E+02 -0.66190360548E+02  0.21295532096E+03  0.25640467454E+03  0.12509000000E+03 0.  0.
         25    1    4    4    0    0  0.20585117622E+02 -0.31284948206E+02  0.32349833213E+03  0.34885695355E+03  0.12509000000E+03 0.  0.
<mgrwt>
<rscale>  2 0.45380767E+03</rscale>
<asrwt>0</asrwt>
<pdfrwt beam="1">  1       21 0.11160304E+00 0.45380767E+03</pdfrwt>
<pdfrwt beam="2">  1       21 0.99767667E-02 0.45380767E+03</pdfrwt>
<totfact> 0.46935909E+04</totfact>
</mgrwt>
</event>
<event>
 7    0  0.4752811E-002  0.4513353E+03  0.7546771E-02  0.1027325E+00
         21   -1    0    0  502  501  0.00000000000E+00  0.00000000000E+00  0.13101235561E+04  0.13101235561E+04  0.00000000000E+00 0.  1.
         21   -1    0    0  501  502 -0.00000000000E+00 -0.00000000000E+00 -0.38871051371E+02  0.38871051371E+02  0.00000000000E+00 0.  1.
      99926    2    1    2    0    0  0.35527136788E-14  0.00000000000E+00  0.12712525047E+04  0.13489946075E+04  0.45133526364E+03 0.  0.
      99925    2    3    3    0    0 -0.24245798662E+02  0.83170200274E+02  0.10044581105E+04  0.10418596243E+04  0.26273606554E+03 0.  0.
         25    1    3    3    0    0  0.24245798662E+02 -0.83170200274E+02  0.26679439426E+03  0.30713498315E+03  0.12509000000E+03 0.  0.
         25    1    4    4    0    0 -0.37235981551E+02  0.63970528817E+02  0.62361751566E+03  0.64033199266E+03  0.12509000000E+03 0.  0.
         25    1    4    4    0    0  0.12990182889E+02  0.19199671457E+02  0.38084059479E+03  0.40152763165E+03  0.12509000000E+03 0.  0.
<mgrwt>
<rscale>  2 0.45133526E+03</rscale>
<asrwt>0</asrwt>
<pdfrwt beam="1">  1       21 0.19266520E+00 0.45133526E+03</pdfrwt>
<pdfrwt beam="2">  1       21 0.57163320E-02 0.45133526E+03</pdfrwt>
<totfact> 0.28527516E+04</totfact>
</mgrwt>
</event>
<event>
 6    0  0.4752811E-002  0.4476477E+03  0.7546771E-02  0.1028426E+00
         21   -1    0    0  502  501  0.00000000000E+00  0.00000000000E+00  0.14426171719E+04  0.14426171719E+04  0.00000000000E+00 0.  1.
         21   -1    0    0  501  502 -0.00000000000E+00 -0.00000000000E+00 -0.34726548770E+02  0.34726548770E+02  0.00000000000E+00 0.  1.
      99926    2    1    2    0    0  0.00000000000E+00  0.00000000000E+00  0.14078906231E+04  0.14773437207E+04  0.44764769887E+03 0.  0.
         25    1    3    3    0    0 -0.58787493491E+01 -0.42019926312E+00  0.54150113011E+03  0.55579287353E+03  0.12509000000E+03 0.  0.
         25    1    3    3    0    0  0.27707071641E+01  0.93454269928E+02  0.38223024391E+03  0.41290294846E+03  0.12509000000E+03 0.  0.
         25    1    3    3    0    0  0.31080421850E+01 -0.93034070665E+02  0.48415924911E+03  0.50864789868E+03  0.12509000000E+03 0.  0.
<mgrwt>
<rscale>  2 0.44764770E+03</rscale>
<asrwt>0</asrwt>
<pdfrwt beam="1">  1       21 0.21214954E+00 0.44764770E+03</pdfrwt>
<pdfrwt beam="2">  1       21 0.51068464E-02 0.44764770E+03</pdfrwt>
<totfact> 0.25781200E+04</totfact>
</mgrwt>
</event>
<event>
 7    0  0.4752811E-002  0.4058649E+03  0.7546771E-02  0.1041768E+00
         21   -1    0    0  502  501  0.00000000000E+00  0.00000000000E+00  0.26065047614E+03  0.26065047614E+03  0.00000000000E+00 0. -1.
         21   -1    0    0  501  502 -0.00000000000E+00 -0.00000000000E+00 -0.15799538094E+03  0.15799538094E+03  0.00000000000E+00 0. -1.
      99926    2    1    2    0    0 -0.71054273576E-14  0.00000000000E+00  0.10265509520E+03  0.41864585708E+03  0.40586486061E+03 0.  0.
      99925    2    3    3    0    0 -0.40417225152E+02  0.70002976647E+01  0.10701750627E+03  0.28692989378E+03  0.26304649977E+03 0.  0.
         25    1    4    4    0    0  0.20665299197E+02 -0.94991564630E+00  0.51604109155E+02  0.13688845500E+03  0.12509000000E+03 0.  0.
         25    1    4    4    0    0 -0.61082524349E+02  0.79502133110E+01  0.55413397112E+02  0.15004143878E+03  0.12509000000E+03 0.  0.
         25    1    3    3    0    0  0.40417225152E+02 -0.70002976647E+01 -0.43624110713E+01  0.13171596329E+03  0.12509000000E+03 0.  0.
<mgrwt>
<rscale>  2 0.40586486E+03</rscale>
<asrwt>0</asrwt>
<pdfrwt beam="1">  1       21 0.38330952E-01 0.40586486E+03</pdfrwt>
<pdfrwt beam="2">  1       21 0.23234615E-01 0.40586486E+03</pdfrwt>
<totfact> 0.10768635E+05</totfact>
</mgrwt>
</event>
<event>
 7    0  0.4752811E-002  0.4504388E+03  0.7546771E-02  0.1027591E+00
         21   -1    0    0  502  501  0.00000000000E+00  0.00000000000E+00  0.18516155194E+03  0.18516155194E+03  0.00000000000E+00 0. -1.
         21   -1    0    0  501  502 -0.00000000000E+00 -0.00000000000E+00 -0.27394338758E+03  0.27394338758E+03  0.00000000000E+00 0. -1.
      99926    2    1    2    0    0  0.00000000000E+00 -0.71054273576E-14 -0.88781835632E+02  0.45910493952E+03  0.45043882066E+03 0.  0.
      99925    2    3    3    0    0 -0.89975592846E+02 -0.54503649377E+02 -0.27752815484E+02  0.28463917066E+03  0.26302658346E+03 0.  0.
         25    1    4    4    0    0 -0.47033006579E+02 -0.63424052339E+02 -0.34554267067E+02  0.15190858960E+03  0.12509000000E+03 0.  0.
         25    1    4    4    0    0 -0.42942586267E+02  0.89204029615E+01  0.68014515823E+01  0.13273058106E+03  0.12509000000E+03 0.  0.
         25    1    3    3    0    0  0.89975592846E+02  0.54503649377E+02 -0.61029020148E+02  0.17446576886E+03  0.12509000000E+03 0.  0.
<mgrwt>
<rscale>  2 0.45043882E+03</rscale>
<asrwt>0</asrwt>
<pdfrwt beam="1">  1       21 0.27229640E-01 0.45043882E+03</pdfrwt>
<pdfrwt beam="2">  1       21 0.40285792E-01 0.45043882E+03</pdfrwt>
<totfact> 0.70781875E+04</totfact>
</mgrwt>
</event>
<event>
 7    0  0.4752811E-002  0.4523366E+03  0.7546771E-02  0.1027028E+00
         21   -1    0    0  502  501  0.00000000000E+00  0.00000000000E+00  0.14093462903E+03  0.14093462903E+03  0.00000000000E+00 0. -1.
         21   -1    0    0  501  502 -0.00000000000E+00 -0.00000000000E+00 -0.36294919487E+03  0.36294919487E+03  0.00000000000E+00 0. -1.
      99926    2    1    2    0    0  0.17763568394E-14  0.00000000000E+00 -0.22201456584E+03  0.50388382390E+03  0.45233664515E+03 0.  0.
      99925    2    3    3    0    0 -0.11941563179E+02 -0.64892620095E+02 -0.23898490703E+03  0.36144382371E+03  0.26300988354E+03 0.  0.
         25    1    3    3    0    0  0.11941563179E+02  0.64892620095E+02  0.16970341190E+02  0.14244000019E+03  0.12509000000E+03 0.  0.
         25    1    4    4    0    0  0.97227827640E+01 -0.56570989684E+02 -0.16268662223E+03  0.21309447325E+03  0.12509000000E+03 0.  0.
         25    1    4    4    0    0 -0.21664345943E+02 -0.83216304110E+01 -0.76298284798E+02  0.14834935046E+03  0.12509000000E+03 0.  0.
<mgrwt>
<rscale>  2 0.45233665E+03</rscale>
<asrwt>0</asrwt>
<pdfrwt beam="1">  1       21 0.20725681E-01 0.45233665E+03</pdfrwt>
<pdfrwt beam="2">  1       21 0.53374881E-01 0.45233665E+03</pdfrwt>
<totfact> 0.66391085E+04</totfact>
</mgrwt>
</event>
<event>
 7    0  0.4752811E-002  0.4666791E+03  0.7546771E-02  0.1022862E+00
         21   -1    0    0  502  501  0.00000000000E+00  0.00000000000E+00  0.59869249293E+03  0.59869249293E+03  0.00000000000E+00 0. -1.
         21   -1    0    0  501  502 -0.00000000000E+00 -0.00000000000E+00 -0.90943754979E+02  0.90943754979E+02  0.00000000000E+00 0. -1.
      99926    2    1    2    0    0  0.00000000000E+00  0.00000000000E+00  0.50774873795E+03  0.68963624791E+03  0.46667909053E+03 0.  0.
      99925    2    3    3    0    0 -0.50949089563E+02 -0.88834225654E+02  0.41892141178E+03  0.50517722442E+03  0.26309988492E+03 0.  0.
         25    1    3    3    0    0  0.50949089563E+02  0.88834225654E+02  0.88827326171E+02  0.18445902350E+03  0.12509000000E+03 0.  0.
         25    1    4    4    0    0 -0.44963419296E+02 -0.77854631089E+01  0.19654603708E+03  0.23740298082E+03  0.12509000000E+03 0.  0.
         25    1    4    4    0    0 -0.59856702668E+01 -0.81048762545E+02  0.22237537471E+03  0.26777424360E+03  0.12509000000E+03 0.  0.
<mgrwt>
<rscale>  2 0.46667909E+03</rscale>
<asrwt>0</asrwt>
<pdfrwt beam="1">  1       21 0.88043012E-01 0.46667909E+03</pdfrwt>
<pdfrwt beam="2">  1       21 0.13374082E-01 0.46667909E+03</pdfrwt>
<totfact> 0.48820988E+04</totfact>
</mgrwt>
</event>
<event>
 7    0  0.4752811E-002  0.4546748E+03  0.7546771E-02  0.1026337E+00
         21   -1    0    0  502  501  0.00000000000E+00  0.00000000000E+00  0.88406841224E+02  0.88406841224E+02  0.00000000000E+00 0.  1.
         21   -1    0    0  501  502 -0.00000000000E+00 -0.00000000000E+00 -0.58459617102E+03  0.58459617102E+03  0.00000000000E+00 0.  1.
      99926    2    1    2    0    0  0.00000000000E+00  0.00000000000E+00 -0.49618932980E+03  0.67300301225E+03  0.45467483270E+03 0.  0.
      99925    2    3    3    0    0  0.97884653289E+02 -0.29414012286E+02 -0.38332226927E+03  0.47594192801E+03  0.26294137608E+03 0.  0.
         25    1    3    3    0    0 -0.97884653289E+02  0.29414012286E+02 -0.11286706053E+03  0.19706108424E+03  0.12509000000E+03 0.  0.
         25    1    4    4    0    0  0.28216897029E+02 -0.54184900050E+01 -0.12242926262E+03  0.17737526817E+03  0.12509000000E+03 0.  0.
         25    1    4    4    0    0  0.69667756260E+02 -0.23995522281E+02 -0.26089300664E+03  0.29856665984E+03  0.12509000000E+03 0.  0.
<mgrwt>
<rscale>  2 0.45467483E+03</rscale>
<asrwt>0</asrwt>
<pdfrwt beam="1">  1       21 0.13001006E-01 0.45467483E+03</pdfrwt>
<pdfrwt beam="2">  1       21 0.85970028E-01 0.45467483E+03</pdfrwt>
<totfact> 0.54533272E+04</totfact>
</mgrwt>
</event>
<event>
 7    0  0.4752811E-002  0.4576340E+03  0.7546771E-02  0.1025470E+00
         21   -1    0    0  502  501  0.00000000000E+00  0.00000000000E+00  0.50487166468E+02  0.50487166468E+02  0.00000000000E+00 0. -1.
         21   -1    0    0  501  502 -0.00000000000E+00 -0.00000000000E+00 -0.10370399567E+04  0.10370399567E+04  0.00000000000E+00 0. -1.
      99926    2    1    2    0    0  0.00000000000E+00  0.00000000000E+00 -0.98655279020E+03  0.10875271231E+04  0.45763395384E+03 0.  0.
      99925    2    3    3    0    0 -0.80025444582E+02  0.58979806509E+02 -0.47917422428E+03  0.55558426285E+03  0.26302708331E+03 0.  0.
         25    1    4    4    0    0 -0.24024599171E+02  0.54321089438E+02 -0.29576851473E+03  0.32657998183E+03  0.12509000000E+03 0.  0.
         25    1    4    4    0    0 -0.56000845411E+02  0.46587170708E+01 -0.18340570955E+03  0.22900428102E+03  0.12509000000E+03 0.  0.
         25    1    3    3    0    0  0.80025444582E+02 -0.58979806509E+02 -0.50737856592E+03  0.53194286029E+03  0.12509000000E+03 0.  0.
<mgrwt>
<rscale>  2 0.45763395E+03</rscale>
<asrwt>0</asrwt>
<pdfrwt beam="1">  1       21 0.74245840E-02 0.45763395E+03</pdfrwt>
<pdfrwt beam="2">  1       21 0.15250586E+00 0.45763395E+03</pdfrwt>
<totfact> 0.35200789E+04</totfact>
</mgrwt>
</event>
<event>
 7    0  0.4752811E-002  0.4585308E+03  0.7546771E-02  0.1025208E+00
         21   -1    0    0  502  501  0.00000000000E+00  0.00000000000E+00  0.26137075924E+03  0.26137075924E+03  0.00000000000E+00 0.  1.
         21   -1    0    0  501  502 -0.00000000000E+00 -0.00000000000E+00 -0.20110369381E+03  0.20110369381E+03  0.00000000000E+00 0.  1.
      99926    2    1    2    0    0 -0.35527136788E-14 -0.44408920985E-15  0.60267065429E+02  0.46247445305E+03  0.45853080654E+03 0.  0.
      99925    2    3    3    0    0  0.29841614811E+02 -0.24599439581E+01 -0.75666326095E+02  0.27533288009E+03  0.26303275206E+03 0.  0.
         25    1    4    4    0    0  0.34969105202E+02 -0.36409282688E+02 -0.34383519948E+02  0.13920563469E+03  0.12509000000E+03 0.  0.
         25    1    3    3    0    0 -0.29841614811E+02  0.24599439581E+01  0.13593339152E+03  0.18714157296E+03  0.12509000000E+03 0.  0.
         25    1    4    4    0    0 -0.51274903912E+01  0.33949338730E+02 -0.41282806147E+02  0.13612724540E+03  0.12509000000E+03 0.  0.
<mgrwt>
<rscale>  2 0.45853081E+03</rscale>
<asrwt>0</asrwt>
<pdfrwt beam="1">  1       21 0.38436876E-01 0.45853081E+03</pdfrwt>
<pdfrwt beam="2">  1       21 0.29574073E-01 0.45853081E+03</pdfrwt>
<totfact> 0.66119139E+04</totfact>
</mgrwt>
</event>
<event>
 7    0  0.4752811E-002  0.4493631E+03  0.7546771E-02  0.1027912E+00
         21   -1    0    0  502  501  0.00000000000E+00  0.00000000000E+00  0.33656578929E+02  0.33656578929E+02  0.00000000000E+00 0.  1.
         21   -1    0    0  501  502 -0.00000000000E+00 -0.00000000000E+00 -0.14999091234E+04  0.14999091234E+04  0.00000000000E+00 0.  1.
      99926    2    1    2    0    0  0.00000000000E+00  0.00000000000E+00 -0.14662525445E+04  0.15335657024E+04  0.44936314847E+03 0.  0.
      99925    2    3    3    0    0  0.73174602782E+02 -0.74573035556E+02 -0.83530455792E+03  0.88190741000E+03  0.26289031023E+03 0.  0.
         25    1    4    4    0    0  0.28310260592E+02 -0.41675584567E+02 -0.29226815713E+03  0.32187964984E+03  0.12509000000E+03 0.  0.
         25    1    4    4    0    0  0.44864342190E+02 -0.32897450989E+02 -0.54303640078E+03  0.56002776017E+03  0.12509000000E+03 0.  0.
         25    1    3    3    0    0 -0.73174602782E+02  0.74573035556E+02 -0.63094798660E+03  0.65165829237E+03  0.12509000000E+03 0.  0.
<mgrwt>
<rscale>  2 0.44936315E+03</rscale>
<asrwt>0</asrwt>
<pdfrwt beam="1">  1       21 0.49494977E-02 0.44936315E+03</pdfrwt>
<pdfrwt beam="2">  1       21 0.22057484E+00 0.44936315E+03</pdfrwt>
<totfact> 0.24002092E+04</totfact>
</mgrwt>
</event>
<event>
 7    0  0.4752811E-002  0.4602296E+03  0.7546771E-02  0.1024715E+00
         21   -1    0    0  502  501  0.00000000000E+00  0.00000000000E+00  0.27505154641E+03  0.27505154641E+03  0.00000000000E+00 0. -1.
         21   -1    0    0  501  502 -0.00000000000E+00 -0.00000000000E+00 -0.19251966549E+03  0.19251966549E+03  0.00000000000E+00 0. -1.
      99926    2    1    2    0    0 -0.14210854715E-13  0.71054273576E-14  0.82531880923E+02  0.46757121190E+03  0.46022964575E+03 0.  0.
      99925    2    3    3    0    0 -0.10953274019E+03  0.37197663660E+02  0.28712528551E+02  0.28889519744E+03  0.26316333037E+03 0.  0.
         25    1    3    3    0    0  0.10953274019E+03 -0.37197663660E+02  0.53819352373E+02  0.17867601447E+03  0.12509000000E+03 0.  0.
         25    1    4    4    0    0 -0.24130313207E+02  0.12046163100E+02 -0.16047346598E+02  0.12896669141E+03  0.12509000000E+03 0.  0.
         25    1    4    4    0    0 -0.85402426986E+02  0.25151500560E+02  0.44759875149E+02  0.15992850602E+03  0.12509000000E+03 0.  0.
<mgrwt>
<rscale>  2 0.46022965E+03</rscale>
<asrwt>0</asrwt>
<pdfrwt beam="1">  1       21 0.40448757E-01 0.46022965E+03</pdfrwt>
<pdfrwt beam="2">  1       21 0.28311716E-01 0.46022965E+03</pdfrwt>
<totfact> 0.64880243E+04</totfact>
</mgrwt>
</event>
<event>
 7    0  0.4752811E-002  0.4548657E+03  0.7546771E-02  0.1026281E+00
         21   -1    0    0  502  501  0.00000000000E+00  0.00000000000E+00  0.35132969410E+03  0.35132969410E+03  0.00000000000E+00 0.  1.
         21   -1    0    0  501  502 -0.00000000000E+00 -0.00000000000E+00 -0.14722839942E+03  0.14722839942E+03  0.00000000000E+00 0.  1.
      99926    2    1    2    0    0  0.00000000000E+00 -0.35527136788E-14  0.20410129469E+03  0.49855809352E+03  0.45486573197E+03 0.  0.
      99925    2    3    3    0    0  0.10896478907E+03 -0.22936945745E+02  0.10750270656E+03  0.30522360600E+03  0.26306879139E+03 0.  0.
         25    1    3    3    0    0 -0.10896478907E+03  0.22936945745E+02  0.96598588122E+02  0.19333448752E+03  0.12509000000E+03 0.  0.
         25    1    4    4    0    0  0.73285223544E+02 -0.33351366000E+01  0.94380329077E+02  0.17302312488E+03  0.12509000000E+03 0.  0.
         25    1    4    4    0    0  0.35679565530E+02 -0.19601809145E+02  0.13122377488E+02  0.13220048112E+03  0.12509000000E+03 0.  0.
<mgrwt>
<rscale>  2 0.45486573E+03</rscale>
<asrwt>0</asrwt>
<pdfrwt beam="1">  1       21 0.51666131E-01 0.45486573E+03</pdfrwt>
<pdfrwt beam="2">  1       21 0.21651235E-01 0.45486573E+03</pdfrwt>
<totfact> 0.65441800E+04</totfact>
</mgrwt>
</event>
<event>
 7    0  0.4752811E-002  0.4548329E+03  0.7546771E-02  0.1026291E+00
         21   -1    0    0  502  501  0.00000000000E+00  0.00000000000E+00  0.14513583081E+03  0.14513583081E+03  0.00000000000E+00 0. -1.
         21   -1    0    0  501  502 -0.00000000000E+00 -0.00000000000E+00 -0.35634374703E+03  0.35634374703E+03  0.00000000000E+00 0. -1.
      99926    2    1    2    0    0  0.00000000000E+00  0.35527136788E-14 -0.21120791623E+03  0.50147957784E+03  0.45483291780E+03 0.  0.
      99925    2    3    3    0    0  0.54767271210E+01 -0.19983911296E+02 -0.10237350629E+02  0.26385376362E+03  0.26283959743E+03 0.  0.
         25    1    4    4    0    0 -0.10361115780E+02 -0.48185335393E+02 -0.56722793764E+01  0.13456917225E+03  0.12509000000E+03 0.  0.
         25    1    4    4    0    0  0.15837842901E+02  0.28201424097E+02 -0.45650712527E+01  0.12928459136E+03  0.12509000000E+03 0.  0.
         25    1    3    3    0    0 -0.54767271210E+01  0.19983911296E+02 -0.20097056560E+03  0.23762581423E+03  0.12509000000E+03 0.  0.
<mgrwt>
<rscale>  2 0.45483292E+03</rscale>
<asrwt>0</asrwt>
<pdfrwt beam="1">  1       21 0.21343505E-01 0.45483292E+03</pdfrwt>
<pdfrwt beam="2">  1       21 0.52403491E-01 0.45483292E+03</pdfrwt>
<totfact> 0.65253343E+04</totfact>
</mgrwt>
</event>
<event>
 7    0  0.4752811E-002  0.4508150E+03  0.7546771E-02  0.1027479E+00
         21   -1    0    0  502  501  0.00000000000E+00  0.00000000000E+00  0.19847749898E+02  0.19847749898E+02  0.00000000000E+00 0. -1.
         21   -1    0    0  501  502 -0.00000000000E+00 -0.00000000000E+00 -0.25599145819E+04  0.25599145819E+04  0.00000000000E+00 0. -1.
      99926    2    1    2    0    0  0.00000000000E+00 -0.17763568394E-14 -0.25400668320E+04  0.25797623318E+04  0.45081501475E+03 0.  0.
      99925    2    3    3    0    0 -0.10428957787E+03  0.62770894570E+01 -0.17870086368E+04  0.18092690668E+04  0.26294290307E+03 0.  0.
         25    1    4    4    0    0 -0.55267352099E+02 -0.26337689541E+02 -0.10727992800E+04  0.10818012559E+04  0.12509000000E+03 0.  0.
         25    1    4    4    0    0 -0.49022225769E+02  0.32614778998E+02 -0.71420935685E+03  0.72746781093E+03  0.12509000000E+03 0.  0.
         25    1    3    3    0    0  0.10428957787E+03 -0.62770894570E+01 -0.75305819523E+03  0.77049326500E+03  0.12509000000E+03 0.  0.
<mgrwt>
<rscale>  2 0.45081501E+03</rscale>
<asrwt>0</asrwt>
<pdfrwt beam="1">  1       21 0.29187865E-02 0.45081501E+03</pdfrwt>
<pdfrwt beam="2">  1       21 0.37645806E+00 0.45081501E+03</pdfrwt>
<totfact> 0.65606753E+03</totfact>
</mgrwt>
</event>
<event>
 7    0  0.4752811E-002  0.4529982E+03  0.7546771E-02  0.1026832E+00
         21   -1    0    0  502  501  0.00000000000E+00  0.00000000000E+00  0.38574023155E+03  0.38574023155E+03  0.00000000000E+00 0. -1.
         21   -1    0    0  501  502 -0.00000000000E+00 -0.00000000000E+00 -0.13299584461E+03  0.13299584461E+03  0.00000000000E+00 0. -1.
      99926    2    1    2    0    0 -0.71054273576E-14  0.71054273576E-14  0.25274438694E+03  0.51873607616E+03  0.45299822470E+03 0.  0.
      99925    2    3    3    0    0 -0.51689564867E+02 -0.47129162448E+02  0.60311422528E+02  0.27879666097E+03  0.26305349534E+03 0.  0.
         25    1    4    4    0    0  0.25516573728E+00 -0.55619149778E+00  0.47933164586E+01  0.12518329937E+03  0.12509000000E+03 0.  0.
         25    1    3    3    0    0  0.51689564867E+02  0.47129162448E+02  0.19243296441E+03  0.23993941519E+03  0.12509000000E+03 0.  0.
         25    1    4    4    0    0 -0.51944730604E+02 -0.46572970950E+02  0.55518106069E+02  0.15361336160E+03  0.12509000000E+03 0.  0.
<mgrwt>
<rscale>  2 0.45299822E+03</rscale>
<asrwt>0</asrwt>
<pdfrwt beam="1">  1       21 0.56726504E-01 0.45299822E+03</pdfrwt>
<pdfrwt beam="2">  1       21 0.19558213E-01 0.45299822E+03</pdfrwt>
<totfact> 0.64999647E+04</totfact>
</mgrwt>
</event>
<event>
 7    0  0.4752811E-002  0.4517566E+03  0.7546771E-02  0.1027199E+00
         21   -1    0    0  502  501  0.00000000000E+00  0.00000000000E+00  0.27397203836E+03  0.27397203836E+03  0.00000000000E+00 0. -1.
         21   -1    0    0  501  502 -0.00000000000E+00 -0.00000000000E+00 -0.18622706047E+03  0.18622706047E+03  0.00000000000E+00 0. -1.
      99926    2    1    2    0    0  0.00000000000E+00  0.00000000000E+00  0.87744977895E+02  0.46019909883E+03  0.45175660418E+03 0.  0.
      99925    2    3    3    0    0  0.48074013909E+02 -0.98966066133E+02  0.52795482702E+02  0.28998050885E+03  0.26305121072E+03 0.  0.
         25    1    4    4    0    0  0.29842547913E+02 -0.63074684194E+02 -0.11479914732E+02  0.14369512864E+03  0.12509000000E+03 0.  0.
         25    1    3    3    0    0 -0.48074013909E+02  0.98966066133E+02  0.34949495193E+02  0.17021858998E+03  0.12509000000E+03 0.  0.
         25    1    4    4    0    0  0.18231465996E+02 -0.35891381939E+02  0.64275397434E+02  0.14628538022E+03  0.12509000000E+03 0.  0.
<mgrwt>
<rscale>  2 0.45175660E+03</rscale>
<asrwt>0</asrwt>
<pdfrwt beam="1">  1       21 0.40290006E-01 0.45175660E+03</pdfrwt>
<pdfrwt beam="2">  1       21 0.27386333E-01 0.45175660E+03</pdfrwt>
<totfact> 0.69954352E+04</totfact>
</mgrwt>
</event>
<event>
 7    0  0.4752811E-002  0.4589992E+03  0.7546771E-02  0.1025072E+00
         21   -1    0    0  502  501  0.00000000000E+00  0.00000000000E+00  0.19225182686E+03  0.19225182686E+03  0.00000000000E+00 0.  1.
         21   -1    0    0  501  502 -0.00000000000E+00 -0.00000000000E+00 -0.27396390310E+03  0.27396390310E+03  0.00000000000E+00 0.  1.
      99926    2    1    2    0    0  0.00000000000E+00  0.35527136788E-14 -0.81712076243E+02  0.46621572996E+03  0.45899917588E+03 0.  0.
      99925    2    3    3    0    0 -0.65594745304E+02 -0.22864582825E+02  0.44259661961E+02  0.27558035369E+03  0.26298318179E+03 0.  0.
         25    1    4    4    0    0 -0.91451540635E+01 -0.66626867320E+01 -0.12429633691E+02  0.12621421921E+03  0.12509000000E+03 0.  0.
         25    1    3    3    0    0  0.65594745304E+02  0.22864582825E+02 -0.12597173820E+03  0.19063537627E+03  0.12509000000E+03 0.  0.
         25    1    4    4    0    0 -0.56449591240E+02 -0.16201896093E+02  0.56689295652E+02  0.14936613448E+03  0.12509000000E+03 0.  0.
<mgrwt>
<rscale>  2 0.45899918E+03</rscale>
<asrwt>0</asrwt>
<pdfrwt beam="1">  1       21 0.28272328E-01 0.45899918E+03</pdfrwt>
<pdfrwt beam="2">  1       21 0.40288809E-01 0.45899918E+03</pdfrwt>
<totfact> 0.65609267E+04</totfact>
</mgrwt>
</event>
<event>
 7    0  0.4752811E-002  0.4579004E+03  0.7546771E-02  0.1025392E+00
         21   -1    0    0  502  501  0.00000000000E+00  0.00000000000E+00  0.50103799395E+02  0.50103799395E+02  0.00000000000E+00 0.  1.
         21   -1    0    0  501  502 -0.00000000000E+00 -0.00000000000E+00 -0.10461919621E+04  0.10461919621E+04  0.00000000000E+00 0.  1.
      99926    2    1    2    0    0  0.00000000000E+00  0.00000000000E+00 -0.99608816267E+03  0.10962957615E+04  0.45790039177E+03 0.  0.
      99925    2    3    3    0    0  0.94948674478E+02 -0.64168469082E+02 -0.58152660194E+03  0.64836536626E+03  0.26281479447E+03 0.  0.
         25    1    4    4    0    0  0.25003915359E+02 -0.41534540332E+02 -0.20652518614E+03  0.24627317035E+03  0.12509000000E+03 0.  0.
         25    1    3    3    0    0 -0.94948674478E+02  0.64168469082E+02 -0.41456156073E+03  0.44793039520E+03  0.12509000000E+03 0.  0.
         25    1    4    4    0    0  0.69944759119E+02 -0.22633928750E+02 -0.37500141580E+03  0.40209219591E+03  0.12509000000E+03 0.  0.
<mgrwt>
<rscale>  2 0.45790039E+03</rscale>
<asrwt>0</asrwt>
<pdfrwt beam="1">  1       21 0.73682057E-02 0.45790039E+03</pdfrwt>
<pdfrwt beam="2">  1       21 0.15385176E+00 0.45790039E+03</pdfrwt>
<totfact> 0.34828211E+04</totfact>
</mgrwt>
</event>
<event>
 7    0  0.4752811E-002  0.4509001E+03  0.7546771E-02  0.1027454E+00
         21   -1    0    0  502  501  0.00000000000E+00  0.00000000000E+00  0.22368802149E+02  0.22368802149E+02  0.00000000000E+00 0.  1.
         21   -1    0    0  501  502 -0.00000000000E+00 -0.00000000000E+00 -0.22722598574E+04  0.22722598574E+04  0.00000000000E+00 0.  1.
      99926    2    1    2    0    0  0.00000000000E+00  0.00000000000E+00 -0.22498910552E+04  0.22946286595E+04  0.45090012721E+03 0.  0.
      99925    2    3    3    0    0  0.52975007678E+02  0.67168982986E+02 -0.17674478101E+04  0.17889439588E+04  0.26292718090E+03 0.  0.
         25    1    3    3    0    0 -0.52975007678E+02 -0.67168982986E+02 -0.48244324508E+03  0.50568470072E+03  0.12509000000E+03 0.  0.
         25    1    4    4    0    0  0.14357295068E+02  0.40274739486E+02 -0.11251000062E+04  0.11328396703E+04  0.12509000000E+03 0.  0.
         25    1    4    4    0    0  0.38617712610E+02  0.26894243500E+02 -0.64234780391E+03  0.65610428847E+03  0.12509000000E+03 0.  0.
<mgrwt>
<rscale>  2 0.45090013E+03</rscale>
<asrwt>0</asrwt>
<pdfrwt beam="1">  1       21 0.32895305E-02 0.45090013E+03</pdfrwt>
<pdfrwt beam="2">  1       21 0.33415578E+00 0.45090013E+03</pdfrwt>
<totfact> 0.97759608E+03</totfact>
</mgrwt>
</event>
<event>
 7    0  0.4752811E-002  0.4195646E+03  0.7546771E-02  0.1037208E+00
         21   -1    0    0  502  501  0.00000000000E+00  0.00000000000E+00  0.16479712252E+03  0.16479712252E+03  0.00000000000E+00 0. -1.
         21   -1    0    0  501  502 -0.00000000000E+00 -0.00000000000E+00 -0.26704726842E+03  0.26704726842E+03  0.00000000000E+00 0. -1.
      99926    2    1    2    0    0  0.00000000000E+00  0.00000000000E+00 -0.10225014590E+03  0.43184439093E+03  0.41956463822E+03 0.  0.
      99925    2    3    3    0    0  0.42753567132E+02 -0.48707258661E+02 -0.10601028905E+03  0.29091209753E+03  0.26304258696E+03 0.  0.
         25    1    4    4    0    0  0.62464696282E+02 -0.27081513307E+02 -0.53774368556E+02  0.15223152584E+03  0.12509000000E+03 0.  0.
         25    1    4    4    0    0 -0.19711129150E+02 -0.21625745355E+02 -0.52235920493E+02  0.13868057169E+03  0.12509000000E+03 0.  0.
         25    1    3    3    0    0 -0.42753567132E+02  0.48707258661E+02  0.37601431516E+01  0.14093229341E+03  0.12509000000E+03 0.  0.
<mgrwt>
<rscale>  2 0.41956464E+03</rscale>
<asrwt>0</asrwt>
<pdfrwt beam="1">  1       21 0.24234871E-01 0.41956464E+03</pdfrwt>
<pdfrwt beam="2">  1       21 0.39271657E-01 0.41956464E+03</pdfrwt>
<totfact> 0.94201084E+04</totfact>
</mgrwt>
</event>
<event>
 7    0  0.4752811E-002  0.4421562E+03  0.7546771E-02  0.1030087E+00
         21   -1    0    0  502  501  0.00000000000E+00  0.00000000000E+00  0.11064695348E+03  0.11064695348E+03  0.00000000000E+00 0.  1.
         21   -1    0    0  501  502 -0.00000000000E+00 -0.00000000000E+00 -0.44172497581E+03  0.44172497581E+03  0.00000000000E+00 0.  1.
      99926    2    1    2    0    0  0.14210854715E-13 -0.71054273576E-14 -0.33107802233E+03  0.55237192928E+03  0.44215618438E+03 0.  0.
      99925    2    3    3    0    0 -0.78705116034E+02  0.49475686072E+02 -0.16288825437E+03  0.32307377196E+03  0.26306223583E+03 0.  0.
         25    1    4    4    0    0 -0.51317747563E+02  0.16163615083E+02 -0.38590802645E+02  0.14153279414E+03  0.12509000000E+03 0.  0.
         25    1    3    3    0    0  0.78705116034E+02 -0.49475686072E+02 -0.16818976797E+03  0.22929815732E+03  0.12509000000E+03 0.  0.
         25    1    4    4    0    0 -0.27387368471E+02  0.33312070989E+02 -0.12429745172E+03  0.18154097783E+03  0.12509000000E+03 0.  0.
<mgrwt>
<rscale>  2 0.44215618E+03</rscale>
<asrwt>0</asrwt>
<pdfrwt beam="1">  1       21 0.16271611E-01 0.44215618E+03</pdfrwt>
<pdfrwt beam="2">  1       21 0.64959556E-01 0.44215618E+03</pdfrwt>
<totfact> 0.68399745E+04</totfact>
</mgrwt>
</event>
<event>
 7    0  0.4752811E-002  0.4535391E+03  0.7546771E-02  0.1026672E+00
         21   -1    0    0  502  501  0.00000000000E+00  0.00000000000E+00  0.17615760823E+03  0.17615760823E+03  0.00000000000E+00 0. -1.
         21   -1    0    0  501  502 -0.00000000000E+00 -0.00000000000E+00 -0.29192284951E+03  0.29192284951E+03  0.00000000000E+00 0. -1.
      99926    2    1    2    0    0  0.00000000000E+00  0.00000000000E+00 -0.11576524128E+03  0.46808045773E+03  0.45353910948E+03 0.  0.
      99925    2    3    3    0    0 -0.66065452781E+02 -0.84658954350E+02 -0.10528159629E+03  0.30288603436E+03  0.26291434478E+03 0.  0.
         25    1    4    4    0    0 -0.73307161571E+02 -0.52966604785E+02 -0.49340837528E+02  0.16205377968E+03  0.12509000000E+03 0.  0.
         25    1    4    4    0    0  0.72417087899E+01 -0.31692349565E+02 -0.55940758761E+02  0.14083225468E+03  0.12509000000E+03 0.  0.
         25    1    3    3    0    0  0.66065452781E+02  0.84658954350E+02 -0.10483644991E+02  0.16519442338E+03  0.12509000000E+03 0.  0.
<mgrwt>
<rscale>  2 0.45353911E+03</rscale>
<asrwt>0</asrwt>
<pdfrwt beam="1">  1       21 0.25905531E-01 0.45353911E+03</pdfrwt>
<pdfrwt beam="2">  1       21 0.42929830E-01 0.45353911E+03</pdfrwt>
<totfact> 0.68367649E+04</totfact>
</mgrwt>
</event>
<event>
 7    0  0.4752811E-002  0.4533982E+03  0.7546771E-02  0.1026713E+00
         21   -1    0    0  502  501  0.00000000000E+00  0.00000000000E+00  0.16764681643E+03  0.16764681643E+03  0.00000000000E+00 0.  1.
         21   -1    0    0  501  502 -0.00000000000E+00 -0.00000000000E+00 -0.30655213188E+03  0.30655213188E+03  0.00000000000E+00 0.  1.
      99926    2    1    2    0    0  0.00000000000E+00 -0.14210854715E-13 -0.13890531545E+03  0.47419894831E+03  0.45339823104E+03 0.  0.
      99925    2    3    3    0    0  0.29660497608E+02 -0.94500155797E+02 -0.34097667240E+02  0.28330060943E+03  0.26322340288E+03 0.  0.
         25    1    4    4    0    0  0.50633758669E+02 -0.64405103839E+02 -0.32052474679E+02  0.15292698961E+03  0.12509000000E+03 0.  0.
         25    1    4    4    0    0 -0.20973261061E+02 -0.30095051958E+02 -0.20451925615E+01  0.13037361982E+03  0.12509000000E+03 0.  0.
         25    1    3    3    0    0 -0.29660497608E+02  0.94500155797E+02 -0.10480764821E+03  0.19089833888E+03  0.12509000000E+03 0.  0.
<mgrwt>
<rscale>  2 0.45339823E+03</rscale>
<asrwt>0</asrwt>
<pdfrwt beam="1">  1       21 0.24653944E-01 0.45339823E+03</pdfrwt>
<pdfrwt beam="2">  1       21 0.45081195E-01 0.45339823E+03</pdfrwt>
<totfact> 0.67984950E+04</totfact>
</mgrwt>
</event>
<event>
 7    0  0.4752811E-002  0.4348902E+03  0.7546771E-02  0.1032326E+00
         21   -1    0    0  502  501  0.00000000000E+00  0.00000000000E+00  0.39474088784E+02  0.39474088784E+02  0.00000000000E+00 0. -1.
         21   -1    0    0  501  502 -0.00000000000E+00 -0.00000000000E+00 -0.11978076091E+04  0.11978076091E+04  0.00000000000E+00 0. -1.
      99926    2    1    2    0    0  0.00000000000E+00  0.00000000000E+00 -0.11583335203E+04  0.12372816979E+04  0.43489016502E+03 0.  0.
      99925    2    3    3    0    0 -0.60564224925E+02  0.47533977202E+02 -0.89179881545E+03  0.93295332042E+03  0.26300050671E+03 0.  0.
         25    1    4    4    0    0 -0.44558304179E+02 -0.13044608747E+02 -0.40197200389E+03  0.42353819698E+03  0.12509000000E+03 0.  0.
         25    1    3    3    0    0  0.60564224925E+02 -0.47533977202E+02 -0.26653470489E+03  0.30432837748E+03  0.12509000000E+03 0.  0.
         25    1    4    4    0    0 -0.16005920746E+02  0.60578585949E+02 -0.48982681156E+03  0.50941512345E+03  0.12509000000E+03 0.  0.
<mgrwt>
<rscale>  2 0.43489017E+03</rscale>
<asrwt>0</asrwt>
<pdfrwt beam="1">  1       21 0.58050139E-02 0.43489017E+03</pdfrwt>
<pdfrwt beam="2">  1       21 0.17614815E+00 0.43489017E+03</pdfrwt>
<totfact> 0.36357799E+04</totfact>
</mgrwt>
</event>
<event>
 7    0  0.4752811E-002  0.4460224E+03  0.7546771E-02  0.1028915E+00
         21   -1    0    0  502  501  0.00000000000E+00  0.00000000000E+00  0.92501135670E+02  0.92501135670E+02  0.00000000000E+00 0. -1.
         21   -1    0    0  501  502 -0.00000000000E+00 -0.00000000000E+00 -0.53765828144E+03  0.53765828144E+03  0.00000000000E+00 0. -1.
      99926    2    1    2    0    0  0.00000000000E+00  0.17763568394E-14 -0.44515714577E+03  0.63015941711E+03  0.44602242830E+03 0.  0.
      99925    2    3    3    0    0 -0.59463367310E+02 -0.13027039015E+02 -0.16247386109E+03  0.31509919535E+03  0.26302880370E+03 0.  0.
         25    1    3    3    0    0  0.59463367310E+02  0.13027039015E+02 -0.28268328468E+03  0.31506022176E+03  0.12509000000E+03 0.  0.
         25    1    4    4    0    0  0.37167018645E+01 -0.29665841927E+02 -0.70794993830E+02  0.14681047409E+03  0.12509000000E+03 0.  0.
         25    1    4    4    0    0 -0.63180069174E+02  0.16638802912E+02 -0.91678867262E+02  0.16828872127E+03  0.12509000000E+03 0.  0.
<mgrwt>
<rscale>  2 0.44602243E+03</rscale>
<asrwt>0</asrwt>
<pdfrwt beam="1">  1       21 0.13603109E-01 0.44602243E+03</pdfrwt>
<pdfrwt beam="2">  1       21 0.79067392E-01 0.44602243E+03</pdfrwt>
<totfact> 0.61073474E+04</totfact>
</mgrwt>
</event>
<event>
 7    0  0.4752811E-002  0.4540750E+03  0.7546771E-02  0.1026514E+00
         21   -1    0    0  502  501  0.00000000000E+00  0.00000000000E+00  0.11674691885E+03  0.11674691885E+03  0.00000000000E+00 0. -1.
         21   -1    0    0  501  502 -0.00000000000E+00 -0.00000000000E+00 -0.44151934185E+03  0.44151934185E+03  0.00000000000E+00 0. -1.
      99926    2    1    2    0    0  0.00000000000E+00  0.00000000000E+00 -0.32477242300E+03  0.55826626070E+03  0.45407498400E+03 0.  0.
      99925    2    3    3    0    0  0.10768761797E+03 -0.20064696799E+02 -0.17430617371E+03  0.33401904133E+03  0.26303395723E+03 0.  0.
         25    1    4    4    0    0  0.73043281788E+02 -0.37266465486E+02 -0.63504019074E+02  0.16249424298E+03  0.12509000000E+03 0.  0.
         25    1    3    3    0    0 -0.10768761797E+03  0.20064696799E+02 -0.15046624928E+03  0.22424721937E+03  0.12509000000E+03 0.  0.
         25    1    4    4    0    0  0.34644336181E+02  0.17201768687E+02 -0.11080215464E+03  0.17152479835E+03  0.12509000000E+03 0.  0.
<mgrwt>
<rscale>  2 0.45407498E+03</rscale>
<asrwt>0</asrwt>
<pdfrwt beam="1">  1       21 0.17168664E-01 0.45407498E+03</pdfrwt>
<pdfrwt beam="2">  1       21 0.64929315E-01 0.45407498E+03</pdfrwt>
<totfact> 0.61774322E+04</totfact>
</mgrwt>
</event>
<event>
 7    0  0.4752811E-002  0.4562581E+03  0.7546771E-02  0.1025872E+00
         21   -1    0    0  502  501  0.00000000000E+00  0.00000000000E+00  0.11961615090E+04  0.11961615090E+04  0.00000000000E+00 0.  1.
         21   -1    0    0  501  502 -0.00000000000E+00 -0.00000000000E+00 -0.43508222559E+02  0.43508222559E+02  0.00000000000E+00 0.  1.
      99926    2    1    2    0    0  0.00000000000E+00  0.35527136788E-14  0.11526532864E+04  0.12396697315E+04  0.45625808990E+03 0.  0.
      99925    2    3    3    0    0  0.99290326197E+02 -0.27857372142E+02  0.59228511326E+03  0.65632197964E+03  0.26329125224E+03 0.  0.
         25    1    3    3    0    0 -0.99290326197E+02  0.27857372142E+02  0.56036817316E+03  0.58334775190E+03  0.12509000000E+03 0.  0.
         25    1    4    4    0    0  0.53613792835E+02  0.26631689791E+02  0.30317826817E+03  0.33338904612E+03  0.12509000000E+03 0.  0.
         25    1    4    4    0    0  0.45676533362E+02 -0.54489061933E+02  0.28910684509E+03  0.32293293351E+03  0.12509000000E+03 0.  0.
<mgrwt>
<rscale>  2 0.45625809E+03</rscale>
<asrwt>0</asrwt>
<pdfrwt beam="1">  1       21 0.17590608E+00 0.45625809E+03</pdfrwt>
<pdfrwt beam="2">  1       21 0.63982688E-02 0.45625809E+03</pdfrwt>
<totfact> 0.30617400E+04</totfact>
</mgrwt>
</event>
<event>
 7    0  0.4752811E-002  0.4500449E+03  0.7546771E-02  0.1027709E+00
         21   -1    0    0  502  501  0.00000000000E+00  0.00000000000E+00  0.80651934667E+03  0.80651934667E+03  0.00000000000E+00 0.  1.
         21   -1    0    0  501  502 -0.00000000000E+00 -0.00000000000E+00 -0.62782263567E+02  0.62782263567E+02  0.00000000000E+00 0.  1.
      99926    2    1    2    0    0  0.71054273576E-14  0.00000000000E+00  0.74373708311E+03  0.86930161024E+03  0.45004493196E+03 0.  0.
      99925    2    3    3    0    0 -0.60559634046E+02 -0.89933853238E+02  0.47275977002E+03  0.55176140879E+03  0.26302715609E+03 0.  0.
         25    1    4    4    0    0 -0.68498208512E+02 -0.31957650601E+02  0.25447471557E+03  0.29345900049E+03  0.12509000000E+03 0.  0.
         25    1    4    4    0    0  0.79385744656E+01 -0.57976202637E+02  0.21828505445E+03  0.25830240830E+03  0.12509000000E+03 0.  0.
         25    1    3    3    0    0  0.60559634046E+02  0.89933853238E+02  0.27097731308E+03  0.31754020145E+03  0.12509000000E+03 0.  0.
<mgrwt>
<rscale>  2 0.45004493E+03</rscale>
<asrwt>0</asrwt>
<pdfrwt beam="1">  1       21 0.11860578E+00 0.45004493E+03</pdfrwt>
<pdfrwt beam="2">  1       21 0.92326863E-02 0.45004493E+03</pdfrwt>
<totfact> 0.46361071E+04</totfact>
</mgrwt>
</event>
<event>
 7    0  0.4752811E-002  0.4743214E+03  0.7546771E-02  0.1020708E+00
         21   -1    0    0  502  501  0.00000000000E+00  0.00000000000E+00  0.47866516961E+02  0.47866516961E+02  0.00000000000E+00 0. -1.
         21   -1    0    0  501  502 -0.00000000000E+00 -0.00000000000E+00 -0.11750424082E+04  0.11750424082E+04  0.00000000000E+00 0. -1.
      99926    2    1    2    0    0  0.00000000000E+00 -0.14210854715E-13 -0.11271758913E+04  0.12229089252E+04  0.47432135674E+03 0.  0.
      99925    2    3    3    0    0 -0.82838526110E+02  0.98635464616E+02 -0.75438472956E+03  0.80913128607E+03  0.26268982016E+03 0.  0.
         25    1    4    4    0    0 -0.31088796329E+02  0.84105038556E+01 -0.30598273263E+03  0.33212977976E+03  0.12509000000E+03 0.  0.
         25    1    3    3    0    0  0.82838526110E+02 -0.98635464616E+02 -0.37279116170E+03  0.41377763912E+03  0.12509000000E+03 0.  0.
         25    1    4    4    0    0 -0.51749729781E+02  0.90224960761E+02 -0.44840199693E+03  0.47700150631E+03  0.12509000000E+03 0.  0.
<mgrwt>
<rscale>  2 0.47432136E+03</rscale>
<asrwt>0</asrwt>
<pdfrwt beam="1">  1       21 0.70391945E-02 0.47432136E+03</pdfrwt>
<pdfrwt beam="2">  1       21 0.17280033E+00 0.47432136E+03</pdfrwt>
<totfact> 0.27121190E+04</totfact>
</mgrwt>
</event>
<event>
 7    0  0.4752811E-002  0.4540495E+03  0.7546771E-02  0.1026521E+00
         21   -1    0    0  502  501  0.00000000000E+00  0.00000000000E+00  0.48634007690E+03  0.48634007690E+03  0.00000000000E+00 0. -1.
         21   -1    0    0  501  502 -0.00000000000E+00 -0.00000000000E+00 -0.10597570662E+03  0.10597570662E+03  0.00000000000E+00 0. -1.
      99926    2    1    2    0    0  0.71054273576E-14  0.14210854715E-13  0.38036437028E+03  0.59231578351E+03  0.45404948323E+03 0.  0.
      99925    2    3    3    0    0 -0.60224669802E+02 -0.77424313750E+02  0.16908069425E+03  0.32791110302E+03  0.26327908215E+03 0.  0.
         25    1    4    4    0    0 -0.63396095759E+02 -0.57099726551E+02  0.68999777739E+02  0.16639687845E+03  0.12509000000E+03 0.  0.
         25    1    3    3    0    0  0.60224669802E+02  0.77424313750E+02  0.21128367603E+03  0.26440468050E+03  0.12509000000E+03 0.  0.
         25    1    4    4    0    0  0.31714259564E+01 -0.20324587199E+02  0.10008091651E+03  0.16151422457E+03  0.12509000000E+03 0.  0.
<mgrwt>
<rscale>  2 0.45404948E+03</rscale>
<asrwt>0</asrwt>
<pdfrwt beam="1">  1       21 0.71520599E-01 0.45404948E+03</pdfrwt>
<pdfrwt beam="2">  1       21 0.15584663E-01 0.45404948E+03</pdfrwt>
<totfact> 0.59600211E+04</totfact>
</mgrwt>
</event>
<event>
 7    0  0.4752811E-002  0.4569523E+03  0.7546771E-02  0.1025669E+00
         21   -1    0    0  502  501  0.00000000000E+00  0.00000000000E+00  0.89540200757E+02  0.89540200757E+02  0.00000000000E+00 0. -1.
         21   -1    0    0  501  502 -0.00000000000E+00 -0.00000000000E+00 -0.58299348567E+03  0.58299348567E+03  0.00000000000E+00 0. -1.
      99926    2    1    2    0    0  0.00000000000E+00  0.00000000000E+00 -0.49345328491E+03  0.67253368643E+03  0.45695231150E+03 0.  0.
      99925    2    3    3    0    0 -0.10476637145E+03  0.36826829975E+02 -0.35404099955E+03  0.45478267862E+03  0.26296396600E+03 0.  0.
         25    1    3    3    0    0  0.10476637145E+03 -0.36826829975E+02 -0.13941228536E+03  0.21775100781E+03  0.12509000000E+03 0.  0.
         25    1    4    4    0    0 -0.91357941170E+01  0.14458655393E+02 -0.14915619836E+03  0.19541646568E+03  0.12509000000E+03 0.  0.
         25    1    4    4    0    0 -0.95630577329E+02  0.22368174582E+02 -0.20488480119E+03  0.25936621293E+03  0.12509000000E+03 0.  0.
<mgrwt>
<rscale>  2 0.45695231E+03</rscale>
<asrwt>0</asrwt>
<pdfrwt beam="1">  1       21 0.13167677E-01 0.45695231E+03</pdfrwt>
<pdfrwt beam="2">  1       21 0.85734337E-01 0.45695231E+03</pdfrwt>
<totfact> 0.53590469E+04</totfact>
</mgrwt>
</event>
<event>
 7    0  0.4752811E-002  0.4501539E+03  0.7546771E-02  0.1027676E+00
         21   -1    0    0  502  501  0.00000000000E+00  0.00000000000E+00  0.51371783903E+02  0.51371783903E+02  0.00000000000E+00 0. -1.
         21   -1    0    0  501  502 -0.00000000000E+00 -0.00000000000E+00 -0.98613729794E+03  0.98613729794E+03  0.00000000000E+00 0. -1.
      99926    2    1    2    0    0  0.17763568394E-14  0.00000000000E+00 -0.93476551403E+03  0.10375090818E+04  0.45015389443E+03 0.  0.
      99925    2    3    3    0    0  0.65479535884E+01  0.33513407876E+02 -0.35364154234E+03  0.44209443407E+03  0.26309527545E+03 0.  0.
         25    1    4    4    0    0  0.23973257198E+02  0.47186421882E+02 -0.21251894384E+03  0.25221634575E+03  0.12509000000E+03 0.  0.
         25    1    3    3    0    0 -0.65479535884E+01 -0.33513407876E+02 -0.58112397169E+03  0.59541464777E+03  0.12509000000E+03 0.  0.
         25    1    4    4    0    0 -0.17425303610E+02 -0.13673014006E+02 -0.14112259850E+03  0.18987808832E+03  0.12509000000E+03 0.  0.
<mgrwt>
<rscale>  2 0.45015389E+03</rscale>
<asrwt>0</asrwt>
<pdfrwt beam="1">  1       21 0.75546746E-02 0.45015389E+03</pdfrwt>
<pdfrwt beam="2">  1       21 0.14502018E+00 0.45015389E+03</pdfrwt>
<totfact> 0.39201202E+04</totfact>
</mgrwt>
</event>
<event>
 7    0  0.4752811E-002  0.4466817E+03  0.7546771E-02  0.1028716E+00
         21   -1    0    0  502  501  0.00000000000E+00  0.00000000000E+00  0.11436860378E+03  0.11436860378E+03  0.00000000000E+00 0. -1.
         21   -1    0    0  501  502 -0.00000000000E+00 -0.00000000000E+00 -0.43614354665E+03  0.43614354665E+03  0.00000000000E+00 0. -1.
      99926    2    1    2    0    0  0.00000000000E+00  0.00000000000E+00 -0.32177494287E+03  0.55051215043E+03  0.44668166955E+03 0.  0.
      99925    2    3    3    0    0 -0.45577230848E+02 -0.50045612601E+02 -0.10527628122E+03  0.29147349326E+03  0.26323346021E+03 0.  0.
         25    1    4    4    0    0 -0.12763634359E+02 -0.54470114701E+02 -0.25275751764E+02  0.13934229611E+03  0.12509000000E+03 0.  0.
         25    1    4    4    0    0 -0.32813596489E+02  0.44245020998E+01 -0.80000529455E+02  0.15213119715E+03  0.12509000000E+03 0.  0.
         25    1    3    3    0    0  0.45577230848E+02  0.50045612601E+02 -0.21649866165E+03  0.25903865717E+03  0.12509000000E+03 0.  0.
<mgrwt>
<rscale>  2 0.44668167E+03</rscale>
<asrwt>0</asrwt>
<pdfrwt beam="1">  1       21 0.16818912E-01 0.44668167E+03</pdfrwt>
<pdfrwt beam="2">  1       21 0.64138757E-01 0.44668167E+03</pdfrwt>
<totfact> 0.66075027E+04</totfact>
</mgrwt>
</event>
<event>
 7    0  0.4752811E-002  0.4109627E+03  0.7546771E-02  0.1040048E+00
         21   -1    0    0  502  501  0.00000000000E+00  0.00000000000E+00  0.91534723775E+02  0.91534723775E+02  0.00000000000E+00 0. -1.
         21   -1    0    0  501  502 -0.00000000000E+00 -0.00000000000E+00 -0.46127403437E+03  0.46127403437E+03  0.00000000000E+00 0. -1.
      99926    2    1    2    0    0 -0.26645352591E-14  0.71054273576E-14 -0.36973931060E+03  0.55280875815E+03  0.41096272980E+03 0.  0.
      99925    2    3    3    0    0 -0.58021775298E+01 -0.39754003867E+02 -0.17742403973E+03  0.31989951060E+03  0.26313943246E+03 0.  0.
         25    1    4    4    0    0 -0.43562485838E+02 -0.16763859140E+02 -0.89555042534E+02  0.16076794111E+03  0.12509000000E+03 0.  0.
         25    1    4    4    0    0  0.37760308308E+02 -0.22990144727E+02 -0.87868997199E+02  0.15913156949E+03  0.12509000000E+03 0.  0.
         25    1    3    3    0    0  0.58021775298E+01  0.39754003867E+02 -0.19231527087E+03  0.23290924755E+03  0.12509000000E+03 0.  0.
<mgrwt>
<rscale>  2 0.41096273E+03</rscale>
<asrwt>0</asrwt>
<pdfrwt beam="1">  1       21 0.13460989E-01 0.41096273E+03</pdfrwt>
<pdfrwt beam="2">  1       21 0.67834418E-01 0.41096273E+03</pdfrwt>
<totfact> 0.88806984E+04</totfact>
</mgrwt>
</event>
<event>
 7    0  0.4752811E-002  0.4547477E+03  0.7546771E-02  0.1026316E+00
         21   -1    0    0  502  501  0.00000000000E+00  0.00000000000E+00  0.18274734006E+03  0.18274734006E+03  0.00000000000E+00 0.  1.
         21   -1    0    0  501  502 -0.00000000000E+00 -0.00000000000E+00 -0.28289810831E+03  0.28289810831E+03  0.00000000000E+00 0.  1.
      99926    2    1    2    0    0  0.00000000000E+00 -0.71054273576E-14 -0.10015076825E+03  0.46564544838E+03  0.45474774019E+03 0.  0.
      99925    2    3    3    0    0  0.34964276328E+02 -0.48121963003E+02 -0.16136572697E+03  0.31420898244E+03  0.26296418552E+03 0.  0.
         25    1    3    3    0    0 -0.34964276328E+02  0.48121963003E+02  0.61214958725E+02  0.15143646593E+03  0.12509000000E+03 0.  0.
         25    1    4    4    0    0 -0.12362034660E+02 -0.23331110381E+01 -0.97449091921E+02  0.15906632869E+03  0.12509000000E+03 0.  0.
         25    1    4    4    0    0  0.47326310988E+02 -0.45788851965E+02 -0.63916635051E+02  0.15514265375E+03  0.12509000000E+03 0.  0.
<mgrwt>
<rscale>  2 0.45474774E+03</rscale>
<asrwt>0</asrwt>
<pdfrwt beam="1">  1       21 0.26874609E-01 0.45474774E+03</pdfrwt>
<pdfrwt beam="2">  1       21 0.41602662E-01 0.45474774E+03</pdfrwt>
<totfact> 0.67897185E+04</totfact>
</mgrwt>
</event>
<event>
 7    0  0.4752811E-002  0.4479801E+03  0.7546771E-02  0.1028326E+00
         21   -1    0    0  502  501  0.00000000000E+00  0.00000000000E+00  0.10988306605E+03  0.10988306605E+03  0.00000000000E+00 0. -1.
         21   -1    0    0  501  502 -0.00000000000E+00 -0.00000000000E+00 -0.45659027420E+03  0.45659027420E+03  0.00000000000E+00 0. -1.
      99926    2    1    2    0    0  0.00000000000E+00 -0.35527136788E-14 -0.34670720815E+03  0.56647334026E+03  0.44798008554E+03 0.  0.
      99925    2    3    3    0    0 -0.65791822679E+02  0.22748117141E+02 -0.11786866184E+03  0.29654625910E+03  0.26306011020E+03 0.  0.
         25    1    4    4    0    0 -0.61315599462E+02 -0.12995336544E+02 -0.79082798937E+02  0.16071738766E+03  0.12509000000E+03 0.  0.
         25    1    4    4    0    0 -0.44762232171E+01  0.35743453685E+02 -0.38785862906E+02  0.13582887144E+03  0.12509000000E+03 0.  0.
         25    1    3    3    0    0  0.65791822679E+02 -0.22748117141E+02 -0.22883854630E+03  0.26992708115E+03  0.12509000000E+03 0.  0.
<mgrwt>
<rscale>  2 0.44798009E+03</rscale>
<asrwt>0</asrwt>
<pdfrwt beam="1">  1       21 0.16159275E-01 0.44798009E+03</pdfrwt>
<pdfrwt beam="2">  1       21 0.67145628E-01 0.44798009E+03</pdfrwt>
<totfact> 0.64286185E+04</totfact>
</mgrwt>
</event>
<event>
 7    0  0.4752811E-002  0.4815534E+03  0.7546771E-02  0.1018709E+00
         21   -1    0    0  502  501  0.00000000000E+00  0.00000000000E+00  0.48259574714E+02  0.48259574714E+02  0.00000000000E+00 0.  1.
         21   -1    0    0  501  502 -0.00000000000E+00 -0.00000000000E+00 -0.12012830747E+04  0.12012830747E+04  0.00000000000E+00 0.  1.
      99926    2    1    2    0    0  0.00000000000E+00  0.00000000000E+00 -0.11530234999E+04  0.12495426494E+04  0.48155336275E+03 0.  0.
      99925    2    3    3    0    0  0.22046390881E+02 -0.12894157260E+03 -0.81135547877E+03  0.86289485449E+03  0.26301681406E+03 0.  0.
         25    1    4    4    0    0  0.42497296586E+02 -0.93846401068E+02 -0.43279000123E+03  0.46213402869E+03  0.12509000000E+03 0.  0.
         25    1    3    3    0    0 -0.22046390881E+02  0.12894157260E+03 -0.34166802117E+03  0.38664779488E+03  0.12509000000E+03 0.  0.
         25    1    4    4    0    0 -0.20450905705E+02 -0.35095171529E+02 -0.37856547754E+03  0.40076082580E+03  0.12509000000E+03 0.  0.
<mgrwt>
<rscale>  2 0.48155336E+03</rscale>
<asrwt>0</asrwt>
<pdfrwt beam="1">  1       21 0.70969967E-02 0.48155336E+03</pdfrwt>
<pdfrwt beam="2">  1       21 0.17665927E+00 0.48155336E+03</pdfrwt>
<totfact> 0.25028241E+04</totfact>
</mgrwt>
</event>
<event>
 7    0  0.4752811E-002  0.4539387E+03  0.7546771E-02  0.1026554E+00
         21   -1    0    0  502  501  0.00000000000E+00  0.00000000000E+00  0.17806757407E+04  0.17806757407E+04  0.00000000000E+00 0. -1.
         21   -1    0    0  501  502 -0.00000000000E+00 -0.00000000000E+00 -0.28930070472E+02  0.28930070472E+02  0.00000000000E+00 0. -1.
      99926    2    1    2    0    0 -0.14210854715E-13 -0.71054273576E-14  0.17517456703E+04  0.18096058112E+04  0.45393865078E+03 0.  0.
      99925    2    3    3    0    0 -0.83035479410E+02 -0.61380666112E+02  0.92946539005E+03  0.97148001854E+03  0.26306850458E+03 0.  0.
         25    1    4    4    0    0 -0.75453741859E+02 -0.13313903178E+02  0.53820819123E+03  0.55784056180E+03  0.12509000000E+03 0.  0.
         25    1    3    3    0    0  0.83035479410E+02  0.61380666112E+02  0.82228028023E+03  0.83812579268E+03  0.12509000000E+03 0.  0.
         25    1    4    4    0    0 -0.75817375511E+01 -0.48066762934E+02  0.39125719882E+03  0.41363945674E+03  0.12509000000E+03 0.  0.
<mgrwt>
<rscale>  2 0.45393865E+03</rscale>
<asrwt>0</asrwt>
<pdfrwt beam="1">  1       21 0.26186400E+00 0.45393865E+03</pdfrwt>
<pdfrwt beam="2">  1       21 0.42544233E-02 0.45393865E+03</pdfrwt>
<totfact> 0.17217059E+04</totfact>
</mgrwt>
</event>
<event>
 7    0  0.4752811E-002  0.4544713E+03  0.7546771E-02  0.1026397E+00
         21   -1    0    0  502  501  0.00000000000E+00  0.00000000000E+00  0.14166599396E+03  0.14166599396E+03  0.00000000000E+00 0.  1.
         21   -1    0    0  501  502 -0.00000000000E+00 -0.00000000000E+00 -0.36449143923E+03  0.36449143923E+03  0.00000000000E+00 0.  1.
      99926    2    1    2    0    0 -0.35527136788E-14  0.55511151231E-15 -0.22282544527E+03  0.50615743319E+03  0.45447130615E+03 0.  0.
      99925    2    3    3    0    0  0.30122527726E+02  0.85097497001E+00 -0.19177824096E+02  0.26526751529E+03  0.26285162145E+03 0.  0.
         25    1    4    4    0    0  0.18339568221E+02 -0.12125112825E+02 -0.47884928554E+02  0.13573441939E+03  0.12509000000E+03 0.  0.
         25    1    3    3    0    0 -0.30122527726E+02 -0.85097497001E+00 -0.20364762117E+03  0.24088991790E+03  0.12509000000E+03 0.  0.
         25    1    4    4    0    0  0.11782959505E+02  0.12976087795E+02  0.28707104457E+02  0.12953309591E+03  0.12509000000E+03 0.  0.
<mgrwt>
<rscale>  2 0.45447131E+03</rscale>
<asrwt>0</asrwt>
<pdfrwt beam="1">  1       21 0.20833234E-01 0.45447131E+03</pdfrwt>
<pdfrwt beam="2">  1       21 0.53601683E-01 0.45447131E+03</pdfrwt>
<totfact> 0.65113014E+04</totfact>
</mgrwt>
</event>
<event>
 7    0  0.4752811E-002  0.4466603E+03  0.7546771E-02  0.1028723E+00
         21   -1    0    0  502  501  0.00000000000E+00  0.00000000000E+00  0.68643319314E+02  0.68643319314E+02  0.00000000000E+00 0. -1.
         21   -1    0    0  501  502 -0.00000000000E+00 -0.00000000000E+00 -0.72660189869E+03  0.72660189869E+03  0.00000000000E+00 0. -1.
      99926    2    1    2    0    0  0.00000000000E+00  0.00000000000E+00 -0.65795857938E+03  0.79524521800E+03  0.44666034588E+03 0.  0.
      99925    2    3    3    0    0  0.93551692998E+02 -0.46844738717E+02 -0.41749314540E+03  0.50469835114E+03  0.26357835719E+03 0.  0.
         25    1    4    4    0    0  0.42361110181E+02 -0.52015820041E+01 -0.13583458750E+03  0.18952589104E+03  0.12509000000E+03 0.  0.
         25    1    3    3    0    0 -0.93551692998E+02  0.46844738717E+02 -0.24046543398E+03  0.29054686687E+03  0.12509000000E+03 0.  0.
         25    1    4    4    0    0  0.51190582817E+02 -0.41643156713E+02 -0.28165855790E+03  0.31517246010E+03  0.12509000000E+03 0.  0.
<mgrwt>
<rscale>  2 0.44666035E+03</rscale>
<asrwt>0</asrwt>
<pdfrwt beam="1">  1       21 0.10094606E-01 0.44666035E+03</pdfrwt>
<pdfrwt beam="2">  1       21 0.10685322E+00 0.44666035E+03</pdfrwt>
<totfact> 0.51269863E+04</totfact>
</mgrwt>
</event>
<event>
 7    0  0.4752811E-002  0.4488067E+03  0.7546771E-02  0.1028078E+00
         21   -1    0    0  502  501  0.00000000000E+00  0.00000000000E+00  0.48129260561E+03  0.48129260561E+03  0.00000000000E+00 0.  1.
         21   -1    0    0  501  502 -0.00000000000E+00 -0.00000000000E+00 -0.10462837546E+03  0.10462837546E+03  0.00000000000E+00 0.  1.
      99926    2    1    2    0    0 -0.17763568394E-14  0.00000000000E+00  0.37666423016E+03  0.58592098107E+03  0.44880669980E+03 0.  0.
      99925    2    3    3    0    0 -0.13415600712E+02  0.46816962559E+02  0.36306162120E+03  0.45099750129E+03  0.26308401520E+03 0.  0.
         25    1    3    3    0    0  0.13415600712E+02 -0.46816962559E+02  0.13602608953E+02  0.13492347978E+03  0.12509000000E+03 0.  0.
         25    1    4    4    0    0  0.19555995398E+02  0.66854949142E+01  0.22050906849E+03  0.25435976526E+03  0.12509000000E+03 0.  0.
         25    1    4    4    0    0 -0.32971596110E+02  0.40131467645E+02  0.14255255271E+03  0.19663773603E+03  0.12509000000E+03 0.  0.
<mgrwt>
<rscale>  2 0.44880670E+03</rscale>
<asrwt>0</asrwt>
<pdfrwt beam="1">  1       21 0.70778324E-01 0.44880670E+03</pdfrwt>
<pdfrwt beam="2">  1       21 0.15386526E-01 0.44880670E+03</pdfrwt>
<totfact> 0.62560081E+04</totfact>
</mgrwt>
</event>
<event>
 7    0  0.4752811E-002  0.4553016E+03  0.7546771E-02  0.1026153E+00
         21   -1    0    0  502  501  0.00000000000E+00  0.00000000000E+00  0.35788088448E+03  0.35788088448E+03  0.00000000000E+00 0. -1.
         21   -1    0    0  501  502 -0.00000000000E+00 -0.00000000000E+00 -0.14481045381E+03  0.14481045381E+03  0.00000000000E+00 0. -1.
      99926    2    1    2    0    0  0.00000000000E+00  0.00000000000E+00  0.21307043067E+03  0.50269133828E+03  0.45530162877E+03 0.  0.
      99925    2    3    3    0    0 -0.10602248147E+03  0.40357772617E+02  0.13630266760E+03  0.31719116596E+03  0.26298726619E+03 0.  0.
         25    1    4    4    0    0 -0.55063055412E+02  0.43932571030E+02  0.10669366009E+03  0.17886602828E+03  0.12509000000E+03 0.  0.
         25    1    3    3    0    0  0.10602248147E+03 -0.40357772617E+02  0.76767763070E+02  0.18550017233E+03  0.12509000000E+03 0.  0.
         25    1    4    4    0    0 -0.50959426056E+02 -0.35747984128E+01  0.29609007511E+02  0.13832513768E+03  0.12509000000E+03 0.  0.
<mgrwt>
<rscale>  2 0.45530163E+03</rscale>
<asrwt>0</asrwt>
<pdfrwt beam="1">  1       21 0.52629542E-01 0.45530163E+03</pdfrwt>
<pdfrwt beam="2">  1       21 0.21295655E-01 0.45530163E+03</pdfrwt>
<totfact> 0.64926410E+04</totfact>
</mgrwt>
</event>
<event>
 7    0  0.4752811E-002  0.4548552E+03  0.7546771E-02  0.1026284E+00
         21   -1    0    0  502  501  0.00000000000E+00  0.00000000000E+00  0.16691390495E+03  0.16691390495E+03  0.00000000000E+00 0. -1.
         21   -1    0    0  501  502 -0.00000000000E+00 -0.00000000000E+00 -0.30988015665E+03  0.30988015665E+03  0.00000000000E+00 0. -1.
      99926    2    1    2    0    0  0.00000000000E+00  0.00000000000E+00 -0.14296625170E+03  0.47679406161E+03  0.45485517262E+03 0.  0.
      99925    2    3    3    0    0 -0.10353320728E+03 -0.24699377564E+02 -0.12945981117E+03  0.31199383012E+03  0.26315608118E+03 0.  0.
         25    1    4    4    0    0 -0.77664126651E+02  0.16129366193E+02 -0.84651160651E+02  0.17060246224E+03  0.12509000000E+03 0.  0.
         25    1    3    3    0    0  0.10353320728E+03  0.24699377564E+02 -0.13506440527E+02  0.16480023149E+03  0.12509000000E+03 0.  0.
         25    1    4    4    0    0 -0.25869080632E+02 -0.40828743757E+02 -0.44808650522E+02  0.14139136788E+03  0.12509000000E+03 0.  0.
<mgrwt>
<rscale>  2 0.45485517E+03</rscale>
<asrwt>0</asrwt>
<pdfrwt beam="1">  1       21 0.24546163E-01 0.45485517E+03</pdfrwt>
<pdfrwt beam="2">  1       21 0.45570611E-01 0.45485517E+03</pdfrwt>
<totfact> 0.67011206E+04</totfact>
</mgrwt>
</event>
<event>
 7    0  0.4752811E-002  0.4531730E+03  0.7546771E-02  0.1026780E+00
         21   -1    0    0  502  501  0.00000000000E+00  0.00000000000E+00  0.10538868772E+04  0.10538868772E+04  0.00000000000E+00 0.  1.
         21   -1    0    0  501  502 -0.00000000000E+00 -0.00000000000E+00 -0.48716267515E+02  0.48716267515E+02  0.00000000000E+00 0.  1.
      99926    2    1    2    0    0  0.00000000000E+00 -0.35527136788E-14  0.10051706096E+04  0.11026031447E+04  0.45317296935E+03 0.  0.
      99925    2    3    3    0    0 -0.87233048973E+02  0.28787050149E+02  0.48530026304E+03  0.56006191631E+03  0.26403542511E+03 0.  0.
         25    1    3    3    0    0  0.87233048973E+02 -0.28787050149E+02  0.51987034660E+03  0.54254122835E+03  0.12509000000E+03 0.  0.
         25    1    4    4    0    0 -0.63777718613E+02  0.52846680036E+02  0.26257129828E+03  0.30240959602E+03  0.12509000000E+03 0.  0.
         25    1    4    4    0    0 -0.23455330360E+02 -0.24059629887E+02  0.22272896476E+03  0.25765232030E+03  0.12509000000E+03 0.  0.
<mgrwt>
<rscale>  2 0.45317297E+03</rscale>
<asrwt>0</asrwt>
<pdfrwt beam="1">  1       21 0.15498335E+00 0.45317297E+03</pdfrwt>
<pdfrwt beam="2">  1       21 0.71641576E-02 0.45317297E+03</pdfrwt>
<totfact> 0.35913185E+04</totfact>
</mgrwt>
</event>
<event>
 7    0  0.4752811E-002  0.4623339E+03  0.7546771E-02  0.1024106E+00
         21   -1    0    0  502  501  0.00000000000E+00  0.00000000000E+00  0.96423698564E+03  0.96423698564E+03  0.00000000000E+00 0.  1.
         21   -1    0    0  501  502 -0.00000000000E+00 -0.00000000000E+00 -0.55420156031E+02  0.55420156031E+02  0.00000000000E+00 0.  1.
      99926    2    1    2    0    0  0.00000000000E+00  0.00000000000E+00  0.90881682961E+03  0.10196571417E+04  0.46233392346E+03 0.  0.
      99925    2    3    3    0    0  0.66033849777E+02 -0.72921106920E+02  0.71959454195E+03  0.77241123291E+03  0.26291605272E+03 0.  0.
         25    1    3    3    0    0 -0.66033849777E+02  0.72921106920E+02  0.18922228766E+03  0.24724590876E+03  0.12509000000E+03 0.  0.
         25    1    4    4    0    0  0.58931947618E+02 -0.63574336781E+02  0.44848201915E+03  0.47360141506E+03  0.12509000000E+03 0.  0.
         25    1    4    4    0    0  0.71019021596E+01 -0.93467701381E+01  0.27111252280E+03  0.29880981785E+03  0.12509000000E+03 0.  0.
<mgrwt>
<rscale>  2 0.46233392E+03</rscale>
<asrwt>0</asrwt>
<pdfrwt beam="1">  1       21 0.14179955E+00 0.46233392E+03</pdfrwt>
<pdfrwt beam="2">  1       21 0.81500235E-02 0.46233392E+03</pdfrwt>
<totfact> 0.36287903E+04</totfact>
</mgrwt>
</event>
<event>
 7    0  0.4752811E-002  0.5147040E+03  0.7546771E-02  0.1010011E+00
         21   -1    0    0  502  501  0.00000000000E+00  0.00000000000E+00  0.15287142546E+03  0.15287142546E+03  0.00000000000E+00 0.  1.
         21   -1    0    0  501  502 -0.00000000000E+00 -0.00000000000E+00 -0.43324031576E+03  0.43324031576E+03  0.00000000000E+00 0.  1.
      99926    2    1    2    0    0  0.00000000000E+00  0.14210854715E-13 -0.28036889030E+03  0.58611174122E+03  0.51470404948E+03 0.  0.
      99925    2    3    3    0    0  0.11871047830E+03 -0.92572023473E+02 -0.97452171071E+02  0.31821662843E+03  0.26287476062E+03 0.  0.
         25    1    4    4    0    0  0.10024071947E+03 -0.40803025451E+02 -0.65429362552E+02  0.17788085425E+03  0.12509000000E+03 0.  0.
         25    1    4    4    0    0  0.18469758831E+02 -0.51768998022E+02 -0.32022808519E+02  0.14033577417E+03  0.12509000000E+03 0.  0.
         25    1    3    3    0    0 -0.11871047830E+03  0.92572023473E+02 -0.18291671923E+03  0.26789511280E+03  0.12509000000E+03 0.  0.
<mgrwt>
<rscale>  2 0.51470405E+03</rscale>
<asrwt>0</asrwt>
<pdfrwt beam="1">  1       21 0.22481092E-01 0.51470405E+03</pdfrwt>
<pdfrwt beam="2">  1       21 0.63711812E-01 0.51470405E+03</pdfrwt>
<totfact> 0.38096356E+04</totfact>
</mgrwt>
</event>
<event>
 7    0  0.4752811E-002  0.4529224E+03  0.7546771E-02  0.1026854E+00
         21   -1    0    0  502  501  0.00000000000E+00  0.00000000000E+00  0.26944790697E+03  0.26944790697E+03  0.00000000000E+00 0. -1.
         21   -1    0    0  501  502 -0.00000000000E+00 -0.00000000000E+00 -0.19033242804E+03  0.19033242804E+03  0.00000000000E+00 0. -1.
      99926    2    1    2    0    0  0.00000000000E+00  0.00000000000E+00  0.79115478928E+02  0.45978033500E+03  0.45292239672E+03 0.  0.
      99925    2    3    3    0    0  0.28510073939E+02 -0.90790785689E+02  0.10836530769E+03  0.29990897526E+03  0.26295733960E+03 0.  0.
         25    1    4    4    0    0  0.17878432945E+02 -0.46015112215E+01  0.37077937487E+02  0.13176909280E+03  0.12509000000E+03 0.  0.
         25    1    4    4    0    0  0.10631640995E+02 -0.86189274467E+02  0.71287370203E+02  0.16813988246E+03  0.12509000000E+03 0.  0.
         25    1    3    3    0    0 -0.28510073939E+02  0.90790785689E+02 -0.29249828762E+02  0.15987135974E+03  0.12509000000E+03 0.  0.
<mgrwt>
<rscale>  2 0.45292240E+03</rscale>
<asrwt>0</asrwt>
<pdfrwt beam="1">  1       21 0.39624692E-01 0.45292240E+03</pdfrwt>
<pdfrwt beam="2">  1       21 0.27990063E-01 0.45292240E+03</pdfrwt>
<totfact> 0.69337419E+04</totfact>
</mgrwt>
</event>
<event>
 7    0  0.4752811E-002  0.4533828E+03  0.7546771E-02  0.1026718E+00
         21   -1    0    0  502  501  0.00000000000E+00  0.00000000000E+00  0.74475963311E+02  0.74475963311E+02  0.00000000000E+00 0.  1.
         21   -1    0    0  501  502 -0.00000000000E+00 -0.00000000000E+00 -0.69000761597E+03  0.69000761597E+03  0.00000000000E+00 0.  1.
      99926    2    1    2    0    0  0.00000000000E+00  0.00000000000E+00 -0.61553165266E+03  0.76448357929E+03  0.45338276055E+03 0.  0.
      99925    2    3    3    0    0  0.27777874999E+02  0.10529775723E+03 -0.34632740142E+03  0.44829112997E+03  0.26298866937E+03 0.  0.
         25    1    4    4    0    0 -0.23956349105E+02  0.67142885304E+02 -0.17822065057E+03  0.22911172406E+03  0.12509000000E+03 0.  0.
         25    1    3    3    0    0 -0.27777874999E+02 -0.10529775723E+03 -0.26920425125E+03  0.31619244932E+03  0.12509000000E+03 0.  0.
         25    1    4    4    0    0  0.51734224103E+02  0.38154871927E+02 -0.16810675085E+03  0.21917940591E+03  0.12509000000E+03 0.  0.
<mgrwt>
<rscale>  2 0.45338276E+03</rscale>
<asrwt>0</asrwt>
<pdfrwt beam="1">  1       21 0.10952347E-01 0.45338276E+03</pdfrwt>
<pdfrwt beam="2">  1       21 0.10147171E+00 0.45338276E+03</pdfrwt>
<totfact> 0.50164339E+04</totfact>
</mgrwt>
</event>
<event>
 7    0  0.4752811E-002  0.4613829E+03  0.7546771E-02  0.1024381E+00
         21   -1    0    0  502  501  0.00000000000E+00  0.00000000000E+00  0.19805384431E+03  0.19805384431E+03  0.00000000000E+00 0. -1.
         21   -1    0    0  501  502 -0.00000000000E+00 -0.00000000000E+00 -0.26870748483E+03  0.26870748483E+03  0.00000000000E+00 0. -1.
      99926    2    1    2    0    0  0.14210854715E-13 -0.35527136788E-14 -0.70653640512E+02  0.46676132914E+03  0.46138292281E+03 0.  0.
      99925    2    3    3    0    0 -0.11733935613E+03  0.20694547525E+02 -0.46151826039E+02  0.29227741639E+03  0.26286747287E+03 0.  0.
         25    1    4    4    0    0 -0.81650323857E+02  0.16356404821E+01 -0.58047461274E+02  0.16026998024E+03  0.12509000000E+03 0.  0.
         25    1    3    3    0    0  0.11733935613E+03 -0.20694547525E+02 -0.24501814473E+02  0.17448391275E+03  0.12509000000E+03 0.  0.
         25    1    4    4    0    0 -0.35689032276E+02  0.19058907043E+02  0.11895635235E+02  0.13200743615E+03  0.12509000000E+03 0.  0.
<mgrwt>
<rscale>  2 0.46138292E+03</rscale>
<asrwt>0</asrwt>
<pdfrwt beam="1">  1       21 0.29125565E-01 0.46138292E+03</pdfrwt>
<pdfrwt beam="2">  1       21 0.39515807E-01 0.46138292E+03</pdfrwt>
<totfact> 0.64351813E+04</totfact>
</mgrwt>
</event>
<event>
 7    0  0.4752811E-002  0.4580999E+03  0.7546771E-02  0.1025334E+00
         21   -1    0    0  502  501  0.00000000000E+00  0.00000000000E+00  0.22115883940E+03  0.22115883940E+03  0.00000000000E+00 0.  1.
         21   -1    0    0  501  502 -0.00000000000E+00 -0.00000000000E+00 -0.23722258795E+03  0.23722258795E+03  0.00000000000E+00 0.  1.
      99926    2    1    2    0    0  0.00000000000E+00  0.00000000000E+00 -0.16063748554E+02  0.45838142735E+03  0.45809986785E+03 0.  0.
      99925    2    3    3    0    0 -0.85142410470E+02 -0.33693583890E+02 -0.81396858309E+02  0.29015416741E+03  0.26301997009E+03 0.  0.
         25    1    4    4    0    0 -0.73862380578E+02 -0.45324388190E+02 -0.49869819514E+02  0.16013887232E+03  0.12509000000E+03 0.  0.
         25    1    3    3    0    0  0.85142410470E+02  0.33693583890E+02  0.65333109755E+02  0.16822725994E+03  0.12509000000E+03 0.  0.
         25    1    4    4    0    0 -0.11280029892E+02  0.11630804300E+02 -0.31527038795E+02  0.13001529509E+03  0.12509000000E+03 0.  0.
<mgrwt>
<rscale>  2 0.45809987E+03</rscale>
<asrwt>0</asrwt>
<pdfrwt beam="1">  1       21 0.32523359E-01 0.45809987E+03</pdfrwt>
<pdfrwt beam="2">  1       21 0.34885675E-01 0.45809987E+03</pdfrwt>
<totfact> 0.66635349E+04</totfact>
</mgrwt>
</event>
<event>
 7    0  0.4752811E-002  0.4558062E+03  0.7546771E-02  0.1026005E+00
         21   -1    0    0  502  501  0.00000000000E+00  0.00000000000E+00  0.23036937158E+03  0.23036937158E+03  0.00000000000E+00 0.  1.
         21   -1    0    0  501  502 -0.00000000000E+00 -0.00000000000E+00 -0.22546324679E+03  0.22546324679E+03  0.00000000000E+00 0.  1.
      99926    2    1    2    0    0  0.71054273576E-14  0.00000000000E+00  0.49061247904E+01  0.45583261837E+03  0.45580621531E+03 0.  0.
      99925    2    3    3    0    0  0.35616290954E+02  0.40406924322E+02 -0.97396490427E+02  0.28549597259E+03  0.26290803393E+03 0.  0.
         25    1    3    3    0    0 -0.35616290954E+02 -0.40406924322E+02  0.10230261522E+03  0.17033664578E+03  0.12509000000E+03 0.  0.
         25    1    4    4    0    0  0.41126211212E+02  0.60280283193E+01 -0.80763872901E+02  0.15458982386E+03  0.12509000000E+03 0.  0.
         25    1    4    4    0    0 -0.55099202578E+01  0.34378896003E+02 -0.16632617526E+02  0.13090614874E+03  0.12509000000E+03 0.  0.
<mgrwt>
<rscale>  2 0.45580622E+03</rscale>
<asrwt>0</asrwt>
<pdfrwt beam="1">  1       21 0.33877849E-01 0.45580622E+03</pdfrwt>
<pdfrwt beam="2">  1       21 0.33156360E-01 0.45580622E+03</pdfrwt>
<totfact> 0.68046059E+04</totfact>
</mgrwt>
</event>
<event>
 7    0  0.4752811E-002  0.4570929E+03  0.7546771E-02  0.1025628E+00
         21   -1    0    0  502  501  0.00000000000E+00  0.00000000000E+00  0.62111012428E+03  0.62111012428E+03  0.00000000000E+00 0. -1.
         21   -1    0    0  501  502 -0.00000000000E+00 -0.00000000000E+00 -0.84096987407E+02  0.84096987407E+02  0.00000000000E+00 0. -1.
      99926    2    1    2    0    0  0.00000000000E+00  0.35527136788E-14  0.53701313688E+03  0.70520711169E+03  0.45709294591E+03 0.  0.
      99925    2    3    3    0    0  0.27175205886E+02 -0.21493016769E+02  0.50663323991E+03  0.57189961819E+03  0.26304275682E+03 0.  0.
         25    1    3    3    0    0 -0.27175205886E+02  0.21493016769E+02  0.30379896964E+02  0.13330749350E+03  0.12509000000E+03 0.  0.
         25    1    4    4    0    0  0.56240731819E+01 -0.46358081124E+02  0.29601054531E+03  0.32473135500E+03  0.12509000000E+03 0.  0.
         25    1    4    4    0    0  0.21551132704E+02  0.24865064355E+02  0.21062269460E+03  0.24716826319E+03  0.12509000000E+03 0.  0.
<mgrwt>
<rscale>  2 0.45709295E+03</rscale>
<asrwt>0</asrwt>
<pdfrwt beam="1">  1       21 0.91339722E-01 0.45709295E+03</pdfrwt>
<pdfrwt beam="2">  1       21 0.12367204E-01 0.45709295E+03</pdfrwt>
<totfact> 0.51763391E+04</totfact>
</mgrwt>
</event>
<event>
 7    0  0.4752811E-002  0.4535510E+03  0.7546771E-02  0.1026668E+00
         21   -1    0    0  502  501  0.00000000000E+00  0.00000000000E+00  0.32009420995E+03  0.32009420995E+03  0.00000000000E+00 0.  1.
         21   -1    0    0  501  502 -0.00000000000E+00 -0.00000000000E+00 -0.16066246986E+03  0.16066246986E+03  0.00000000000E+00 0.  1.
      99926    2    1    2    0    0  0.00000000000E+00  0.00000000000E+00  0.15943174008E+03  0.48075667981E+03  0.45355099541E+03 0.  0.
      99925    2    3    3    0    0 -0.23240442511E+02  0.10921854478E+03  0.10646525870E+03  0.30491082418E+03  0.26299610396E+03 0.  0.
         25    1    4    4    0    0 -0.51849498728E+01  0.95088372664E+02  0.73426310134E+02  0.17351545591E+03  0.12509000000E+03 0.  0.
         25    1    3    3    0    0  0.23240442511E+02 -0.10921854478E+03  0.52966481386E+02  0.17584585563E+03  0.12509000000E+03 0.  0.
         25    1    4    4    0    0 -0.18055492638E+02  0.14130172119E+02  0.33038948562E+02  0.13139536826E+03  0.12509000000E+03 0.  0.
<mgrwt>
<rscale>  2 0.45355100E+03</rscale>
<asrwt>0</asrwt>
<pdfrwt beam="1">  1       21 0.47072678E-01 0.45355100E+03</pdfrwt>
<pdfrwt beam="2">  1       21 0.23626834E-01 0.45355100E+03</pdfrwt>
<totfact> 0.67417156E+04</totfact>
</mgrwt>
</event>
<event>
 7    0  0.4752811E-002  0.4495635E+03  0.7546771E-02  0.1027852E+00
         21   -1    0    0  502  501  0.00000000000E+00  0.00000000000E+00  0.16057379487E+03  0.16057379487E+03  0.00000000000E+00 0.  1.
         21   -1    0    0  501  502 -0.00000000000E+00 -0.00000000000E+00 -0.31466430822E+03  0.31466430822E+03  0.00000000000E+00 0.  1.
      99926    2    1    2    0    0  0.00000000000E+00 -0.17763568394E-14 -0.15409051335E+03  0.47523810309E+03  0.44956353091E+03 0.  0.
      99925    2    3    3    0    0 -0.92513138447E+02  0.98187422989E+01 -0.39550643876E+02  0.28179049188E+03  0.26303334275E+03 0.  0.
         25    1    4    4    0    0 -0.70364887330E+02 -0.27121711068E+02 -0.11216276709E+02  0.14649272181E+03  0.12509000000E+03 0.  0.
         25    1    3    3    0    0  0.92513138447E+02 -0.98187422989E+01 -0.11453986948E+03  0.19344761122E+03  0.12509000000E+03 0.  0.
         25    1    4    4    0    0 -0.22148251117E+02  0.36940453367E+02 -0.28334367168E+02  0.13529777007E+03  0.12509000000E+03 0.  0.
<mgrwt>
<rscale>  2 0.44956353E+03</rscale>
<asrwt>0</asrwt>
<pdfrwt beam="1">  1       21 0.23613794E-01 0.44956353E+03</pdfrwt>
<pdfrwt beam="2">  1       21 0.46274163E-01 0.44956353E+03</pdfrwt>
<totfact> 0.70021328E+04</totfact>
</mgrwt>
</event>
<event>
 7    0  0.4752811E-002  0.4608938E+03  0.7546771E-02  0.1024522E+00
         21   -1    0    0  502  501  0.00000000000E+00  0.00000000000E+00  0.24933703417E+03  0.24933703417E+03  0.00000000000E+00 0.  1.
         21   -1    0    0  501  502 -0.00000000000E+00 -0.00000000000E+00 -0.21298792213E+03  0.21298792213E+03  0.00000000000E+00 0.  1.
      99926    2    1    2    0    0  0.71054273576E-14  0.00000000000E+00  0.36349112038E+02  0.46232495630E+03  0.46089381344E+03 0.  0.
      99925    2    3    3    0    0 -0.36110118625E+02  0.11231577534E+03  0.70212188979E+01  0.28789328637E+03  0.26251566194E+03 0.  0.
         25    1    4    4    0    0 -0.22047860881E+01  0.85150216648E+02  0.27751253192E+02  0.15386052330E+03  0.12509000000E+03 0.  0.
         25    1    3    3    0    0  0.36110118625E+02 -0.11231577534E+03  0.29327893140E+02  0.17443166993E+03  0.12509000000E+03 0.  0.
         25    1    4    4    0    0 -0.33905332537E+02  0.27165558695E+02 -0.20730034294E+02  0.13403276307E+03  0.12509000000E+03 0.  0.
<mgrwt>
<rscale>  2 0.46089381E+03</rscale>
<asrwt>0</asrwt>
<pdfrwt beam="1">  1       21 0.36667211E-01 0.46089381E+03</pdfrwt>
<pdfrwt beam="2">  1       21 0.31321753E-01 0.46089381E+03</pdfrwt>
<totfact> 0.64906164E+04</totfact>
</mgrwt>
</event>
<event>
 7    0  0.4752811E-002  0.4446888E+03  0.7546771E-02  0.1029318E+00
         21   -1    0    0  502  501  0.00000000000E+00  0.00000000000E+00  0.31531865170E+03  0.31531865170E+03  0.00000000000E+00 0.  1.
         21   -1    0    0  501  502 -0.00000000000E+00 -0.00000000000E+00 -0.15678434937E+03  0.15678434937E+03  0.00000000000E+00 0.  1.
      99926    2    1    2    0    0  0.00000000000E+00  0.00000000000E+00  0.15853430233E+03  0.47210300107E+03  0.44468878849E+03 0.  0.
      99925    2    3    3    0    0 -0.64875306708E+02 -0.79904223419E+02  0.10660611555E+03  0.30199263977E+03  0.26313722705E+03 0.  0.
         25    1    3    3    0    0  0.64875306708E+02  0.79904223419E+02  0.51928186783E+02  0.17011036130E+03  0.12509000000E+03 0.  0.
         25    1    4    4    0    0 -0.30752036129E+02 -0.59990442280E+02  0.93627875981E+02  0.17017117309E+03  0.12509000000E+03 0.  0.
         25    1    4    4    0    0 -0.34123270580E+02 -0.19913781139E+02  0.12978239568E+02  0.13182146668E+03  0.12509000000E+03 0.  0.
<mgrwt>
<rscale>  2 0.44468879E+03</rscale>
<asrwt>0</asrwt>
<pdfrwt beam="1">  1       21 0.46370390E-01 0.44468879E+03</pdfrwt>
<pdfrwt beam="2">  1       21 0.23056522E-01 0.44468879E+03</pdfrwt>
<totfact> 0.73079671E+04</totfact>
</mgrwt>
</event>
<event>
 6    0  0.4752811E-002  0.4507375E+03  0.7546771E-02  0.1027502E+00
         21   -1    0    0  502  501  0.00000000000E+00  0.00000000000E+00  0.11590494598E+04  0.11590494598E+04  0.00000000000E+00 0.  1.
         21   -1    0    0  501  502 -0.00000000000E+00 -0.00000000000E+00 -0.43821325199E+02  0.43821325199E+02  0.00000000000E+00 0.  1.
      99926    2    1    2    0    0  0.35527136788E-14 -0.14210854715E-13  0.11152281346E+04  0.12028707850E+04  0.45073754358E+03 0.  0.
         25    1    3    3    0    0 -0.25903372464E+02  0.82793165820E+02  0.57718378293E+03  0.59692069857E+03  0.12509000000E+03 0.  0.
         25    1    3    3    0    0  0.87486642023E+01 -0.12643673950E+02  0.17878251375E+03  0.21873979277E+03  0.12509000000E+03 0.  0.
         25    1    3    3    0    0  0.17154708261E+02 -0.70149491869E+02  0.35926183787E+03  0.38721029361E+03  0.12509000000E+03 0.  0.
<mgrwt>
<rscale>  2 0.45073754E+03</rscale>
<asrwt>0</asrwt>
<pdfrwt beam="1">  1       21 0.17044843E+00 0.45073754E+03</pdfrwt>
<pdfrwt beam="2">  1       21 0.64443133E-02 0.45073754E+03</pdfrwt>
<totfact> 0.33152255E+04</totfact>
</mgrwt>
</event>
<event>
 7    0  0.4752811E-002  0.4395026E+03  0.7546771E-02  0.1030900E+00
         21   -1    0    0  502  501  0.00000000000E+00  0.00000000000E+00  0.40264227887E+03  0.40264227887E+03  0.00000000000E+00 0.  1.
         21   -1    0    0  501  502 -0.00000000000E+00 -0.00000000000E+00 -0.11993430825E+03  0.11993430825E+03  0.00000000000E+00 0.  1.
      99926    2    1    2    0    0  0.00000000000E+00  0.00000000000E+00  0.28270797062E+03  0.52257658713E+03  0.43950255148E+03 0.  0.
      99925    2    3    3    0    0  0.61440253650E+02  0.57544653073E+02  0.24035591887E+03  0.36596401977E+03  0.26281629357E+03 0.  0.
         25    1    3    3    0    0 -0.61440253650E+02 -0.57544653073E+02  0.42352051754E+02  0.15661256736E+03  0.12509000000E+03 0.  0.
         25    1    4    4    0    0  0.58161535609E+02  0.51886535142E+02  0.15791331119E+03  0.21600717281E+03  0.12509000000E+03 0.  0.
         25    1    4    4    0    0  0.32787180411E+01  0.56581179307E+01  0.82442607676E+02  0.14995684696E+03  0.12509000000E+03 0.  0.
<mgrwt>
<rscale>  2 0.43950255E+03</rscale>
<asrwt>0</asrwt>
<pdfrwt beam="1">  1       21 0.59212099E-01 0.43950255E+03</pdfrwt>
<pdfrwt beam="2">  1       21 0.17637398E-01 0.43950255E+03</pdfrwt>
<totfact> 0.72171870E+04</totfact>
</mgrwt>
</event>
<event>
 7    0  0.4752811E-002  0.4676438E+03  0.7546771E-02  0.1022587E+00
         21   -1    0    0  502  501  0.00000000000E+00  0.00000000000E+00  0.51914258334E+03  0.51914258334E+03  0.00000000000E+00 0.  1.
         21   -1    0    0  501  502 -0.00000000000E+00 -0.00000000000E+00 -0.10531340221E+03  0.10531340221E+03  0.00000000000E+00 0.  1.
      99926    2    1    2    0    0  0.00000000000E+00  0.14210854715E-13  0.41382918113E+03  0.62445598555E+03  0.46764376050E+03 0.  0.
      99925    2    3    3    0    0  0.35637218555E+02  0.97776013006E+02  0.16596505051E+03  0.32795253631E+03  0.26301769524E+03 0.  0.
         25    1    4    4    0    0  0.50126377303E+02  0.45415100332E+02  0.11305352392E+03  0.18166945921E+03  0.12509000000E+03 0.  0.
         25    1    4    4    0    0 -0.14489158748E+02  0.52360912674E+02  0.52911526590E+02  0.14628307709E+03  0.12509000000E+03 0.  0.
         25    1    3    3    0    0 -0.35637218555E+02 -0.97776013006E+02  0.24786413062E+03  0.29650344924E+03  0.12509000000E+03 0.  0.
<mgrwt>
<rscale>  2 0.46764376E+03</rscale>
<asrwt>0</asrwt>
<pdfrwt beam="1">  1       21 0.76344497E-01 0.46764376E+03</pdfrwt>
<pdfrwt beam="2">  1       21 0.15487265E-01 0.46764376E+03</pdfrwt>
<totfact> 0.51826395E+04</totfact>
</mgrwt>
</event>
<event>
 7    0  0.4752811E-002  0.4575488E+03  0.7546771E-02  0.1025495E+00
         21   -1    0    0  502  501  0.00000000000E+00  0.00000000000E+00  0.88382549161E+03  0.88382549161E+03  0.00000000000E+00 0. -1.
         21   -1    0    0  501  502 -0.00000000000E+00 -0.00000000000E+00 -0.59217255472E+02  0.59217255472E+02  0.00000000000E+00 0. -1.
      99926    2    1    2    0    0  0.00000000000E+00  0.17763568394E-14  0.82460823614E+03  0.94304274709E+03  0.45754877305E+03 0.  0.
      99925    2    3    3    0    0 -0.30525735706E+02  0.10513512233E+02  0.74635114666E+03  0.79199959221E+03  0.26302274705E+03 0.  0.
         25    1    3    3    0    0  0.30525735706E+02 -0.10513512233E+02  0.78257089482E+02  0.15104315487E+03  0.12509000000E+03 0.  0.
         25    1    4    4    0    0 -0.61183460705E+01  0.44787298118E+02  0.37071491196E+03  0.39385325983E+03  0.12509000000E+03 0.  0.
         25    1    4    4    0    0 -0.24407389635E+02 -0.34273785885E+02  0.37563623470E+03  0.39814633238E+03  0.12509000000E+03 0.  0.
<mgrwt>
<rscale>  2 0.45754877E+03</rscale>
<asrwt>0</asrwt>
<pdfrwt beam="1">  1       21 0.12997433E+00 0.45754877E+03</pdfrwt>
<pdfrwt beam="2">  1       21 0.87084205E-02 0.45754877E+03</pdfrwt>
<totfact> 0.40608323E+04</totfact>
</mgrwt>
</event>
<event>
 7    0  0.4752811E-002  0.4362099E+03  0.7546771E-02  0.1031916E+00
         21   -1    0    0  502  501  0.00000000000E+00  0.00000000000E+00  0.50833368640E+02  0.50833368640E+02  0.00000000000E+00 0.  1.
         21   -1    0    0  501  502 -0.00000000000E+00 -0.00000000000E+00 -0.93579799038E+03  0.93579799038E+03  0.00000000000E+00 0.  1.
      99926    2    1    2    0    0  0.00000000000E+00  0.71054273576E-14 -0.88496462174E+03  0.98663135902E+03  0.43620987709E+03 0.  0.
      99925    2    3    3    0    0 -0.57596985547E+02  0.59589743840E+02 -0.66904446335E+03  0.72369149286E+03  0.26313595837E+03 0.  0.
         25    1    3    3    0    0  0.57596985547E+02 -0.59589743840E+02 -0.21592015840E+03  0.26293986616E+03  0.12509000000E+03 0.  0.
         25    1    4    4    0    0 -0.20346466049E+01  0.18268911575E+02 -0.23717299264E+03  0.26876835650E+03  0.12509000000E+03 0.  0.
         25    1    4    4    0    0 -0.55562338942E+02  0.41320832265E+02 -0.43187147070E+03  0.45492313636E+03  0.12509000000E+03 0.  0.
<mgrwt>
<rscale>  2 0.43620988E+03</rscale>
<asrwt>0</asrwt>
<pdfrwt beam="1">  1       21 0.74754959E-02 0.43620988E+03</pdfrwt>
<pdfrwt beam="2">  1       21 0.13761734E+00 0.43620988E+03</pdfrwt>
<totfact> 0.46093334E+04</totfact>
</mgrwt>
</event>
<event>
 7    0  0.4752811E-002  0.4550378E+03  0.7546771E-02  0.1026230E+00
         21   -1    0    0  502  501  0.00000000000E+00  0.00000000000E+00  0.34572716717E+02  0.34572716717E+02  0.00000000000E+00 0.  1.
         21   -1    0    0  501  502 -0.00000000000E+00 -0.00000000000E+00 -0.14972743569E+04  0.14972743569E+04  0.00000000000E+00 0.  1.
      99926    2    1    2    0    0  0.00000000000E+00  0.00000000000E+00 -0.14627016402E+04  0.15318470736E+04  0.45503776630E+03 0.  0.
      99925    2    3    3    0    0 -0.10818406990E+03 -0.18985010510E+02 -0.10125951715E+04  0.10519433699E+04  0.26300503512E+03 0.  0.
         25    1    3    3    0    0  0.10818406990E+03  0.18985010510E+02 -0.45010646870E+03  0.47990370374E+03  0.12509000000E+03 0.  0.
         25    1    4    4    0    0 -0.55442567200E+02  0.29315341423E+02 -0.54288882576E+03  0.56063272535E+03  0.12509000000E+03 0.  0.
         25    1    4    4    0    0 -0.52741502704E+02 -0.48300351933E+02 -0.46970634572E+03  0.49131064452E+03  0.12509000000E+03 0.  0.
<mgrwt>
<rscale>  2 0.45503777E+03</rscale>
<asrwt>0</asrwt>
<pdfrwt beam="1">  1       21 0.50842227E-02 0.45503777E+03</pdfrwt>
<pdfrwt beam="2">  1       21 0.22018742E+00 0.45503777E+03</pdfrwt>
<totfact> 0.23002538E+04</totfact>
</mgrwt>
</event>
<event>
 7    0  0.4752811E-002  0.4502507E+03  0.7546771E-02  0.1027647E+00
         21   -1    0    0  502  501  0.00000000000E+00  0.00000000000E+00  0.37341797385E+03  0.37341797385E+03  0.00000000000E+00 0. -1.
         21   -1    0    0  501  502 -0.00000000000E+00 -0.00000000000E+00 -0.13572301158E+03  0.13572301158E+03  0.00000000000E+00 0. -1.
      99926    2    1    2    0    0  0.71054273576E-14 -0.14210854715E-13  0.23769496227E+03  0.50914098544E+03  0.45025065015E+03 0.  0.
      99925    2    3    3    0    0 -0.59360277430E+02  0.76948003259E+02  0.95172432657E+02  0.29605692388E+03  0.26295868972E+03 0.  0.
         25    1    3    3    0    0  0.59360277430E+02 -0.76948003259E+02  0.14252252961E+03  0.21308406156E+03  0.12509000000E+03 0.  0.
         25    1    4    4    0    0 -0.61789018645E+02  0.63169485176E+02  0.37917144855E+02  0.15777669237E+03  0.12509000000E+03 0.  0.
         25    1    4    4    0    0  0.24287412153E+01  0.13778518083E+02  0.57255287803E+02  0.13828023151E+03  0.12509000000E+03 0.  0.
<mgrwt>
<rscale>  2 0.45025065E+03</rscale>
<asrwt>0</asrwt>
<pdfrwt beam="1">  1       21 0.54914408E-01 0.45025065E+03</pdfrwt>
<pdfrwt beam="2">  1       21 0.19959266E-01 0.45025065E+03</pdfrwt>
<totfact> 0.67127730E+04</totfact>
</mgrwt>
</event>
<event>
 7    0  0.4752811E-002  0.4520539E+03  0.7546771E-02  0.1027111E+00
         21   -1    0    0  502  501  0.00000000000E+00  0.00000000000E+00  0.26649439188E+03  0.26649439188E+03  0.00000000000E+00 0.  1.
         21   -1    0    0  501  502 -0.00000000000E+00 -0.00000000000E+00 -0.19170454828E+03  0.19170454828E+03  0.00000000000E+00 0.  1.
      99926    2    1    2    0    0  0.00000000000E+00  0.14210854715E-13  0.74789843598E+02  0.45819894016E+03  0.45205392162E+03 0.  0.
      99925    2    3    3    0    0  0.62061826498E+02 -0.91126636180E+02  0.51628975708E+02  0.28985504205E+03  0.26304877901E+03 0.  0.
         25    1    4    4    0    0 -0.37144753900E+01 -0.31225990417E+02  0.36567795030E+01  0.12903387129E+03  0.12509000000E+03 0.  0.
         25    1    3    3    0    0 -0.62061826498E+02  0.91126636180E+02  0.23160867890E+02  0.16834389811E+03  0.12509000000E+03 0.  0.
         25    1    4    4    0    0  0.65776301888E+02 -0.59900645764E+02  0.47972196205E+02  0.16082117075E+03  0.12509000000E+03 0.  0.
<mgrwt>
<rscale>  2 0.45205392E+03</rscale>
<asrwt>0</asrwt>
<pdfrwt beam="1">  1       21 0.39190352E-01 0.45205392E+03</pdfrwt>
<pdfrwt beam="2">  1       21 0.28191845E-01 0.45205392E+03</pdfrwt>
<totfact> 0.69940712E+04</totfact>
</mgrwt>
</event>
<event>
 7    0  0.4752811E-002  0.4610398E+03  0.7546771E-02  0.1024480E+00
         21   -1    0    0  502  501  0.00000000000E+00  0.00000000000E+00  0.20333059909E+03  0.20333059909E+03  0.00000000000E+00 0. -1.
         21   -1    0    0  501  502 -0.00000000000E+00 -0.00000000000E+00 -0.26134491951E+03  0.26134491951E+03  0.00000000000E+00 0. -1.
      99926    2    1    2    0    0  0.14210854715E-13  0.00000000000E+00 -0.58014320420E+02  0.46467551861E+03  0.46103977727E+03 0.  0.
      99925    2    3    3    0    0 -0.95702702180E+02 -0.57553947116E+02  0.37544127506E+01  0.28597367606E+03  0.26324016364E+03 0.  0.
         25    1    3    3    0    0  0.95702702180E+02  0.57553947116E+02 -0.61768733171E+02  0.17870184255E+03  0.12509000000E+03 0.  0.
         25    1    4    4    0    0 -0.70916201009E+02  0.43184780145E+01  0.89741844263E+01  0.14413813133E+03  0.12509000000E+03 0.  0.
         25    1    4    4    0    0 -0.24786501170E+02 -0.61872425130E+02 -0.52197716757E+01  0.14183554473E+03  0.12509000000E+03 0.  0.
<mgrwt>
<rscale>  2 0.46103978E+03</rscale>
<asrwt>0</asrwt>
<pdfrwt beam="1">  1       21 0.29901559E-01 0.46103978E+03</pdfrwt>
<pdfrwt beam="2">  1       21 0.38433076E-01 0.46103978E+03</pdfrwt>
<totfact> 0.64669633E+04</totfact>
</mgrwt>
</event>
<event>
 7    0  0.4752811E-002  0.4315347E+03  0.7546771E-02  0.1033376E+00
         21   -1    0    0  502  501  0.00000000000E+00  0.00000000000E+00  0.77497709936E+02  0.77497709936E+02  0.00000000000E+00 0.  1.
         21   -1    0    0  501  502 -0.00000000000E+00 -0.00000000000E+00 -0.60073453557E+03  0.60073453557E+03  0.00000000000E+00 0.  1.
      99926    2    1    2    0    0  0.00000000000E+00 -0.17763568394E-14 -0.52323682564E+03  0.67823224551E+03  0.43153470677E+03 0.  0.
      99925    2    3    3    0    0  0.47256280474E+02  0.12946130049E+02 -0.45447510418E+03  0.52731358939E+03  0.26289017271E+03 0.  0.
         25    1    3    3    0    0 -0.47256280474E+02 -0.12946130049E+02 -0.68761721457E+02  0.15091865612E+03  0.12509000000E+03 0.  0.
         25    1    4    4    0    0 -0.15444333882E+02  0.17240897234E+02 -0.22690589700E+03  0.26013375440E+03  0.12509000000E+03 0.  0.
         25    1    4    4    0    0  0.62700614356E+02 -0.42947671845E+01 -0.22756920718E+03  0.26717983498E+03  0.12509000000E+03 0.  0.
<mgrwt>
<rscale>  2 0.43153471E+03</rscale>
<asrwt>0</asrwt>
<pdfrwt beam="1">  1       21 0.11396722E-01 0.43153471E+03</pdfrwt>
<pdfrwt beam="2">  1       21 0.88343313E-01 0.43153471E+03</pdfrwt>
<totfact> 0.65367720E+04</totfact>
</mgrwt>
</event>
<event>
 7    0  0.4752811E-002  0.4529076E+03  0.7546771E-02  0.1026859E+00
         21   -1    0    0  502  501  0.00000000000E+00  0.00000000000E+00  0.58724723342E+03  0.58724723342E+03  0.00000000000E+00 0.  1.
         21   -1    0    0  501  502 -0.00000000000E+00 -0.00000000000E+00 -0.87324926958E+02  0.87324926958E+02  0.00000000000E+00 0.  1.
      99926    2    1    2    0    0  0.00000000000E+00  0.71054273576E-14  0.49992230646E+03  0.67457216038E+03  0.45290759218E+03 0.  0.
      99925    2    3    3    0    0 -0.23433795343E+02 -0.37201557578E+02  0.16379361088E+03  0.31323698807E+03  0.26335520705E+03 0.  0.
         25    1    3    3    0    0  0.23433795343E+02  0.37201557578E+02  0.33612869558E+03  0.36133517230E+03  0.12509000000E+03 0.  0.
         25    1    4    4    0    0 -0.67857692772E+01 -0.58086407656E+02  0.98573829105E+02  0.16965961601E+03  0.12509000000E+03 0.  0.
         25    1    4    4    0    0 -0.16648026066E+02  0.20884850077E+02  0.65219781772E+02  0.14357737206E+03  0.12509000000E+03 0.  0.
<mgrwt>
<rscale>  2 0.45290759E+03</rscale>
<asrwt>0</asrwt>
<pdfrwt beam="1">  1       21 0.86359885E-01 0.45290759E+03</pdfrwt>
<pdfrwt beam="2">  1       21 0.12841901E-01 0.45290759E+03</pdfrwt>
<totfact> 0.55210277E+04</totfact>
</mgrwt>
</event>
<event>
 7    0  0.4752811E-002  0.4530839E+03  0.7546771E-02  0.1026806E+00
         21   -1    0    0  502  501  0.00000000000E+00  0.00000000000E+00  0.11929737023E+03  0.11929737023E+03  0.00000000000E+00 0.  1.
         21   -1    0    0  501  502 -0.00000000000E+00 -0.00000000000E+00 -0.43019610454E+03  0.43019610454E+03  0.00000000000E+00 0.  1.
      99926    2    1    2    0    0  0.00000000000E+00  0.00000000000E+00 -0.31089873432E+03  0.54949347477E+03  0.45308393904E+03 0.  0.
      99925    2    3    3    0    0  0.33700518450E+02  0.16971055388E+02 -0.68965689474E+02  0.27453375417E+03  0.26303759083E+03 0.  0.
         25    1    4    4    0    0  0.29933694405E+02  0.32714570675E+02 -0.66339017727E+02  0.14837332162E+03  0.12509000000E+03 0.  0.
         25    1    4    4    0    0  0.37668240444E+01 -0.15743515287E+02 -0.26266717469E+01  0.12616043255E+03  0.12509000000E+03 0.  0.
         25    1    3    3    0    0 -0.33700518450E+02 -0.16971055388E+02 -0.24193304484E+03  0.27495972060E+03  0.12509000000E+03 0.  0.
<mgrwt>
<rscale>  2 0.45308394E+03</rscale>
<asrwt>0</asrwt>
<pdfrwt beam="1">  1       21 0.17543731E-01 0.45308394E+03</pdfrwt>
<pdfrwt beam="2">  1       21 0.63264132E-01 0.45308394E+03</pdfrwt>
<totfact> 0.62847346E+04</totfact>
</mgrwt>
</event>
<event>
 7    0  0.4752811E-002  0.4518076E+03  0.7546771E-02  0.1027184E+00
         21   -1    0    0  502  501  0.00000000000E+00  0.00000000000E+00  0.32869956092E+03  0.32869956092E+03  0.00000000000E+00 0. -1.
         21   -1    0    0  501  502 -0.00000000000E+00 -0.00000000000E+00 -0.15525586382E+03  0.15525586382E+03  0.00000000000E+00 0. -1.
      99926    2    1    2    0    0  0.00000000000E+00  0.00000000000E+00  0.17344369710E+03  0.48395542474E+03  0.45180763281E+03 0.  0.
      99925    2    3    3    0    0  0.51223894832E+02 -0.98074746887E+02  0.10577834406E+03  0.30376482709E+03  0.26237657808E+03 0.  0.
         25    1    4    4    0    0  0.49279414237E+02 -0.23070033750E+02  0.71116251475E+02  0.15383665509E+03  0.12509000000E+03 0.  0.
         25    1    3    3    0    0 -0.51223894832E+02  0.98074746887E+02  0.67665353036E+02  0.18019059765E+03  0.12509000000E+03 0.  0.
         25    1    4    4    0    0  0.19444805955E+01 -0.75004713137E+02  0.34662092586E+02  0.14992817200E+03  0.12509000000E+03 0.  0.
<mgrwt>
<rscale>  2 0.45180763E+03</rscale>
<asrwt>0</asrwt>
<pdfrwt beam="1">  1       21 0.48338171E-01 0.45180763E+03</pdfrwt>
<pdfrwt beam="2">  1       21 0.22831745E-01 0.45180763E+03</pdfrwt>
<totfact> 0.68123398E+04</totfact>
</mgrwt>
</event>
<event>
 7    0  0.4752811E-002  0.4963444E+03  0.7546771E-02  0.1014738E+00
         21   -1    0    0  502  501  0.00000000000E+00  0.00000000000E+00  0.66509342776E+03  0.66509342776E+03  0.00000000000E+00 0.  1.
         21   -1    0    0  501  502 -0.00000000000E+00 -0.00000000000E+00 -0.92602685272E+02  0.92602685272E+02  0.00000000000E+00 0.  1.
      99926    2    1    2    0    0 -0.14210854715E-13  0.00000000000E+00  0.57249074249E+03  0.75769611303E+03  0.49634438596E+03 0.  0.
      99925    2    3    3    0    0 -0.11386734981E+03  0.25499770928E+02  0.20798672680E+03  0.35504651695E+03  0.26302763924E+03 0.  0.
         25    1    3    3    0    0  0.11386734981E+03 -0.25499770928E+02  0.36450401569E+03  0.40264959608E+03  0.12509000000E+03 0.  0.
         25    1    4    4    0    0 -0.17711756127E+02  0.63404698296E+01  0.11470344295E+03  0.17075800358E+03  0.12509000000E+03 0.  0.
         25    1    4    4    0    0 -0.96155593680E+02  0.19159301098E+02  0.93283283847E+02  0.18428851337E+03  0.12509000000E+03 0.  0.
<mgrwt>
<rscale>  2 0.49634439E+03</rscale>
<asrwt>0</asrwt>
<pdfrwt beam="1">  1       21 0.97807855E-01 0.49634439E+03</pdfrwt>
<pdfrwt beam="2">  1       21 0.13618042E-01 0.49634439E+03</pdfrwt>
<totfact> 0.36492954E+04</totfact>
</mgrwt>
</event>
<event>
 7    0  0.4752811E-002  0.4585290E+03  0.7546771E-02  0.1025209E+00
         21   -1    0    0  502  501  0.00000000000E+00  0.00000000000E+00  0.99132792721E+02  0.99132792721E+02  0.00000000000E+00 0. -1.
         21   -1    0    0  501  502 -0.00000000000E+00 -0.00000000000E+00 -0.53022026239E+03  0.53022026239E+03  0.00000000000E+00 0. -1.
      99926    2    1    2    0    0  0.00000000000E+00  0.71054273576E-14 -0.43108746967E+03  0.62935305511E+03  0.45852901923E+03 0.  0.
      99925    2    3    3    0    0 -0.96019692275E+02 -0.59213923947E+02 -0.22941327872E+03  0.36658689008E+03  0.26273451511E+03 0.  0.
         25    1    3    3    0    0  0.96019692275E+02  0.59213923947E+02 -0.20167419095E+03  0.26276616504E+03  0.12509000000E+03 0.  0.
         25    1    4    4    0    0 -0.30044480620E+02  0.50156002227E+01 -0.83333225844E+02  0.15336153915E+03  0.12509000000E+03 0.  0.
         25    1    4    4    0    0 -0.65975211654E+02 -0.64229524170E+02 -0.14608005288E+03  0.21322535092E+03  0.12509000000E+03 0.  0.
<mgrwt>
<rscale>  2 0.45852902E+03</rscale>
<asrwt>0</asrwt>
<pdfrwt beam="1">  1       21 0.14578352E-01 0.45852902E+03</pdfrwt>
<pdfrwt beam="2">  1       21 0.77973566E-01 0.45852902E+03</pdfrwt>
<totfact> 0.55348742E+04</totfact>
</mgrwt>
</event>
<event>
 7    0  0.4752811E-002  0.4594262E+03  0.7546771E-02  0.1024948E+00
         21   -1    0    0  502  501  0.00000000000E+00  0.00000000000E+00  0.17452813618E+03  0.17452813618E+03  0.00000000000E+00 0. -1.
         21   -1    0    0  501  502 -0.00000000000E+00 -0.00000000000E+00 -0.30234731762E+03  0.30234731762E+03  0.00000000000E+00 0. -1.
      99926    2    1    2    0    0  0.00000000000E+00  0.00000000000E+00 -0.12781918144E+03  0.47687545380E+03  0.45942622399E+03 0.  0.
      99925    2    3    3    0    0 -0.77455761316E+02 -0.75718303784E+02 -0.33235717022E+02  0.28628112983E+03  0.26290609715E+03 0.  0.
         25    1    3    3    0    0  0.77455761316E+02  0.75718303784E+02 -0.94583464420E+02  0.19059432397E+03  0.12509000000E+03 0.  0.
         25    1    4    4    0    0 -0.55503574973E+02 -0.21871018269E+02  0.16668539698E+02  0.13958630517E+03  0.12509000000E+03 0.  0.
         25    1    4    4    0    0 -0.21952186343E+02 -0.53847285515E+02 -0.49904256721E+02  0.14669482466E+03  0.12509000000E+03 0.  0.
<mgrwt>
<rscale>  2 0.45942622E+03</rscale>
<asrwt>0</asrwt>
<pdfrwt beam="1">  1       21 0.25665902E-01 0.45942622E+03</pdfrwt>
<pdfrwt beam="2">  1       21 0.44462841E-01 0.45942622E+03</pdfrwt>
<totfact> 0.64628246E+04</totfact>
</mgrwt>
</event>
<event>
 7    0  0.4752811E-002  0.4598386E+03  0.7546771E-02  0.1024828E+00
         21   -1    0    0  502  501  0.00000000000E+00  0.00000000000E+00  0.30343976095E+03  0.30343976095E+03  0.00000000000E+00 0. -1.
         21   -1    0    0  501  502 -0.00000000000E+00 -0.00000000000E+00 -0.17421213580E+03  0.17421213580E+03  0.00000000000E+00 0. -1.
      99926    2    1    2    0    0  0.00000000000E+00  0.00000000000E+00  0.12922762515E+03  0.47765189675E+03  0.45983861883E+03 0.  0.
      99925    2    3    3    0    0  0.75094394631E+02  0.90279849583E+02  0.74565090956E+02  0.29758213225E+03  0.26306948378E+03 0.  0.
         25    1    4    4    0    0  0.36628904790E+02  0.86983201044E+02  0.49126069754E+02  0.16422129204E+03  0.12509000000E+03 0.  0.
         25    1    3    3    0    0 -0.75094394631E+02 -0.90279849583E+02  0.54662534189E+02  0.18006976451E+03  0.12509000000E+03 0.  0.
         25    1    4    4    0    0  0.38465489842E+02  0.32966485388E+01  0.25439021202E+02  0.13336084020E+03  0.12509000000E+03 0.  0.
<mgrwt>
<rscale>  2 0.45983862E+03</rscale>
<asrwt>0</asrwt>
<pdfrwt beam="1">  1       21 0.44623494E-01 0.45983862E+03</pdfrwt>
<pdfrwt beam="2">  1       21 0.25619432E-01 0.45983862E+03</pdfrwt>
<totfact> 0.64364250E+04</totfact>
</mgrwt>
</event>
<event>
 7    0  0.4752811E-002  0.4580725E+03  0.7546771E-02  0.1025342E+00
         21   -1    0    0  502  501  0.00000000000E+00  0.00000000000E+00  0.15115396230E+03  0.15115396230E+03  0.00000000000E+00 0.  1.
         21   -1    0    0  501  502 -0.00000000000E+00 -0.00000000000E+00 -0.34704755907E+03  0.34704755907E+03  0.00000000000E+00 0.  1.
      99926    2    1    2    0    0 -0.35527136788E-14  0.00000000000E+00 -0.19589359677E+03  0.49820152137E+03  0.45807254299E+03 0.  0.
      99925    2    3    3    0    0 -0.22303748259E+02 -0.82086579963E+02 -0.20877453062E+03  0.34638225265E+03  0.26297946026E+03 0.  0.
         25    1    3    3    0    0  0.22303748259E+02  0.82086579963E+02  0.12880933859E+02  0.15181926872E+03  0.12509000000E+03 0.  0.
         25    1    4    4    0    0 -0.44624918805E+02 -0.19581359561E+02 -0.90798058433E+02  0.16206976441E+03  0.12509000000E+03 0.  0.
         25    1    4    4    0    0  0.22321170546E+02 -0.62505220402E+02 -0.11797647219E+03  0.18431248824E+03  0.12509000000E+03 0.  0.
<mgrwt>
<rscale>  2 0.45807254E+03</rscale>
<asrwt>0</asrwt>
<pdfrwt beam="1">  1       21 0.22228524E-01 0.45807254E+03</pdfrwt>
<pdfrwt beam="2">  1       21 0.51036406E-01 0.45807254E+03</pdfrwt>
<totfact> 0.63826137E+04</totfact>
</mgrwt>
</event>
<event>
 7    0  0.4752811E-002  0.4608638E+03  0.7546771E-02  0.1024531E+00
         21   -1    0    0  502  501  0.00000000000E+00  0.00000000000E+00  0.94559626144E+02  0.94559626144E+02  0.00000000000E+00 0. -1.
         21   -1    0    0  501  502 -0.00000000000E+00 -0.00000000000E+00 -0.56153839386E+03  0.56153839386E+03  0.00000000000E+00 0. -1.
      99926    2    1    2    0    0  0.00000000000E+00  0.00000000000E+00 -0.46697876772E+03  0.65609802001E+03  0.46086380022E+03 0.  0.
      99925    2    3    3    0    0  0.50488470762E+02 -0.10669668559E+03 -0.27519756397E+03  0.39849210663E+03  0.26292392709E+03 0.  0.
         25    1    4    4    0    0  0.24887462386E+02 -0.45792172607E+02 -0.18992691223E+03  0.23331534228E+03  0.12509000000E+03 0.  0.
         25    1    3    3    0    0 -0.50488470762E+02  0.10669668559E+03 -0.19178120375E+03  0.25760591338E+03  0.12509000000E+03 0.  0.
         25    1    4    4    0    0  0.25601008376E+02 -0.60904512982E+02 -0.85270651739E+02  0.16517676434E+03  0.12509000000E+03 0.  0.
<mgrwt>
<rscale>  2 0.46086380E+03</rscale>
<asrwt>0</asrwt>
<pdfrwt beam="1">  1       21 0.13905827E-01 0.46086380E+03</pdfrwt>
<pdfrwt beam="2">  1       21 0.82579176E-01 0.46086380E+03</pdfrwt>
<totfact> 0.52863718E+04</totfact>
</mgrwt>
</event>
<event>
 7    0  0.4752811E-002  0.4500528E+03  0.7546771E-02  0.1027706E+00
         21   -1    0    0  502  501  0.00000000000E+00  0.00000000000E+00  0.87399655167E+03  0.87399655167E+03  0.00000000000E+00 0.  1.
         21   -1    0    0  501  502 -0.00000000000E+00 -0.00000000000E+00 -0.57937157317E+02  0.57937157317E+02  0.00000000000E+00 0.  1.
      99926    2    1    2    0    0  0.00000000000E+00  0.00000000000E+00  0.81605939435E+03  0.93193370899E+03  0.45005277783E+03 0.  0.
      99925    2    3    3    0    0 -0.35512465046E+02 -0.99795657444E+02  0.46684328326E+03  0.54616213309E+03  0.26292606581E+03 0.  0.
         25    1    4    4    0    0 -0.51085747101E+01 -0.83482990102E+02  0.20932461566E+03  0.25779800230E+03  0.12509000000E+03 0.  0.
         25    1    3    3    0    0  0.35512465046E+02  0.99795657444E+02  0.34921611110E+03  0.38577157589E+03  0.12509000000E+03 0.  0.
         25    1    4    4    0    0 -0.30403890336E+02 -0.16312667341E+02  0.25751866760E+03  0.28836413079E+03  0.12509000000E+03 0.  0.
<mgrwt>
<rscale>  2 0.45005278E+03</rscale>
<asrwt>0</asrwt>
<pdfrwt beam="1">  1       21 0.12852890E+00 0.45005278E+03</pdfrwt>
<pdfrwt beam="2">  1       21 0.85201707E-02 0.45005278E+03</pdfrwt>
<totfact> 0.43541697E+04</totfact>
</mgrwt>
</event>
<event>
 7    0  0.4752811E-002  0.4495500E+03  0.7546771E-02  0.1027856E+00
         21   -1    0    0  502  501  0.00000000000E+00  0.00000000000E+00  0.42847656560E+02  0.42847656560E+02  0.00000000000E+00 0.  1.
         21   -1    0    0  501  502 -0.00000000000E+00 -0.00000000000E+00 -0.11791499329E+04  0.11791499329E+04  0.00000000000E+00 0.  1.
      99926    2    1    2    0    0  0.00000000000E+00  0.00000000000E+00 -0.11363022763E+04  0.12219975894E+04  0.44955004774E+03 0.  0.
      99925    2    3    3    0    0  0.18477907329E+02 -0.79118336059E+02 -0.91047066567E+03  0.95135286175E+03  0.26365562832E+03 0.  0.
         25    1    4    4    0    0  0.13203374786E+01 -0.20561883412E+02 -0.30912690205E+03  0.33411298091E+03  0.12509000000E+03 0.  0.
         25    1    3    3    0    0 -0.18477907329E+02  0.79118336059E+02 -0.22583161065E+03  0.27064472769E+03  0.12509000000E+03 0.  0.
         25    1    4    4    0    0  0.17157569850E+02 -0.58556452647E+02 -0.60134376362E+03  0.61723988084E+03  0.12509000000E+03 0.  0.
<mgrwt>
<rscale>  2 0.44955005E+03</rscale>
<asrwt>0</asrwt>
<pdfrwt beam="1">  1       21 0.63011264E-02 0.44955005E+03</pdfrwt>
<pdfrwt beam="2">  1       21 0.17340439E+00 0.44955005E+03</pdfrwt>
<totfact> 0.32838236E+04</totfact>
</mgrwt>
</event>
<event>
 7    0  0.4752811E-002  0.4528410E+03  0.7546771E-02  0.1026878E+00
         21   -1    0    0  502  501  0.00000000000E+00  0.00000000000E+00  0.10679116377E+03  0.10679116377E+03  0.00000000000E+00 0.  1.
         21   -1    0    0  501  502 -0.00000000000E+00 -0.00000000000E+00 -0.48006078399E+03  0.48006078399E+03  0.00000000000E+00 0.  1.
      99926    2    1    2    0    0  0.00000000000E+00 -0.35527136788E-14 -0.37326962022E+03  0.58685194776E+03  0.45284103084E+03 0.  0.
      99925    2    3    3    0    0  0.22553288815E+02 -0.19692633023E+02 -0.96163234833E+02  0.28134923492E+03  0.26270434641E+03 0.  0.
         25    1    4    4    0    0  0.35976430719E+02 -0.48546773707E+00 -0.16491967566E+02  0.13120225738E+03  0.12509000000E+03 0.  0.
         25    1    3    3    0    0 -0.22553288815E+02  0.19692633023E+02 -0.27710638539E+03  0.30550271284E+03  0.12509000000E+03 0.  0.
         25    1    4    4    0    0 -0.13423141904E+02 -0.19207165286E+02 -0.79671267267E+02  0.15014697754E+03  0.12509000000E+03 0.  0.
<mgrwt>
<rscale>  2 0.45284103E+03</rscale>
<asrwt>0</asrwt>
<pdfrwt beam="1">  1       21 0.15704583E-01 0.45284103E+03</pdfrwt>
<pdfrwt beam="2">  1       21 0.70597174E-01 0.45284103E+03</pdfrwt>
<totfact> 0.60521138E+04</totfact>
</mgrwt>
</event>
<event>
 7    0  0.4752811E-002  0.4538710E+03  0.7546771E-02  0.1026574E+00
         21   -1    0    0  502  501  0.00000000000E+00  0.00000000000E+00  0.57206327888E+02  0.57206327888E+02  0.00000000000E+00 0. -1.
         21   -1    0    0  501  502 -0.00000000000E+00 -0.00000000000E+00 -0.90024529471E+03  0.90024529471E+03  0.00000000000E+00 0. -1.
      99926    2    1    2    0    0 -0.35527136788E-14  0.00000000000E+00 -0.84303896682E+03  0.95745162259E+03  0.45387102797E+03 0.  0.
      99925    2    3    3    0    0 -0.22420379554E+02 -0.10960397560E+03 -0.51116532880E+03  0.58556007309E+03  0.26282104355E+03 0.  0.
         25    1    3    3    0    0  0.22420379554E+02  0.10960397560E+03 -0.33187363801E+03  0.37189154951E+03  0.12509000000E+03 0.  0.
         25    1    4    4    0    0  0.18397284856E+02 -0.25033522243E+02 -0.21686633633E+03  0.25227693763E+03  0.12509000000E+03 0.  0.
         25    1    4    4    0    0 -0.40817664410E+02 -0.84570453358E+02 -0.29429899247E+03  0.33328313545E+03  0.12509000000E+03 0.  0.
<mgrwt>
<rscale>  2 0.45387103E+03</rscale>
<asrwt>0</asrwt>
<pdfrwt beam="1">  1       21 0.84126961E-02 0.45387103E+03</pdfrwt>
<pdfrwt beam="2">  1       21 0.13238900E+00 0.45387103E+03</pdfrwt>
<totfact> 0.41203078E+04</totfact>
</mgrwt>
</event>
<event>
 7    0  0.4752811E-002  0.4514802E+03  0.7546771E-02  0.1027282E+00
         21   -1    0    0  502  501  0.00000000000E+00  0.00000000000E+00  0.19568098112E+03  0.19568098112E+03  0.00000000000E+00 0.  1.
         21   -1    0    0  501  502 -0.00000000000E+00 -0.00000000000E+00 -0.26041664516E+03  0.26041664516E+03  0.00000000000E+00 0.  1.
      99926    2    1    2    0    0  0.71054273576E-14 -0.14210854715E-13 -0.64735664038E+02  0.45609762629E+03  0.45148016402E+03 0.  0.
      99925    2    3    3    0    0 -0.49042378860E+02  0.97179994171E+02 -0.54833584647E+02  0.28998120486E+03  0.26312215979E+03 0.  0.
         25    1    4    4    0    0  0.48816958417E+01  0.40180570613E+02 -0.54485286566E+02  0.14231817790E+03  0.12509000000E+03 0.  0.
         25    1    3    3    0    0  0.49042378860E+02 -0.97179994171E+02 -0.99020793908E+01  0.16611642143E+03  0.12509000000E+03 0.  0.
         25    1    4    4    0    0 -0.53924074702E+02  0.56999423558E+02 -0.34829808092E+00  0.14766302696E+03  0.12509000000E+03 0.  0.
<mgrwt>
<rscale>  2 0.45148016E+03</rscale>
<asrwt>0</asrwt>
<pdfrwt beam="1">  1       21 0.28776615E-01 0.45148016E+03</pdfrwt>
<pdfrwt beam="2">  1       21 0.38296565E-01 0.45148016E+03</pdfrwt>
<totfact> 0.70421969E+04</totfact>
</mgrwt>
</event>
<event>
 7    0  0.4752811E-002  0.4517373E+03  0.7546771E-02  0.1027205E+00
         21   -1    0    0  502  501  0.00000000000E+00  0.00000000000E+00  0.43609297633E+03  0.43609297633E+03  0.00000000000E+00 0. -1.
         21   -1    0    0  501  502 -0.00000000000E+00 -0.00000000000E+00 -0.11698570156E+03  0.11698570156E+03  0.00000000000E+00 0. -1.
      99926    2    1    2    0    0  0.00000000000E+00 -0.88817841970E-15  0.31910727476E+03  0.55307867789E+03  0.45173728110E+03 0.  0.
      99925    2    3    3    0    0  0.64353161564E+02  0.79679996991E+01  0.30998606776E+03  0.41188546651E+03  0.26335044503E+03 0.  0.
         25    1    4    4    0    0  0.38661659411E+02  0.77813707423E+01  0.21832598662E+03  0.25469396964E+03  0.12509000000E+03 0.  0.
         25    1    3    3    0    0 -0.64353161564E+02 -0.79679996991E+01  0.91212070029E+01  0.14119321138E+03  0.12509000000E+03 0.  0.
         25    1    4    4    0    0  0.25691502153E+02  0.18662895673E+00  0.91660081138E+02  0.15719149687E+03  0.12509000000E+03 0.  0.
<mgrwt>
<rscale>  2 0.45173728E+03</rscale>
<asrwt>0</asrwt>
<pdfrwt beam="1">  1       21 0.64131319E-01 0.45173728E+03</pdfrwt>
<pdfrwt beam="2">  1       21 0.17203780E-01 0.45173728E+03</pdfrwt>
<totfact> 0.63281201E+04</totfact>
</mgrwt>
</event>
<event>
 6    0  0.4752811E-002  0.4570338E+03  0.7546771E-02  0.1025645E+00
         21   -1    0    0  502  501  0.00000000000E+00  0.00000000000E+00  0.27159149694E+03  0.27159149694E+03  0.00000000000E+00 0. -1.
         21   -1    0    0  501  502 -0.00000000000E+00 -0.00000000000E+00 -0.19227397058E+03  0.19227397058E+03  0.00000000000E+00 0. -1.
      99926    2    1    2    0    0  0.00000000000E+00  0.00000000000E+00  0.79317526357E+02  0.46386546751E+03  0.45703380834E+03 0.  0.
         25    1    3    3    0    0  0.40922068242E+02  0.48744886686E+02  0.38965283644E+02  0.14565878304E+03  0.12509000000E+03 0.  0.
         25    1    3    3    0    0 -0.25285830276E+02  0.59864735044E+02 -0.17486413912E+02  0.14204380481E+03  0.12509000000E+03 0.  0.
         25    1    3    3    0    0 -0.15636237966E+02 -0.10860962173E+03  0.57838656624E+02  0.17616287966E+03  0.12509000000E+03 0.  0.
<mgrwt>
<rscale>  2 0.45703381E+03</rscale>
<asrwt>0</asrwt>
<pdfrwt beam="1">  1       21 0.39939926E-01 0.45703381E+03</pdfrwt>
<pdfrwt beam="2">  1       21 0.28275584E-01 0.45703381E+03</pdfrwt>
<totfact> 0.66807741E+04</totfact>
</mgrwt>
</event>
<event>
 7    0  0.4752811E-002  0.4604814E+03  0.7546771E-02  0.1024642E+00
         21   -1    0    0  502  501  0.00000000000E+00  0.00000000000E+00  0.14733941267E+04  0.14733941267E+04  0.00000000000E+00 0.  1.
         21   -1    0    0  501  502 -0.00000000000E+00 -0.00000000000E+00 -0.35978679424E+02  0.35978679424E+02  0.00000000000E+00 0.  1.
      99926    2    1    2    0    0  0.14210854715E-13  0.00000000000E+00  0.14374154473E+04  0.15093728061E+04  0.46048137834E+03 0.  0.
      99925    2    3    3    0    0 -0.10255853355E+03  0.32085497973E+02  0.10618883466E+04  0.10992315579E+04  0.26297419160E+03 0.  0.
         25    1    3    3    0    0  0.10255853355E+03 -0.32085497973E+02  0.37552710073E+03  0.41014124819E+03  0.12509000000E+03 0.  0.
         25    1    4    4    0    0 -0.79643249488E+02 -0.12879402459E+02  0.58408697767E+03  0.60275536645E+03  0.12509000000E+03 0.  0.
         25    1    4    4    0    0 -0.22915284061E+02  0.44964900432E+02  0.47780136889E+03  0.49647619150E+03  0.12509000000E+03 0.  0.
<mgrwt>
<rscale>  2 0.46048138E+03</rscale>
<asrwt>0</asrwt>
<pdfrwt beam="1">  1       21 0.21667557E+00 0.46048138E+03</pdfrwt>
<pdfrwt beam="2">  1       21 0.52909832E-02 0.46048138E+03</pdfrwt>
<totfact> 0.22573877E+04</totfact>
</mgrwt>
</event>
<event>
 7    0  0.4752811E-002  0.4505253E+03  0.7546771E-02  0.1027566E+00
         21   -1    0    0  502  501  0.00000000000E+00  0.00000000000E+00  0.25985796411E+02  0.25985796411E+02  0.00000000000E+00 0.  1.
         21   -1    0    0  501  502 -0.00000000000E+00 -0.00000000000E+00 -0.19527307056E+04  0.19527307056E+04  0.00000000000E+00 0.  1.
      99926    2    1    2    0    0  0.00000000000E+00  0.00000000000E+00 -0.19267449092E+04  0.19787165020E+04  0.45052530478E+03 0.  0.
      99925    2    3    3    0    0 -0.53782838479E+02 -0.52079383074E+02 -0.15645813838E+04  0.15883131425E+04  0.26309480498E+03 0.  0.
         25    1    4    4    0    0 -0.60119538503E+02 -0.43977356613E+02 -0.73366234546E+03  0.74796812235E+03  0.12509000000E+03 0.  0.
         25    1    4    4    0    0  0.63367000247E+01 -0.81020264610E+01 -0.83091903834E+03  0.84034502020E+03  0.12509000000E+03 0.  0.
         25    1    3    3    0    0  0.53782838479E+02  0.52079383074E+02 -0.36216352538E+03  0.39040335945E+03  0.12509000000E+03 0.  0.
<mgrwt>
<rscale>  2 0.45052530E+03</rscale>
<asrwt>0</asrwt>
<pdfrwt beam="1">  1       21 0.38214416E-02 0.45052530E+03</pdfrwt>
<pdfrwt beam="2">  1       21 0.28716621E+00 0.45052530E+03</pdfrwt>
<totfact> 0.14559553E+04</totfact>
</mgrwt>
</event>
<event>
 7    0  0.4752811E-002  0.4557987E+03  0.7546771E-02  0.1026007E+00
         21   -1    0    0  502  501  0.00000000000E+00  0.00000000000E+00  0.77421446466E+03  0.77421446466E+03  0.00000000000E+00 0.  1.
         21   -1    0    0  501  502 -0.00000000000E+00 -0.00000000000E+00 -0.67084911432E+02  0.67084911432E+02  0.00000000000E+00 0.  1.
      99926    2    1    2    0    0  0.14210854715E-13  0.00000000000E+00  0.70712955323E+03  0.84129937609E+03  0.45579867833E+03 0.  0.
      99925    2    3    3    0    0 -0.68268478824E+02  0.88051387981E+02  0.40075190611E+03  0.49211689818E+03  0.26298919959E+03 0.  0.
         25    1    4    4    0    0  0.31179982916E+01  0.56470794596E+02  0.17389521010E+03  0.22155298408E+03  0.12509000000E+03 0.  0.
         25    1    4    4    0    0 -0.71386477116E+02  0.31580593385E+02  0.22685669600E+03  0.27056391410E+03  0.12509000000E+03 0.  0.
         25    1    3    3    0    0  0.68268478824E+02 -0.88051387981E+02  0.30637764712E+03  0.34918247791E+03  0.12509000000E+03 0.  0.
<mgrwt>
<rscale>  2 0.45579868E+03</rscale>
<asrwt>0</asrwt>
<pdfrwt beam="1">  1       21 0.11385506E+00 0.45579868E+03</pdfrwt>
<pdfrwt beam="2">  1       21 0.98654286E-02 0.45579868E+03</pdfrwt>
<totfact> 0.45545081E+04</totfact>
</mgrwt>
</event>
<event>
 7    0  0.4752811E-002  0.4610510E+03  0.7546771E-02  0.1024477E+00
         21   -1    0    0  502  501  0.00000000000E+00  0.00000000000E+00  0.21995847205E+03  0.21995847205E+03  0.00000000000E+00 0.  1.
         21   -1    0    0  501  502 -0.00000000000E+00 -0.00000000000E+00 -0.24160015941E+03  0.24160015941E+03  0.00000000000E+00 0.  1.
      99926    2    1    2    0    0  0.00000000000E+00  0.00000000000E+00 -0.21641687351E+02  0.46155863146E+03  0.46105098161E+03 0.  0.
      99925    2    3    3    0    0 -0.10871641789E+03 -0.41495501674E+02  0.10750559817E+02  0.28766814306E+03  0.26286165529E+03 0.  0.
         25    1    4    4    0    0 -0.63559118622E+02  0.18248068334E+02  0.10382085827E+02  0.14187335678E+03  0.12509000000E+03 0.  0.
         25    1    3    3    0    0  0.10871641789E+03  0.41495501674E+02 -0.32392247168E+02  0.17389048840E+03  0.12509000000E+03 0.  0.
         25    1    4    4    0    0 -0.45157299268E+02 -0.59743570007E+02  0.36847398929E+00  0.14579478628E+03  0.12509000000E+03 0.  0.
<mgrwt>
<rscale>  2 0.46105098E+03</rscale>
<asrwt>0</asrwt>
<pdfrwt beam="1">  1       21 0.32346834E-01 0.46105098E+03</pdfrwt>
<pdfrwt beam="2">  1       21 0.35529435E-01 0.46105098E+03</pdfrwt>
<totfact> 0.64878608E+04</totfact>
</mgrwt>
</event>
<event>
 7    0  0.4752811E-002  0.4525718E+03  0.7546771E-02  0.1026958E+00
         21   -1    0    0  502  501  0.00000000000E+00  0.00000000000E+00  0.17738774969E+03  0.17738774969E+03  0.00000000000E+00 0. -1.
         21   -1    0    0  501  502 -0.00000000000E+00 -0.00000000000E+00 -0.28866321258E+03  0.28866321258E+03  0.00000000000E+00 0. -1.
      99926    2    1    2    0    0  0.00000000000E+00  0.26645352591E-14 -0.11127546289E+03  0.46605096227E+03  0.45257184048E+03 0.  0.
      99925    2    3    3    0    0 -0.88091212376E+02  0.75429807001E+01 -0.13920998915E+03  0.31034353113E+03  0.26290060475E+03 0.  0.
         25    1    4    4    0    0 -0.11962505718E+02 -0.14798696579E+02 -0.42661111035E+02  0.13352745582E+03  0.12509000000E+03 0.  0.
         25    1    4    4    0    0 -0.76128706658E+02  0.22341677279E+02 -0.96548878115E+02  0.17681607531E+03  0.12509000000E+03 0.  0.
         25    1    3    3    0    0  0.88091212376E+02 -0.75429807001E+01  0.27934526260E+02  0.15570743114E+03  0.12509000000E+03 0.  0.
<mgrwt>
<rscale>  2 0.45257184E+03</rscale>
<asrwt>0</asrwt>
<pdfrwt beam="1">  1       21 0.26086434E-01 0.45257184E+03</pdfrwt>
<pdfrwt beam="2">  1       21 0.42450472E-01 0.45257184E+03</pdfrwt>
<totfact> 0.69051112E+04</totfact>
</mgrwt>
</event>
<event>
 7    0  0.4752811E-002  0.4492317E+03  0.7546771E-02  0.1027951E+00
         21   -1    0    0  502  501  0.00000000000E+00  0.00000000000E+00  0.60858076174E+03  0.60858076174E+03  0.00000000000E+00 0.  1.
         21   -1    0    0  501  502 -0.00000000000E+00 -0.00000000000E+00 -0.82901518139E+02  0.82901518139E+02  0.00000000000E+00 0.  1.
      99926    2    1    2    0    0  0.00000000000E+00  0.00000000000E+00  0.52567924361E+03  0.69148227988E+03  0.44923165097E+03 0.  0.
      99925    2    3    3    0    0 -0.25254478827E+02 -0.83346608182E+02  0.42987846323E+03  0.51145521687E+03  0.26307128296E+03 0.  0.
         25    1    3    3    0    0  0.25254478827E+02  0.83346608182E+02  0.95800780378E+02  0.18002706301E+03  0.12509000000E+03 0.  0.
         25    1    4    4    0    0 -0.19996171895E+02 -0.25628736089E+02  0.27655080844E+03  0.30526142362E+03  0.12509000000E+03 0.  0.
         25    1    4    4    0    0 -0.52583069325E+01 -0.57717872093E+02  0.15332765479E+03  0.20619379325E+03  0.12509000000E+03 0.  0.
<mgrwt>
<rscale>  2 0.44923165E+03</rscale>
<asrwt>0</asrwt>
<pdfrwt beam="1">  1       21 0.89497169E-01 0.44923165E+03</pdfrwt>
<pdfrwt beam="2">  1       21 0.12191400E-01 0.44923165E+03</pdfrwt>
<totfact> 0.55861479E+04</totfact>
</mgrwt>
</event>
<event>
 7    0  0.4752811E-002  0.4642071E+03  0.7546771E-02  0.1023568E+00
         21   -1    0    0  502  501  0.00000000000E+00  0.00000000000E+00  0.57552323272E+02  0.57552323272E+02  0.00000000000E+00 0. -1.
         21   -1    0    0  501  502 -0.00000000000E+00 -0.00000000000E+00 -0.93605348023E+03  0.93605348023E+03  0.00000000000E+00 0. -1.
      99926    2    1    2    0    0  0.14210854715E-13 -0.22204460493E-14 -0.87850115696E+03  0.99360580350E+03  0.46420707661E+03 0.  0.
      99925    2    3    3    0    0 -0.11444710860E+03 -0.68807588695E-01 -0.46079482289E+03  0.54280181614E+03  0.26306614644E+03 0.  0.
         25    1    3    3    0    0  0.11444710860E+03  0.68807588695E-01 -0.41770633407E+03  0.45080398736E+03  0.12509000000E+03 0.  0.
         25    1    4    4    0    0 -0.17638073384E+02 -0.16966004660E+02 -0.19179302911E+03  0.23028465225E+03  0.12509000000E+03 0.  0.
         25    1    4    4    0    0 -0.96809035219E+02  0.16897197071E+02 -0.26900179379E+03  0.31251716389E+03  0.12509000000E+03 0.  0.
<mgrwt>
<rscale>  2 0.46420708E+03</rscale>
<asrwt>0</asrwt>
<pdfrwt beam="1">  1       21 0.84635774E-02 0.46420708E+03</pdfrwt>
<pdfrwt beam="2">  1       21 0.13765492E+00 0.46420708E+03</pdfrwt>
<totfact> 0.36704938E+04</totfact>
</mgrwt>
</event>
<event>
 7    0  0.4752811E-002  0.4540236E+03  0.7546771E-02  0.1026529E+00
         21   -1    0    0  502  501  0.00000000000E+00  0.00000000000E+00  0.43642628376E+03  0.43642628376E+03  0.00000000000E+00 0.  1.
         21   -1    0    0  501  502 -0.00000000000E+00 -0.00000000000E+00 -0.11808261865E+03  0.11808261865E+03  0.00000000000E+00 0.  1.
      99926    2    1    2    0    0  0.71054273576E-14  0.35527136788E-14  0.31834366512E+03  0.55450890241E+03  0.45402360482E+03 0.  0.
      99925    2    3    3    0    0  0.43263613433E+02  0.29766365504E+02  0.32170428111E+03  0.41880120697E+03  0.26295062220E+03 0.  0.
         25    1    3    3    0    0 -0.43263613433E+02 -0.29766365504E+02 -0.33606159882E+01  0.13570769544E+03  0.12509000000E+03 0.  0.
         25    1    4    4    0    0  0.30425163862E+02  0.12675468322E+02  0.22389780817E+03  0.25858092485E+03  0.12509000000E+03 0.  0.
         25    1    4    4    0    0  0.12838449571E+02  0.17090897182E+02  0.97806472935E+02  0.16022028212E+03  0.12509000000E+03 0.  0.
<mgrwt>
<rscale>  2 0.45402360E+03</rscale>
<asrwt>0</asrwt>
<pdfrwt beam="1">  1       21 0.64180335E-01 0.45402360E+03</pdfrwt>
<pdfrwt beam="2">  1       21 0.17365091E-01 0.45402360E+03</pdfrwt>
<totfact> 0.62047422E+04</totfact>
</mgrwt>
</event>
<event>
 7    0  0.4752811E-002  0.4544071E+03  0.7546771E-02  0.1026416E+00
         21   -1    0    0  502  501  0.00000000000E+00  0.00000000000E+00  0.75863603753E+03  0.75863603753E+03  0.00000000000E+00 0.  1.
         21   -1    0    0  501  502 -0.00000000000E+00 -0.00000000000E+00 -0.68045093514E+02  0.68045093514E+02  0.00000000000E+00 0.  1.
      99926    2    1    2    0    0  0.14210854715E-13  0.00000000000E+00  0.69059094402E+03  0.82668113105E+03  0.45440713074E+03 0.  0.
      99925    2    3    3    0    0  0.85507809956E+02 -0.95219182067E+01  0.30270008603E+03  0.41013692175E+03  0.26302604435E+03 0.  0.
         25    1    4    4    0    0  0.64909285493E+02 -0.11006065463E+02  0.20972614235E+03  0.25291680788E+03  0.12509000000E+03 0.  0.
         25    1    4    4    0    0  0.20598524463E+02  0.14841472561E+01  0.92973943681E+02  0.15722011387E+03  0.12509000000E+03 0.  0.
         25    1    3    3    0    0 -0.85507809956E+02  0.95219182067E+01  0.38789085798E+03  0.41654420930E+03  0.12509000000E+03 0.  0.
<mgrwt>
<rscale>  2 0.45440713E+03</rscale>
<asrwt>0</asrwt>
<pdfrwt beam="1">  1       21 0.11156412E+00 0.45440713E+03</pdfrwt>
<pdfrwt beam="2">  1       21 0.10006632E-01 0.45440713E+03</pdfrwt>
<totfact> 0.46718149E+04</totfact>
</mgrwt>
</event>
<event>
 7    0  0.4752811E-002  0.4515434E+03  0.7546771E-02  0.1027263E+00
         21   -1    0    0  502  501  0.00000000000E+00  0.00000000000E+00  0.24270340116E+03  0.24270340116E+03  0.00000000000E+00 0.  1.
         21   -1    0    0  501  502 -0.00000000000E+00 -0.00000000000E+00 -0.21002123877E+03  0.21002123877E+03  0.00000000000E+00 0.  1.
      99926    2    1    2    0    0  0.00000000000E+00  0.00000000000E+00  0.32682162389E+02  0.45272463992E+03  0.45154343739E+03 0.  0.
      99925    2    3    3    0    0 -0.75820938830E+02 -0.55306327486E+02  0.77895416423E+02  0.28993842716E+03  0.26303800299E+03 0.  0.
         25    1    3    3    0    0  0.75820938830E+02  0.55306327486E+02 -0.45213254034E+02  0.16278621276E+03  0.12509000000E+03 0.  0.
         25    1    4    4    0    0 -0.57087501524E+02  0.82004364181E+01  0.38113099608E+02  0.14292076983E+03  0.12509000000E+03 0.  0.
         25    1    4    4    0    0 -0.18733437306E+02 -0.63506763904E+02  0.39782316815E+02  0.14701765733E+03  0.12509000000E+03 0.  0.
<mgrwt>
<rscale>  2 0.45154344E+03</rscale>
<asrwt>0</asrwt>
<pdfrwt beam="1">  1       21 0.35691677E-01 0.45154344E+03</pdfrwt>
<pdfrwt beam="2">  1       21 0.30885476E-01 0.45154344E+03</pdfrwt>
<totfact> 0.70641044E+04</totfact>
</mgrwt>
</event>
<event>
 7    0  0.4752811E-002  0.4562649E+03  0.7546771E-02  0.1025870E+00
         21   -1    0    0  502  501  0.00000000000E+00  0.00000000000E+00  0.38357854618E+03  0.38357854618E+03  0.00000000000E+00 0.  1.
         21   -1    0    0  501  502 -0.00000000000E+00 -0.00000000000E+00 -0.13568124632E+03  0.13568124632E+03  0.00000000000E+00 0.  1.
      99926    2    1    2    0    0  0.00000000000E+00  0.14210854715E-13  0.24789729987E+03  0.51925979250E+03  0.45626490203E+03 0.  0.
      99925    2    3    3    0    0  0.14320622418E+02 -0.10368844401E+03  0.20845658099E+03  0.35145200945E+03  0.26288399560E+03 0.  0.
         25    1    3    3    0    0 -0.14320622418E+02  0.10368844401E+03  0.39440718883E+02  0.16780778305E+03  0.12509000000E+03 0.  0.
         25    1    4    4    0    0  0.56951232086E+01 -0.94979111559E+02  0.12050498469E+03  0.19804652357E+03  0.12509000000E+03 0.  0.
         25    1    4    4    0    0  0.86254992096E+01 -0.87093324460E+01  0.87951596294E+02  0.15340548588E+03  0.12509000000E+03 0.  0.
<mgrwt>
<rscale>  2 0.45626490E+03</rscale>
<asrwt>0</asrwt>
<pdfrwt beam="1">  1       21 0.56408610E-01 0.45626490E+03</pdfrwt>
<pdfrwt beam="2">  1       21 0.19953125E-01 0.45626490E+03</pdfrwt>
<totfact> 0.63300065E+04</totfact>
</mgrwt>
</event>
<event>
 7    0  0.4752811E-002  0.4442376E+03  0.7546771E-02  0.1029455E+00
         21   -1    0    0  502  501  0.00000000000E+00  0.00000000000E+00  0.54193614399E+03  0.54193614399E+03  0.00000000000E+00 0. -1.
         21   -1    0    0  501  502 -0.00000000000E+00 -0.00000000000E+00 -0.91037957979E+02  0.91037957979E+02  0.00000000000E+00 0. -1.
      99926    2    1    2    0    0  0.00000000000E+00  0.00000000000E+00  0.45089818601E+03  0.63297410197E+03  0.44423759365E+03 0.  0.
      99925    2    3    3    0    0 -0.17776437735E+02  0.10101861817E+03  0.27974074997E+03  0.39746796836E+03  0.26306869013E+03 0.  0.
         25    1    4    4    0    0 -0.23485509127E+02  0.91212520842E+02  0.16204879704E+03  0.22534110548E+03  0.12509000000E+03 0.  0.
         25    1    3    3    0    0  0.17776437735E+02 -0.10101861817E+03  0.17115743604E+03  0.23550613361E+03  0.12509000000E+03 0.  0.
         25    1    4    4    0    0  0.57090713920E+01  0.98060973231E+01  0.11769195293E+03  0.17212686288E+03  0.12509000000E+03 0.  0.
<mgrwt>
<rscale>  2 0.44423759E+03</rscale>
<asrwt>0</asrwt>
<pdfrwt beam="1">  1       21 0.79696491E-01 0.44423759E+03</pdfrwt>
<pdfrwt beam="2">  1       21 0.13387935E-01 0.44423759E+03</pdfrwt>
<totfact> 0.61775800E+04</totfact>
</mgrwt>
</event>
<event>
 7    0  0.4752811E-002  0.4492580E+03  0.7546771E-02  0.1027944E+00
         21   -1    0    0  502  501  0.00000000000E+00  0.00000000000E+00  0.67744594154E+02  0.67744594154E+02  0.00000000000E+00 0. -1.
         21   -1    0    0  501  502 -0.00000000000E+00 -0.00000000000E+00 -0.74482986825E+03  0.74482986825E+03  0.00000000000E+00 0. -1.
      99926    2    1    2    0    0  0.00000000000E+00  0.00000000000E+00 -0.67708527410E+03  0.81257446241E+03  0.44925804228E+03 0.  0.
      99925    2    3    3    0    0 -0.71109510586E+02  0.61412025100E+02 -0.52356565593E+03  0.59338554712E+03  0.26297796892E+03 0.  0.
         25    1    4    4    0    0 -0.42572210894E+02  0.29828986358E+02 -0.34961616572E+03  0.37494150611E+03  0.12509000000E+03 0.  0.
         25    1    3    3    0    0  0.71109510586E+02 -0.61412025100E+02 -0.15351961817E+03  0.21918891529E+03  0.12509000000E+03 0.  0.
         25    1    4    4    0    0 -0.28537299692E+02  0.31583038741E+02 -0.17394949021E+03  0.21844404101E+03  0.12509000000E+03 0.  0.
<mgrwt>
<rscale>  2 0.44925804E+03</rscale>
<asrwt>0</asrwt>
<pdfrwt beam="1">  1       21 0.99624401E-02 0.44925804E+03</pdfrwt>
<pdfrwt beam="2">  1       21 0.10953381E+00 0.44925804E+03</pdfrwt>
<totfact> 0.49348862E+04</totfact>
</mgrwt>
</event>
<event>
 7    0  0.4752811E-002  0.4542127E+03  0.7546771E-02  0.1026473E+00
         21   -1    0    0  502  501  0.00000000000E+00  0.00000000000E+00  0.71025324229E+03  0.71025324229E+03  0.00000000000E+00 0.  1.
         21   -1    0    0  501  502 -0.00000000000E+00 -0.00000000000E+00 -0.72618161109E+02  0.72618161109E+02  0.00000000000E+00 0.  1.
      99926    2    1    2    0    0 -0.14210854715E-13  0.00000000000E+00  0.63763508118E+03  0.78287140340E+03  0.45421265670E+03 0.  0.
      99925    2    3    3    0    0 -0.90528653077E+02 -0.66576723483E+02  0.40535387941E+03  0.49611373230E+03  0.26303834452E+03 0.  0.
         25    1    3    3    0    0  0.90528653077E+02  0.66576723483E+02  0.23228120177E+03  0.28675767110E+03  0.12509000000E+03 0.  0.
         25    1    4    4    0    0 -0.79476708146E+02 -0.59859889718E+02  0.24051812214E+03  0.28878405204E+03  0.12509000000E+03 0.  0.
         25    1    4    4    0    0 -0.11051944930E+02 -0.67168337658E+01  0.16483575727E+03  0.20732968027E+03  0.12509000000E+03 0.  0.
<mgrwt>
<rscale>  2 0.45421266E+03</rscale>
<asrwt>0</asrwt>
<pdfrwt beam="1">  1       21 0.10444900E+00 0.45421266E+03</pdfrwt>
<pdfrwt beam="2">  1       21 0.10679142E-01 0.45421266E+03</pdfrwt>
<totfact> 0.48906029E+04</totfact>
</mgrwt>
</event>
<event>
 7    0  0.4752811E-002  0.4574685E+03  0.7546771E-02  0.1025518E+00
         21   -1    0    0  502  501  0.00000000000E+00  0.00000000000E+00  0.17498294672E+03  0.17498294672E+03  0.00000000000E+00 0. -1.
         21   -1    0    0  501  502 -0.00000000000E+00 -0.00000000000E+00 -0.29899686393E+03  0.29899686393E+03  0.00000000000E+00 0. -1.
      99926    2    1    2    0    0  0.00000000000E+00  0.00000000000E+00 -0.12401391721E+03  0.47397981065E+03  0.45746847896E+03 0.  0.
      99925    2    3    3    0    0  0.76820740893E+02  0.82052100540E+02 -0.10536048816E+03  0.30477747038E+03  0.26297243307E+03 0.  0.
         25    1    3    3    0    0 -0.76820740893E+02 -0.82052100540E+02 -0.18653429050E+02  0.16920234026E+03  0.12509000000E+03 0.  0.
         25    1    4    4    0    0  0.15837341911E+02  0.42558941543E+01 -0.38618452626E+02  0.13193872448E+03  0.12509000000E+03 0.  0.
         25    1    4    4    0    0  0.60983398982E+02  0.77796206386E+02 -0.66742035531E+02  0.17283874591E+03  0.12509000000E+03 0.  0.
<mgrwt>
<rscale>  2 0.45746848E+03</rscale>
<asrwt>0</asrwt>
<pdfrwt beam="1">  1       21 0.25732786E-01 0.45746848E+03</pdfrwt>
<pdfrwt beam="2">  1       21 0.43970127E-01 0.45746848E+03</pdfrwt>
<totfact> 0.65841953E+04</totfact>
</mgrwt>
</event>
<event>
 7    0  0.4752811E-002  0.4918036E+03  0.7546771E-02  0.1015941E+00
         21   -1    0    0  502  501  0.00000000000E+00  0.00000000000E+00  0.45281467649E+03  0.45281467649E+03  0.00000000000E+00 0.  1.
         21   -1    0    0  501  502 -0.00000000000E+00 -0.00000000000E+00 -0.13353738376E+03  0.13353738376E+03  0.00000000000E+00 0.  1.
      99926    2    1    2    0    0  0.00000000000E+00  0.88817841970E-15  0.31927729273E+03  0.58635206024E+03  0.49180356739E+03 0.  0.
      99925    2    3    3    0    0  0.72689768515E+02 -0.74109024508E+01  0.34409748530E+03  0.43937493964E+03  0.26326514063E+03 0.  0.
         25    1    4    4    0    0  0.12661884024E+02  0.21048133412E+02  0.20114005844E+03  0.23813479048E+03  0.12509000000E+03 0.  0.
         25    1    4    4    0    0  0.60027884491E+02 -0.28459035863E+02  0.14295742686E+03  0.20124014916E+03  0.12509000000E+03 0.  0.
         25    1    3    3    0    0 -0.72689768515E+02  0.74109024508E+01 -0.24820192575E+02  0.14697712061E+03  0.12509000000E+03 0.  0.
<mgrwt>
<rscale>  2 0.49180357E+03</rscale>
<asrwt>0</asrwt>
<pdfrwt beam="1">  1       21 0.66590393E-01 0.49180357E+03</pdfrwt>
<pdfrwt beam="2">  1       21 0.19637851E-01 0.49180357E+03</pdfrwt>
<totfact> 0.44945769E+04</totfact>
</mgrwt>
</event>
<event>
 7    0  0.4752811E-002  0.4566991E+03  0.7546771E-02  0.1025743E+00
         21   -1    0    0  502  501  0.00000000000E+00  0.00000000000E+00  0.96504460948E+02  0.96504460948E+02  0.00000000000E+00 0.  1.
         21   -1    0    0  501  502 -0.00000000000E+00 -0.00000000000E+00 -0.54032229982E+03  0.54032229982E+03  0.00000000000E+00 0.  1.
      99926    2    1    2    0    0  0.00000000000E+00 -0.14210854715E-13 -0.44381783887E+03  0.63682676077E+03  0.45669907940E+03 0.  0.
      99925    2    3    3    0    0 -0.18332596284E+02 -0.10660625142E+03 -0.33203464895E+03  0.43721722548E+03  0.26307967847E+03 0.  0.
         25    1    4    4    0    0  0.23757030936E+02 -0.29128563908E+02 -0.16922444616E+03  0.21376924716E+03  0.12509000000E+03 0.  0.
         25    1    4    4    0    0 -0.42089627221E+02 -0.77477687512E+02 -0.16281020279E+03  0.22344797832E+03  0.12509000000E+03 0.  0.
         25    1    3    3    0    0  0.18332596284E+02  0.10660625142E+03 -0.11178318992E+03  0.19960953528E+03  0.12509000000E+03 0.  0.
<mgrwt>
<rscale>  2 0.45669908E+03</rscale>
<asrwt>0</asrwt>
<pdfrwt beam="1">  1       21 0.14191832E-01 0.45669908E+03</pdfrwt>
<pdfrwt beam="2">  1       21 0.79459163E-01 0.45669908E+03</pdfrwt>
<totfact> 0.55715939E+04</totfact>
</mgrwt>
</event>
<event>
 7    0  0.4752811E-002  0.4599206E+03  0.7546771E-02  0.1024804E+00
         21   -1    0    0  502  501  0.00000000000E+00  0.00000000000E+00  0.40205756385E+02  0.40205756385E+02  0.00000000000E+00 0.  1.
         21   -1    0    0  501  502 -0.00000000000E+00 -0.00000000000E+00 -0.13152778874E+04  0.13152778874E+04  0.00000000000E+00 0.  1.
      99926    2    1    2    0    0  0.00000000000E+00  0.00000000000E+00 -0.12750721311E+04  0.13554836438E+04  0.45992061194E+03 0.  0.
      99925    2    3    3    0    0 -0.78423526424E+02 -0.85036819487E+02 -0.86316429354E+03  0.90972913193E+03  0.26300757723E+03 0.  0.
         25    1    4    4    0    0 -0.37226776566E+01 -0.61603628217E+02 -0.43905197050E+03  0.46067668298E+03  0.12509000000E+03 0.  0.
         25    1    4    4    0    0 -0.74700848767E+02 -0.23433191269E+02 -0.42411232304E+03  0.44905244895E+03  0.12509000000E+03 0.  0.
         25    1    3    3    0    0  0.78423526424E+02  0.85036819487E+02 -0.41190783753E+03  0.44575451190E+03  0.12509000000E+03 0.  0.
<mgrwt>
<rscale>  2 0.45992061E+03</rscale>
<asrwt>0</asrwt>
<pdfrwt beam="1">  1       21 0.59126116E-02 0.45992061E+03</pdfrwt>
<pdfrwt beam="2">  1       21 0.19342321E+00 0.45992061E+03</pdfrwt>
<totfact> 0.26514106E+04</totfact>
</mgrwt>
</event>
<event>
 7    0  0.4752811E-002  0.4553778E+03  0.7546771E-02  0.1026130E+00
         21   -1    0    0  502  501  0.00000000000E+00  0.00000000000E+00  0.47002931950E+03  0.47002931950E+03  0.00000000000E+00 0. -1.
         21   -1    0    0  501  502 -0.00000000000E+00 -0.00000000000E+00 -0.11029573437E+03  0.11029573437E+03  0.00000000000E+00 0. -1.
      99926    2    1    2    0    0  0.00000000000E+00  0.00000000000E+00  0.35973358513E+03  0.58032505387E+03  0.45537777272E+03 0.  0.
      99925    2    3    3    0    0  0.10001866068E+03  0.38038381085E+02  0.27291965161E+03  0.39422073347E+03  0.26357958864E+03 0.  0.
         25    1    3    3    0    0 -0.10001866068E+03 -0.38038381085E+02  0.86813933521E+02  0.18610432040E+03  0.12509000000E+03 0.  0.
         25    1    4    4    0    0  0.25340793440E+02 -0.14952241762E+02  0.10779279297E+03  0.16772751612E+03  0.12509000000E+03 0.  0.
         25    1    4    4    0    0  0.74677867240E+02  0.52990622846E+02  0.16512685863E+03  0.22649321735E+03  0.12509000000E+03 0.  0.
<mgrwt>
<rscale>  2 0.45537777E+03</rscale>
<asrwt>0</asrwt>
<pdfrwt beam="1">  1       21 0.69121958E-01 0.45537777E+03</pdfrwt>
<pdfrwt beam="2">  1       21 0.16219961E-01 0.45537777E+03</pdfrwt>
<totfact> 0.59727376E+04</totfact>
</mgrwt>
</event>
<event>
 7    0  0.4752811E-002  0.4583348E+03  0.7546771E-02  0.1025265E+00
         21   -1    0    0  502  501  0.00000000000E+00  0.00000000000E+00  0.19055879123E+03  0.19055879123E+03  0.00000000000E+00 0. -1.
         21   -1    0    0  501  502 -0.00000000000E+00 -0.00000000000E+00 -0.27559837913E+03  0.27559837913E+03  0.00000000000E+00 0. -1.
      99926    2    1    2    0    0  0.00000000000E+00  0.00000000000E+00 -0.85039587909E+02  0.46615717036E+03  0.45833478590E+03 0.  0.
      99925    2    3    3    0    0 -0.70192919911E+02  0.89609501965E+02 -0.29228195645E+02  0.28805796078E+03  0.26299466249E+03 0.  0.
         25    1    4    4    0    0 -0.63957633003E+02  0.17113493693E+02 -0.75758633250E+01  0.14173338453E+03  0.12509000000E+03 0.  0.
         25    1    4    4    0    0 -0.62352869081E+01  0.72496008272E+02 -0.21652332320E+02  0.14632457624E+03  0.12509000000E+03 0.  0.
         25    1    3    3    0    0  0.70192919911E+02 -0.89609501965E+02 -0.55811392264E+02  0.17809920958E+03  0.12509000000E+03 0.  0.
<mgrwt>
<rscale>  2 0.45833479E+03</rscale>
<asrwt>0</asrwt>
<pdfrwt beam="1">  1       21 0.28023352E-01 0.45833479E+03</pdfrwt>
<pdfrwt beam="2">  1       21 0.40529173E-01 0.45833479E+03</pdfrwt>
<totfact> 0.65958421E+04</totfact>
</mgrwt>
</event>
<event>
 7    0  0.4752811E-002  0.4533296E+03  0.7546771E-02  0.1026734E+00
         21   -1    0    0  502  501  0.00000000000E+00  0.00000000000E+00  0.97111397050E+03  0.97111397050E+03  0.00000000000E+00 0.  1.
         21   -1    0    0  501  502 -0.00000000000E+00 -0.00000000000E+00 -0.52905155371E+02  0.52905155371E+02  0.00000000000E+00 0.  1.
      99926    2    1    2    0    0  0.00000000000E+00  0.00000000000E+00  0.91820881512E+03  0.10240191259E+04  0.45332961735E+03 0.  0.
      99925    2    3    3    0    0 -0.40431866982E+02  0.22622334500E+02  0.80799082685E+03  0.85098150301E+03  0.26300919433E+03 0.  0.
         25    1    3    3    0    0  0.40431866982E+02 -0.22622334500E+02  0.11021798828E+03  0.17303762286E+03  0.12509000000E+03 0.  0.
         25    1    4    4    0    0  0.10254808408E+02  0.35852147759E+02  0.36118256905E+03  0.38404543205E+03  0.12509000000E+03 0.  0.
         25    1    4    4    0    0 -0.50686675391E+02 -0.13229813259E+02  0.44680825780E+03  0.46693607095E+03  0.12509000000E+03 0.  0.
<mgrwt>
<rscale>  2 0.45332962E+03</rscale>
<asrwt>0</asrwt>
<pdfrwt beam="1">  1       21 0.14281087E+00 0.45332962E+03</pdfrwt>
<pdfrwt beam="2">  1       21 0.77801705E-02 0.45332962E+03</pdfrwt>
<totfact> 0.38748254E+04</totfact>
</mgrwt>
</event>
<event>
 7    0  0.4752811E-002  0.4602208E+03  0.7546771E-02  0.1024717E+00
         21   -1    0    0  502  501  0.00000000000E+00  0.00000000000E+00  0.13331777753E+03  0.13331777753E+03  0.00000000000E+00 0.  1.
         21   -1    0    0  501  502 -0.00000000000E+00 -0.00000000000E+00 -0.39717738530E+03  0.39717738530E+03  0.00000000000E+00 0.  1.
      99926    2    1    2    0    0  0.00000000000E+00 -0.71054273576E-14 -0.26385960778E+03  0.53049516283E+03  0.46022084391E+03 0.  0.
      99925    2    3    3    0    0 -0.10179439966E+03 -0.41241871698E+02 -0.11562316338E+03  0.30759486375E+03  0.26302641029E+03 0.  0.
         25    1    4    4    0    0 -0.41039120822E+02 -0.57290840659E+02 -0.74156765254E+02  0.16159574188E+03  0.12509000000E+03 0.  0.
         25    1    3    3    0    0  0.10179439966E+03  0.41241871698E+02 -0.14823644439E+03  0.22290029908E+03  0.12509000000E+03 0.  0.
         25    1    4    4    0    0 -0.60755278840E+02  0.16048968961E+02 -0.41466398129E+02  0.14599912187E+03  0.12509000000E+03 0.  0.
<mgrwt>
<rscale>  2 0.46022084E+03</rscale>
<asrwt>0</asrwt>
<pdfrwt beam="1">  1       21 0.19605555E-01 0.46022084E+03</pdfrwt>
<pdfrwt beam="2">  1       21 0.58408440E-01 0.46022084E+03</pdfrwt>
<totfact> 0.60625022E+04</totfact>
</mgrwt>
</event>
<event>
 7    0  0.4752811E-002  0.4564706E+03  0.7546771E-02  0.1025810E+00
         21   -1    0    0  502  501  0.00000000000E+00  0.00000000000E+00  0.10053344421E+03  0.10053344421E+03  0.00000000000E+00 0. -1.
         21   -1    0    0  501  502 -0.00000000000E+00 -0.00000000000E+00 -0.51814958713E+03  0.51814958713E+03  0.00000000000E+00 0. -1.
      99926    2    1    2    0    0  0.00000000000E+00  0.44408920985E-14 -0.41761614291E+03  0.61868303134E+03  0.45647064577E+03 0.  0.
      99925    2    3    3    0    0  0.10676650673E+03  0.16575666452E+01 -0.20609225637E+03  0.35074330460E+03  0.26295439358E+03 0.  0.
         25    1    4    4    0    0  0.55162930137E+02  0.40097272056E+02 -0.11570449878E+03  0.18353686068E+03  0.12509000000E+03 0.  0.
         25    1    3    3    0    0 -0.10676650673E+03 -0.16575666452E+01 -0.21152388654E+03  0.26793972674E+03  0.12509000000E+03 0.  0.
         25    1    4    4    0    0  0.51603576596E+02 -0.38439705411E+02 -0.90387757585E+02  0.16720644393E+03  0.12509000000E+03 0.  0.
<mgrwt>
<rscale>  2 0.45647065E+03</rscale>
<asrwt>0</asrwt>
<pdfrwt beam="1">  1       21 0.14784330E-01 0.45647065E+03</pdfrwt>
<pdfrwt beam="2">  1       21 0.76198468E-01 0.45647065E+03</pdfrwt>
<totfact> 0.56879313E+04</totfact>
</mgrwt>
</event>
<event>
 7    0  0.4752811E-002  0.4680631E+03  0.7546771E-02  0.1022468E+00
         21   -1    0    0  502  501  0.00000000000E+00  0.00000000000E+00  0.11706964979E+04  0.11706964979E+04  0.00000000000E+00 0. -1.
         21   -1    0    0  501  502 -0.00000000000E+00 -0.00000000000E+00 -0.46784768310E+02  0.46784768310E+02  0.00000000000E+00 0. -1.
      99926    2    1    2    0    0  0.00000000000E+00  0.00000000000E+00  0.11239117296E+04  0.12174812662E+04  0.46806309154E+03 0.  0.
      99925    2    3    3    0    0 -0.94858061604E+02  0.12233112264E+02  0.49018560138E+03  0.56448508355E+03  0.26308512855E+03 0.  0.
         25    1    3    3    0    0  0.94858061604E+02 -0.12233112264E+02  0.63372612822E+03  0.65299618266E+03  0.12509000000E+03 0.  0.
         25    1    4    4    0    0 -0.60159170036E+02 -0.33588202032E+01  0.32789100102E+03  0.35607643008E+03  0.12509000000E+03 0.  0.
         25    1    4    4    0    0 -0.34698891568E+02  0.15591932467E+02  0.16229460036E+03  0.20840865347E+03  0.12509000000E+03 0.  0.
<mgrwt>
<rscale>  2 0.46806309E+03</rscale>
<asrwt>0</asrwt>
<pdfrwt beam="1">  1       21 0.17216123E+00 0.46806309E+03</pdfrwt>
<pdfrwt beam="2">  1       21 0.68801138E-02 0.46806309E+03</pdfrwt>
<totfact> 0.28585651E+04</totfact>
</mgrwt>
</event>
<event>
 7    0  0.4752811E-002  0.4333780E+03  0.7546771E-02  0.1032798E+00
         21   -1    0    0  502  501  0.00000000000E+00  0.00000000000E+00  0.60172613470E+03  0.60172613470E+03  0.00000000000E+00 0.  1.
         21   -1    0    0  501  502 -0.00000000000E+00 -0.00000000000E+00 -0.78032398002E+02  0.78032398002E+02  0.00000000000E+00 0.  1.
      99926    2    1    2    0    0 -0.35527136788E-14  0.71054273576E-14  0.52369373669E+03  0.67975853270E+03  0.43337804850E+03 0.  0.
      99925    2    3    3    0    0  0.30363531993E+02 -0.51268638846E+02  0.22765311712E+03  0.35289774591E+03  0.26298376362E+03 0.  0.
         25    1    4    4    0    0  0.19984872661E+02 -0.54155724771E+02  0.80894054059E+02  0.15976105202E+03  0.12509000000E+03 0.  0.
         25    1    4    4    0    0  0.10378659332E+02  0.28870859253E+01  0.14675906306E+03  0.19313669389E+03  0.12509000000E+03 0.  0.
         25    1    3    3    0    0 -0.30363531993E+02  0.51268638846E+02  0.29604061957E+03  0.32686078679E+03  0.12509000000E+03 0.  0.
<mgrwt>
<rscale>  2 0.43337805E+03</rscale>
<asrwt>0</asrwt>
<pdfrwt beam="1">  1       21 0.88489135E-01 0.43337805E+03</pdfrwt>
<pdfrwt beam="2">  1       21 0.11475353E-01 0.43337805E+03</pdfrwt>
<totfact> 0.64280626E+04</totfact>
</mgrwt>
</event>
<event>
 6    0  0.4752811E-002  0.4579631E+03  0.7546771E-02  0.1025374E+00
         21   -1    0    0  502  501  0.00000000000E+00  0.00000000000E+00  0.16063623766E+04  0.16063623766E+04  0.00000000000E+00 0. -1.
         21   -1    0    0  501  502 -0.00000000000E+00 -0.00000000000E+00 -0.32640543092E+02  0.32640543092E+02  0.00000000000E+00 0. -1.
      99926    2    1    2    0    0 -0.14210854715E-13 -0.14210854715E-13  0.15737218335E+04  0.16390029197E+04  0.45796305691E+03 0.  0.
         25    1    3    3    0    0  0.75406657003E+02  0.37487987892E+02  0.59660502777E+03  0.61536702903E+03  0.12509000000E+03 0.  0.
         25    1    3    3    0    0 -0.51102218158E+02 -0.95020315338E+02  0.54041511085E+03  0.56509848448E+03  0.12509000000E+03 0.  0.
         25    1    3    3    0    0 -0.24304438845E+02  0.57532327447E+02  0.43670169488E+03  0.45853740617E+03  0.12509000000E+03 0.  0.
<mgrwt>
<rscale>  2 0.45796306E+03</rscale>
<asrwt>0</asrwt>
<pdfrwt beam="1">  1       21 0.23622971E+00 0.45796306E+03</pdfrwt>
<pdfrwt beam="2">  1       21 0.48000809E-02 0.45796306E+03</pdfrwt>
<totfact> 0.20096251E+04</totfact>
</mgrwt>
</event>
<event>
 7    0  0.4752811E-002  0.4562530E+03  0.7546771E-02  0.1025874E+00
         21   -1    0    0  502  501  0.00000000000E+00  0.00000000000E+00  0.64763583219E+03  0.64763583219E+03  0.00000000000E+00 0. -1.
         21   -1    0    0  501  502 -0.00000000000E+00 -0.00000000000E+00 -0.80356419737E+02  0.80356419737E+02  0.00000000000E+00 0. -1.
      99926    2    1    2    0    0 -0.14210854715E-13  0.71054273576E-14  0.56727941245E+03  0.72799225192E+03  0.45625298582E+03 0.  0.
      99925    2    3    3    0    0  0.99237999898E+02 -0.54850875819E+02  0.33309058478E+03  0.43929047793E+03  0.26300187667E+03 0.  0.
         25    1    4    4    0    0  0.85739354017E+02 -0.12059873930E+02  0.15621353295E+03  0.21805240967E+03  0.12509000000E+03 0.  0.
         25    1    4    4    0    0  0.13498645881E+02 -0.42791001889E+02  0.17687705183E+03  0.22123806826E+03  0.12509000000E+03 0.  0.
         25    1    3    3    0    0 -0.99237999898E+02  0.54850875819E+02  0.23418882767E+03  0.28870177399E+03  0.12509000000E+03 0.  0.
<mgrwt>
<rscale>  2 0.45625299E+03</rscale>
<asrwt>0</asrwt>
<pdfrwt beam="1">  1       21 0.95240561E-01 0.45625299E+03</pdfrwt>
<pdfrwt beam="2">  1       21 0.11817121E-01 0.45625299E+03</pdfrwt>
<totfact> 0.50905957E+04</totfact>
</mgrwt>
</event>
<event>
 7    0  0.4752811E-002  0.4573321E+03  0.7546771E-02  0.1025558E+00
         21   -1    0    0  502  501  0.00000000000E+00  0.00000000000E+00  0.22034570793E+02  0.22034570793E+02  0.00000000000E+00 0.  1.
         21   -1    0    0  501  502 -0.00000000000E+00 -0.00000000000E+00 -0.23730059558E+04  0.23730059558E+04  0.00000000000E+00 0.  1.
      99926    2    1    2    0    0  0.00000000000E+00 -0.35527136788E-14 -0.23509713850E+04  0.23950405266E+04  0.45733212319E+03 0.  0.
      99925    2    3    3    0    0 -0.69732360044E+02  0.13951826929E+02 -0.19518301217E+04  0.19707546422E+04  0.26301289000E+03 0.  0.
         25    1    4    4    0    0 -0.33962949719E+02 -0.33581786585E+02 -0.97712974685E+03  0.98626125779E+03  0.12509000000E+03 0.  0.
         25    1    4    4    0    0 -0.35769410325E+02  0.47533613514E+02 -0.97470037484E+03  0.98449338440E+03  0.12509000000E+03 0.  0.
         25    1    3    3    0    0  0.69732360044E+02 -0.13951826929E+02 -0.39914126330E+03  0.42428588438E+03  0.12509000000E+03 0.  0.
<mgrwt>
<rscale>  2 0.45733212E+03</rscale>
<asrwt>0</asrwt>
<pdfrwt beam="1">  1       21 0.32403781E-02 0.45733212E+03</pdfrwt>
<pdfrwt beam="2">  1       21 0.34897146E+00 0.45733212E+03</pdfrwt>
<totfact> 0.81179591E+03</totfact>
</mgrwt>
</event>
<event>
 7    0  0.4752811E-002  0.4532643E+03  0.7546771E-02  0.1026753E+00
         21   -1    0    0  502  501  0.00000000000E+00  0.00000000000E+00  0.49793893794E+03  0.49793893794E+03  0.00000000000E+00 0.  1.
         21   -1    0    0  501  502 -0.00000000000E+00 -0.00000000000E+00 -0.10314945969E+03  0.10314945969E+03  0.00000000000E+00 0.  1.
      99926    2    1    2    0    0  0.00000000000E+00 -0.35527136788E-14  0.39478947825E+03  0.60108839763E+03  0.45326430438E+03 0.  0.
      99925    2    3    3    0    0  0.37649795266E+02 -0.29717774270E+02  0.11530087341E+03  0.29114962702E+03  0.26300790998E+03 0.  0.
         25    1    4    4    0    0  0.32668729425E+02 -0.52412195115E+02  0.70116030269E+02  0.15613471709E+03  0.12509000000E+03 0.  0.
         25    1    4    4    0    0  0.49810658409E+01  0.22694420846E+02  0.45184843138E+02  0.13501490993E+03  0.12509000000E+03 0.  0.
         25    1    3    3    0    0 -0.37649795266E+02  0.29717774270E+02  0.27948860484E+03  0.30993877061E+03  0.12509000000E+03 0.  0.
<mgrwt>
<rscale>  2 0.45326430E+03</rscale>
<asrwt>0</asrwt>
<pdfrwt beam="1">  1       21 0.73226313E-01 0.45326430E+03</pdfrwt>
<pdfrwt beam="2">  1       21 0.15169038E-01 0.45326430E+03</pdfrwt>
<totfact> 0.59422033E+04</totfact>
</mgrwt>
</event>
<event>
 7    0  0.4752811E-002  0.4580768E+03  0.7546771E-02  0.1025340E+00
         21   -1    0    0  502  501  0.00000000000E+00  0.00000000000E+00  0.86686786936E+02  0.86686786936E+02  0.00000000000E+00 0. -1.
         21   -1    0    0  501  502 -0.00000000000E+00 -0.00000000000E+00 -0.60515099353E+03  0.60515099353E+03  0.00000000000E+00 0. -1.
      99926    2    1    2    0    0  0.00000000000E+00  0.00000000000E+00 -0.51846420659E+03  0.69183778046E+03  0.45807682867E+03 0.  0.
      99925    2    3    3    0    0  0.49308449818E+02  0.10492183348E+03 -0.33323008279E+03  0.44004599528E+03  0.26297961047E+03 0.  0.
         25    1    4    4    0    0  0.62713818871E+02  0.54412516754E+02 -0.15118504144E+03  0.21306846297E+03  0.12509000000E+03 0.  0.
         25    1    3    3    0    0 -0.49308449818E+02 -0.10492183348E+03 -0.18523412381E+03  0.25179178518E+03  0.12509000000E+03 0.  0.
         25    1    4    4    0    0 -0.13405369053E+02  0.50509316723E+02 -0.18204504135E+03  0.22697753231E+03  0.12509000000E+03 0.  0.
<mgrwt>
<rscale>  2 0.45807683E+03</rscale>
<asrwt>0</asrwt>
<pdfrwt beam="1">  1       21 0.12748057E-01 0.45807683E+03</pdfrwt>
<pdfrwt beam="2">  1       21 0.88992794E-01 0.45807683E+03</pdfrwt>
<totfact> 0.52075662E+04</totfact>
</mgrwt>
</event>
<event>
 7    0  0.4752811E-002  0.4535714E+03  0.7546771E-02  0.1026662E+00
         21   -1    0    0  502  501  0.00000000000E+00  0.00000000000E+00  0.26694301311E+02  0.26694301311E+02  0.00000000000E+00 0. -1.
         21   -1    0    0  501  502 -0.00000000000E+00 -0.00000000000E+00 -0.19266943496E+04  0.19266943496E+04  0.00000000000E+00 0. -1.
      99926    2    1    2    0    0  0.00000000000E+00  0.00000000000E+00 -0.19000000483E+04  0.19533886509E+04  0.45357142548E+03 0.  0.
      99925    2    3    3    0    0  0.97160783331E+02  0.48661079723E+02 -0.10871467462E+04  0.11238188121E+04  0.26319680158E+03 0.  0.
         25    1    3    3    0    0 -0.97160783331E+02 -0.48661079723E+02 -0.81285330217E+03  0.82956983880E+03  0.12509000000E+03 0.  0.
         25    1    4    4    0    0  0.62752760313E+02  0.64331238275E+02 -0.57851015935E+03  0.59866345279E+03  0.12509000000E+03 0.  0.
         25    1    4    4    0    0  0.34408023018E+02 -0.15670158552E+02 -0.50863658681E+03  0.52515535935E+03  0.12509000000E+03 0.  0.
<mgrwt>
<rscale>  2 0.45357143E+03</rscale>
<asrwt>0</asrwt>
<pdfrwt beam="1">  1       21 0.39256315E-02 0.45357143E+03</pdfrwt>
<pdfrwt beam="2">  1       21 0.28333748E+00 0.45357143E+03</pdfrwt>
<totfact> 0.14647769E+04</totfact>
</mgrwt>
</event>
<event>
 7    0  0.4752811E-002  0.4502147E+03  0.7546771E-02  0.1027658E+00
         21   -1    0    0  502  501  0.00000000000E+00  0.00000000000E+00  0.28825567049E+03  0.28825567049E+03  0.00000000000E+00 0. -1.
         21   -1    0    0  501  502 -0.00000000000E+00 -0.00000000000E+00 -0.17579299042E+03  0.17579299042E+03  0.00000000000E+00 0. -1.
      99926    2    1    2    0    0  0.35527136788E-14  0.71054273576E-14  0.11246268007E+03  0.46404866091E+03  0.45021473241E+03 0.  0.
      99925    2    3    3    0    0 -0.20253711394E+02 -0.62638750179E+02  0.16013897673E+03  0.31486969720E+03  0.26299165100E+03 0.  0.
         25    1    3    3    0    0  0.20253711394E+02  0.62638750179E+02 -0.47676296665E+02  0.14917896371E+03  0.12509000000E+03 0.  0.
         25    1    4    4    0    0 -0.44342384115E+02 -0.46735575690E+02  0.10286318530E+03  0.17429516360E+03  0.12509000000E+03 0.  0.
         25    1    4    4    0    0  0.24088672721E+02 -0.15903174488E+02  0.57275791437E+02  0.14057453360E+03  0.12509000000E+03 0.  0.
<mgrwt>
<rscale>  2 0.45021473E+03</rscale>
<asrwt>0</asrwt>
<pdfrwt beam="1">  1       21 0.42390540E-01 0.45021473E+03</pdfrwt>
<pdfrwt beam="2">  1       21 0.25851910E-01 0.45021473E+03</pdfrwt>
<totfact> 0.70520080E+04</totfact>
</mgrwt>
</event>
<event>
 7    0  0.4752811E-002  0.4753570E+03  0.7546771E-02  0.1020419E+00
         21   -1    0    0  502  501  0.00000000000E+00  0.00000000000E+00  0.55848135534E+03  0.55848135534E+03  0.00000000000E+00 0.  1.
         21   -1    0    0  501  502 -0.00000000000E+00 -0.00000000000E+00 -0.10115120975E+03  0.10115120975E+03  0.00000000000E+00 0.  1.
      99926    2    1    2    0    0  0.00000000000E+00  0.00000000000E+00  0.45733014559E+03  0.65963256509E+03  0.47535698045E+03 0.  0.
      99925    2    3    3    0    0 -0.52520224906E+02 -0.11898022773E+03  0.25719111759E+03  0.39015565097E+03  0.26298192410E+03 0.  0.
         25    1    4    4    0    0 -0.56330281442E+02 -0.74533711945E+02  0.10492237208E+03  0.18810791341E+03  0.12509000000E+03 0.  0.
         25    1    4    4    0    0  0.38100565355E+01 -0.44446515784E+02  0.15226874550E+03  0.20204773756E+03  0.12509000000E+03 0.  0.
         25    1    3    3    0    0  0.52520224906E+02  0.11898022773E+03  0.20013902800E+03  0.26947691412E+03  0.12509000000E+03 0.  0.
<mgrwt>
<rscale>  2 0.47535698E+03</rscale>
<asrwt>0</asrwt>
<pdfrwt beam="1">  1       21 0.82129610E-01 0.47535698E+03</pdfrwt>
<pdfrwt beam="2">  1       21 0.14875178E-01 0.47535698E+03</pdfrwt>
<totfact> 0.47116147E+04</totfact>
</mgrwt>
</event>
<event>
 7    0  0.4752811E-002  0.4193666E+03  0.7546771E-02  0.1037273E+00
         21   -1    0    0  502  501  0.00000000000E+00  0.00000000000E+00  0.80485200614E+02  0.80485200614E+02  0.00000000000E+00 0. -1.
         21   -1    0    0  501  502 -0.00000000000E+00 -0.00000000000E+00 -0.54627544778E+03  0.54627544778E+03  0.00000000000E+00 0. -1.
      99926    2    1    2    0    0 -0.14210854715E-13  0.17763568394E-14 -0.46579024717E+03  0.62676064839E+03  0.41936661291E+03 0.  0.
      99925    2    3    3    0    0  0.72094745694E+02  0.47500188946E+01 -0.27354912406E+03  0.38629365991E+03  0.26300846636E+03 0.  0.
         25    1    4    4    0    0  0.83084183507E+01  0.20870256981E+02 -0.16395460263E+03  0.20744449201E+03  0.12509000000E+03 0.  0.
         25    1    3    3    0    0 -0.72094745694E+02 -0.47500188946E+01 -0.19224112311E+03  0.24046698848E+03  0.12509000000E+03 0.  0.
         25    1    4    4    0    0  0.63786327344E+02 -0.16120238087E+02 -0.10959452143E+03  0.17884916790E+03  0.12509000000E+03 0.  0.
<mgrwt>
<rscale>  2 0.41936661E+03</rscale>
<asrwt>0</asrwt>
<pdfrwt beam="1">  1       21 0.11836059E-01 0.41936661E+03</pdfrwt>
<pdfrwt beam="2">  1       21 0.80334625E-01 0.41936661E+03</pdfrwt>
<totfact> 0.76373533E+04</totfact>
</mgrwt>
</event>
<event>
 7    0  0.4752811E-002  0.4671430E+03  0.7546771E-02  0.1022730E+00
         21   -1    0    0  502  501  0.00000000000E+00  0.00000000000E+00  0.32947766901E+03  0.32947766901E+03  0.00000000000E+00 0. -1.
         21   -1    0    0  501  502 -0.00000000000E+00 -0.00000000000E+00 -0.16558224119E+03  0.16558224119E+03  0.00000000000E+00 0. -1.
      99926    2    1    2    0    0  0.00000000000E+00  0.00000000000E+00  0.16389542782E+03  0.49505991020E+03  0.46714302245E+03 0.  0.
      99925    2    3    3    0    0  0.10826821587E+03 -0.47408307315E+02  0.14309932262E+03  0.32171187801E+03  0.26277663928E+03 0.  0.
         25    1    4    4    0    0  0.85055756128E+02 -0.33305821489E+01  0.95392831374E+02  0.17886552157E+03  0.12509000000E+03 0.  0.
         25    1    4    4    0    0  0.23212459746E+02 -0.44077725166E+02  0.47706491241E+02  0.14284635645E+03  0.12509000000E+03 0.  0.
         25    1    3    3    0    0 -0.10826821587E+03  0.47408307315E+02  0.20796105208E+02  0.17334803219E+03  0.12509000000E+03 0.  0.
<mgrwt>
<rscale>  2 0.46714302E+03</rscale>
<asrwt>0</asrwt>
<pdfrwt beam="1">  1       21 0.48452598E-01 0.46714302E+03</pdfrwt>
<pdfrwt beam="2">  1       21 0.24350330E-01 0.46714302E+03</pdfrwt>
<totfact> 0.59657542E+04</totfact>
</mgrwt>
</event>
<event>
 7    0  0.4752811E-002  0.4587120E+03  0.7546771E-02  0.1025155E+00
         21   -1    0    0  502  501  0.00000000000E+00  0.00000000000E+00  0.30967583203E+03  0.30967583203E+03  0.00000000000E+00 0.  1.
         21   -1    0    0  501  502 -0.00000000000E+00 -0.00000000000E+00 -0.16986855100E+03  0.16986855100E+03  0.00000000000E+00 0.  1.
      99926    2    1    2    0    0  0.00000000000E+00  0.00000000000E+00  0.13980728103E+03  0.47954438303E+03  0.45871204417E+03 0.  0.
      99925    2    3    3    0    0  0.22279026068E+02  0.45411774361E+02 -0.22157896230E+02  0.26873923367E+03  0.26300421878E+03 0.  0.
         25    1    4    4    0    0  0.15753446890E+02  0.32841965140E+01  0.24712586469E+02  0.12851917003E+03  0.12509000000E+03 0.  0.
         25    1    3    3    0    0 -0.22279026068E+02 -0.45411774361E+02  0.16196517726E+03  0.21080514936E+03  0.12509000000E+03 0.  0.
         25    1    4    4    0    0  0.65255791775E+01  0.42127577847E+02 -0.46870482698E+02  0.14022006364E+03  0.12509000000E+03 0.  0.
<mgrwt>
<rscale>  2 0.45871204E+03</rscale>
<asrwt>0</asrwt>
<pdfrwt beam="1">  1       21 0.45540563E-01 0.45871204E+03</pdfrwt>
<pdfrwt beam="2">  1       21 0.24980669E-01 0.45871204E+03</pdfrwt>
<totfact> 0.64802949E+04</totfact>
</mgrwt>
</event>
<event>
 7    0  0.4752811E-002  0.4561874E+03  0.7546771E-02  0.1025893E+00
         21   -1    0    0  502  501  0.00000000000E+00  0.00000000000E+00  0.12081803777E+03  0.12081803777E+03  0.00000000000E+00 0.  1.
         21   -1    0    0  501  502 -0.00000000000E+00 -0.00000000000E+00 -0.43062056497E+03  0.43062056497E+03  0.00000000000E+00 0.  1.
      99926    2    1    2    0    0  0.00000000000E+00  0.00000000000E+00 -0.30980252720E+03  0.55143860273E+03  0.45618738115E+03 0.  0.
      99925    2    3    3    0    0 -0.68906763909E+02  0.88676729411E+02 -0.22073922390E+03  0.36119800626E+03  0.26291917067E+03 0.  0.
         25    1    4    4    0    0 -0.15690490747E+02  0.50165243152E+02 -0.15303850977E+03  0.20452637163E+03  0.12509000000E+03 0.  0.
         25    1    3    3    0    0  0.68906763909E+02 -0.88676729411E+02 -0.89063303296E+02  0.19024059647E+03  0.12509000000E+03 0.  0.
         25    1    4    4    0    0 -0.53216273162E+02  0.38511486259E+02 -0.67700714132E+02  0.15667163463E+03  0.12509000000E+03 0.  0.
<mgrwt>
<rscale>  2 0.45618738E+03</rscale>
<asrwt>0</asrwt>
<pdfrwt beam="1">  1       21 0.17767359E-01 0.45618738E+03</pdfrwt>
<pdfrwt beam="2">  1       21 0.63326552E-01 0.45618738E+03</pdfrwt>
<totfact> 0.61194649E+04</totfact>
</mgrwt>
</event>
<event>
 7    0  0.4752811E-002  0.4718436E+03  0.7546771E-02  0.1021401E+00
         21   -1    0    0  502  501  0.00000000000E+00  0.00000000000E+00  0.92744178114E+03  0.92744178114E+03  0.00000000000E+00 0.  1.
         21   -1    0    0  501  502 -0.00000000000E+00 -0.00000000000E+00 -0.60013579745E+02  0.60013579745E+02  0.00000000000E+00 0.  1.
      99926    2    1    2    0    0  0.00000000000E+00  0.00000000000E+00  0.86742820139E+03  0.98745536089E+03  0.47184362364E+03 0.  0.
      99925    2    3    3    0    0 -0.30194014266E+02 -0.57119630697E+02  0.77020965396E+03  0.81636098701E+03  0.26276989808E+03 0.  0.
         25    1    4    4    0    0 -0.49312665758E+02 -0.51165215021E+02  0.40182505877E+03  0.42680265251E+03  0.12509000000E+03 0.  0.
         25    1    3    3    0    0  0.30194014266E+02  0.57119630697E+02  0.97218547432E+02  0.17109437388E+03  0.12509000000E+03 0.  0.
         25    1    4    4    0    0  0.19118651492E+02 -0.59544156767E+01  0.36838459519E+03  0.38955833450E+03  0.12509000000E+03 0.  0.
<mgrwt>
<rscale>  2 0.47184362E+03</rscale>
<asrwt>0</asrwt>
<pdfrwt beam="1">  1       21 0.13638849E+00 0.47184362E+03</pdfrwt>
<pdfrwt beam="2">  1       21 0.88255270E-02 0.47184362E+03</pdfrwt>
<totfact> 0.34841408E+04</totfact>
</mgrwt>
</event>
<event>
 7    0  0.4752811E-002  0.4580061E+03  0.7546771E-02  0.1025361E+00
         21   -1    0    0  502  501  0.00000000000E+00  0.00000000000E+00  0.52846924238E+04  0.52846924238E+04  0.00000000000E+00 0.  1.
         21   -1    0    0  501  502 -0.00000000000E+00 -0.00000000000E+00 -0.99234528858E+01  0.99234528858E+01  0.00000000000E+00 0.  1.
      99926    2    1    2    0    0  0.00000000000E+00  0.00000000000E+00  0.52747689709E+04  0.52946158767E+04  0.45800609727E+03 0.  0.
      99925    2    3    3    0    0  0.49137754757E+02 -0.11430136789E+02  0.21024898379E+04  0.21194705929E+04  0.26295799843E+03 0.  0.
         25    1    4    4    0    0  0.28301353736E+02  0.33166776507E+02  0.11282701531E+04  0.11360202675E+04  0.12509000000E+03 0.  0.
         25    1    3    3    0    0 -0.49137754757E+02  0.11430136789E+02  0.31722791330E+04  0.31751452837E+04  0.12509000000E+03 0.  0.
         25    1    4    4    0    0  0.20836401021E+02 -0.44596913296E+02  0.97421968481E+03  0.98345032547E+03  0.12509000000E+03 0.  0.
<mgrwt>
<rscale>  2 0.45800610E+03</rscale>
<asrwt>0</asrwt>
<pdfrwt beam="1">  1       21 0.77715869E+00 0.45800610E+03</pdfrwt>
<pdfrwt beam="2">  1       21 0.14593350E-02 0.45800610E+03</pdfrwt>
<totfact> 0.12642388E+01</totfact>
</mgrwt>
</event>
<event>
 7    0  0.4752811E-002  0.4599459E+03  0.7546771E-02  0.1024797E+00
         21   -1    0    0  502  501  0.00000000000E+00  0.00000000000E+00  0.17392446135E+03  0.17392446135E+03  0.00000000000E+00 0. -1.
         21   -1    0    0  501  502 -0.00000000000E+00 -0.00000000000E+00 -0.30408353168E+03  0.30408353168E+03  0.00000000000E+00 0. -1.
      99926    2    1    2    0    0  0.00000000000E+00  0.00000000000E+00 -0.13015907033E+03  0.47800799302E+03  0.45994592922E+03 0.  0.
      99925    2    3    3    0    0  0.16943093331E+02 -0.93419127770E+02 -0.15410534701E+03  0.31915229085E+03  0.26286027645E+03 0.  0.
         25    1    3    3    0    0 -0.16943093331E+02  0.93419127770E+02  0.23946276679E+02  0.15885570217E+03  0.12509000000E+03 0.  0.
         25    1    4    4    0    0 -0.10916364491E+02 -0.72656484392E+02 -0.52445785474E+02  0.15426017066E+03  0.12509000000E+03 0.  0.
         25    1    4    4    0    0  0.27859457821E+02 -0.20762643378E+02 -0.10165956154E+03  0.16489212019E+03  0.12509000000E+03 0.  0.
<mgrwt>
<rscale>  2 0.45994593E+03</rscale>
<asrwt>0</asrwt>
<pdfrwt beam="1">  1       21 0.25577127E-01 0.45994593E+03</pdfrwt>
<pdfrwt beam="2">  1       21 0.44718166E-01 0.45994593E+03</pdfrwt>
<totfact> 0.64284914E+04</totfact>
</mgrwt>
</event>
<event>
 7    0  0.4752811E-002  0.4545292E+03  0.7546771E-02  0.1026380E+00
         21   -1    0    0  502  501  0.00000000000E+00  0.00000000000E+00  0.12584584991E+03  0.12584584991E+03  0.00000000000E+00 0. -1.
         21   -1    0    0  501  502 -0.00000000000E+00 -0.00000000000E+00 -0.41041638075E+03  0.41041638075E+03  0.00000000000E+00 0. -1.
      99926    2    1    2    0    0 -0.71054273576E-14  0.14210854715E-13 -0.28457053084E+03  0.53626223066E+03  0.45452919929E+03 0.  0.
      99925    2    3    3    0    0  0.53817065403E+02 -0.68179417763E+02 -0.94583149496E+02  0.29277214317E+03  0.26310614989E+03 0.  0.
         25    1    4    4    0    0 -0.48272468685E+01 -0.59610011118E+02 -0.46780701418E+02  0.14633044066E+03  0.12509000000E+03 0.  0.
         25    1    3    3    0    0 -0.53817065403E+02  0.68179417763E+02 -0.18998738134E+03  0.24349008749E+03  0.12509000000E+03 0.  0.
         25    1    4    4    0    0  0.58644312272E+02 -0.85694066455E+01 -0.47802448077E+02  0.14644170251E+03  0.12509000000E+03 0.  0.
<mgrwt>
<rscale>  2 0.45452920E+03</rscale>
<asrwt>0</asrwt>
<pdfrwt beam="1">  1       21 0.18506743E-01 0.45452920E+03</pdfrwt>
<pdfrwt beam="2">  1       21 0.60355349E-01 0.45452920E+03</pdfrwt>
<totfact> 0.63018037E+04</totfact>
</mgrwt>
</event>
<event>
 7    0  0.4752811E-002  0.4543782E+03  0.7546771E-02  0.1026424E+00
         21   -1    0    0  502  501  0.00000000000E+00  0.00000000000E+00  0.64522619942E+02  0.64522619942E+02  0.00000000000E+00 0. -1.
         21   -1    0    0  501  502 -0.00000000000E+00 -0.00000000000E+00 -0.79995024704E+03  0.79995024704E+03  0.00000000000E+00 0. -1.
      99926    2    1    2    0    0  0.00000000000E+00  0.71054273576E-14 -0.73542762709E+03  0.86447286698E+03  0.45437819385E+03 0.  0.
      99925    2    3    3    0    0  0.66683658588E+02 -0.48953186723E+02 -0.60831814665E+03  0.66788331250E+03  0.26300955639E+03 0.  0.
         25    1    4    4    0    0  0.41871937471E+02 -0.40291721292E+02 -0.40380680993E+03  0.42671317040E+03  0.12509000000E+03 0.  0.
         25    1    3    3    0    0 -0.66683658588E+02  0.48953186723E+02 -0.12710948044E+03  0.19658955448E+03  0.12509000000E+03 0.  0.
         25    1    4    4    0    0  0.24811721117E+02 -0.86614654309E+01 -0.20451133673E+03  0.24117014209E+03  0.12509000000E+03 0.  0.
<mgrwt>
<rscale>  2 0.45437819E+03</rscale>
<asrwt>0</asrwt>
<pdfrwt beam="1">  1       21 0.94886210E-02 0.45437819E+03</pdfrwt>
<pdfrwt beam="2">  1       21 0.11763974E+00 0.45437819E+03</pdfrwt>
<totfact> 0.45017803E+04</totfact>
</mgrwt>
</event>
<event>
 7    0  0.4752811E-002  0.4625439E+03  0.7546771E-02  0.1024046E+00
         21   -1    0    0  502  501  0.00000000000E+00  0.00000000000E+00  0.10885145185E+03  0.10885145185E+03  0.00000000000E+00 0. -1.
         21   -1    0    0  501  502 -0.00000000000E+00 -0.00000000000E+00 -0.49137355973E+03  0.49137355973E+03  0.00000000000E+00 0. -1.
      99926    2    1    2    0    0  0.00000000000E+00  0.00000000000E+00 -0.38252210788E+03  0.60022501158E+03  0.46254394549E+03 0.  0.
      99925    2    3    3    0    0 -0.52086428146E+02  0.62178998504E+02 -0.12381210071E+03  0.30163231280E+03  0.26281817287E+03 0.  0.
         25    1    4    4    0    0 -0.63957021704E+02  0.39086078488E+02 -0.81468868992E+02  0.16704163215E+03  0.12509000000E+03 0.  0.
         25    1    4    4    0    0  0.11870593559E+02  0.23092920016E+02 -0.42343231719E+02  0.13459068065E+03  0.12509000000E+03 0.  0.
         25    1    3    3    0    0  0.52086428146E+02 -0.62178998504E+02 -0.25871000717E+03  0.29859269877E+03  0.12509000000E+03 0.  0.
<mgrwt>
<rscale>  2 0.46254395E+03</rscale>
<asrwt>0</asrwt>
<pdfrwt beam="1">  1       21 0.16007566E-01 0.46254395E+03</pdfrwt>
<pdfrwt beam="2">  1       21 0.72260819E-01 0.46254395E+03</pdfrwt>
<totfact> 0.55293979E+04</totfact>
</mgrwt>
</event>
<event>
 7    0  0.4752811E-002  0.4529045E+03  0.7546771E-02  0.1026859E+00
         21   -1    0    0  502  501  0.00000000000E+00  0.00000000000E+00  0.15320747274E+03  0.15320747274E+03  0.00000000000E+00 0.  1.
         21   -1    0    0  501  502 -0.00000000000E+00 -0.00000000000E+00 -0.33471352613E+03  0.33471352613E+03  0.00000000000E+00 0.  1.
      99926    2    1    2    0    0  0.44408920985E-15  0.00000000000E+00 -0.18150605339E+03  0.48792099887E+03  0.45290446423E+03 0.  0.
      99925    2    3    3    0    0  0.37710526895E+01  0.31915954633E+02  0.25935648195E+00  0.26494337371E+03  0.26298683429E+03 0.  0.
         25    1    4    4    0    0 -0.10634958675E+02  0.21085283448E+02  0.38342061366E+02  0.13294853626E+03  0.12509000000E+03 0.  0.
         25    1    4    4    0    0  0.14406011364E+02  0.10830671185E+02 -0.38082704884E+02  0.13199483745E+03  0.12509000000E+03 0.  0.
         25    1    3    3    0    0 -0.37710526895E+01 -0.31915954633E+02 -0.18176540987E+03  0.22297762516E+03  0.12509000000E+03 0.  0.
<mgrwt>
<rscale>  2 0.45290446E+03</rscale>
<asrwt>0</asrwt>
<pdfrwt beam="1">  1       21 0.22530511E-01 0.45290446E+03</pdfrwt>
<pdfrwt beam="2">  1       21 0.49222577E-01 0.45290446E+03</pdfrwt>
<totfact> 0.67239510E+04</totfact>
</mgrwt>
</event>
<event>
 7    0  0.4752811E-002  0.4579465E+03  0.7546771E-02  0.1025378E+00
         21   -1    0    0  502  501  0.00000000000E+00  0.00000000000E+00  0.12933019573E+04  0.12933019573E+04  0.00000000000E+00 0.  1.
         21   -1    0    0  501  502 -0.00000000000E+00 -0.00000000000E+00 -0.40538669592E+02  0.40538669592E+02  0.00000000000E+00 0.  1.
      99926    2    1    2    0    0  0.00000000000E+00  0.00000000000E+00  0.12527632877E+04  0.13338406269E+04  0.45794646295E+03 0.  0.
      99925    2    3    3    0    0  0.42708865522E+02 -0.27360454622E+01  0.11000215772E+04  0.11318280744E+04  0.26297487821E+03 0.  0.
         25    1    4    4    0    0  0.25937818319E+02 -0.92423859574E+01  0.38564221247E+03  0.40635651374E+03  0.12509000000E+03 0.  0.
         25    1    4    4    0    0  0.16771047203E+02  0.65063404952E+01  0.71437936469E+03  0.72547156063E+03  0.12509000000E+03 0.  0.
         25    1    3    3    0    0 -0.42708865522E+02  0.27360454622E+01  0.15274171058E+03  0.20201255255E+03  0.12509000000E+03 0.  0.
<mgrwt>
<rscale>  2 0.45794646E+03</rscale>
<asrwt>0</asrwt>
<pdfrwt beam="1">  1       21 0.19019144E+00 0.45794646E+03</pdfrwt>
<pdfrwt beam="2">  1       21 0.59615699E-02 0.45794646E+03</pdfrwt>
<totfact> 0.27511864E+04</totfact>
</mgrwt>
</event>
<event>
 6    0  0.4752811E-002  0.4547551E+03  0.7546771E-02  0.1026313E+00
         21   -1    0    0  502  501  0.00000000000E+00  0.00000000000E+00  0.91275265896E+02  0.91275265896E+02  0.00000000000E+00 0.  1.
         21   -1    0    0  501  502 -0.00000000000E+00 -0.00000000000E+00 -0.56642451885E+03  0.56642451885E+03  0.00000000000E+00 0.  1.
      99926    2    1    2    0    0  0.00000000000E+00  0.14210854715E-13 -0.47514925296E+03  0.65769978475E+03  0.45475509263E+03 0.  0.
         25    1    3    3    0    0 -0.19926136642E+02 -0.33364235911E+01 -0.88452240410E+02  0.15452989865E+03  0.12509000000E+03 0.  0.
         25    1    3    3    0    0  0.82188906130E+02  0.71461137085E+02 -0.18386909371E+03  0.24762282231E+03  0.12509000000E+03 0.  0.
         25    1    3    3    0    0 -0.62262769488E+02 -0.68124713494E+02 -0.20282791883E+03  0.25554706379E+03  0.12509000000E+03 0.  0.
<mgrwt>
<rscale>  2 0.45475509E+03</rscale>
<asrwt>0</asrwt>
<pdfrwt beam="1">  1       21 0.13422833E-01 0.45475509E+03</pdfrwt>
<pdfrwt beam="2">  1       21 0.83297723E-01 0.45475509E+03</pdfrwt>
<totfact> 0.55366765E+04</totfact>
</mgrwt>
</event>
<event>
 7    0  0.4752811E-002  0.4391956E+03  0.7546771E-02  0.1030994E+00
         21   -1    0    0  502  501  0.00000000000E+00  0.00000000000E+00  0.87699251068E+02  0.87699251068E+02  0.00000000000E+00 0. -1.
         21   -1    0    0  501  502 -0.00000000000E+00 -0.00000000000E+00 -0.54987016301E+03  0.54987016301E+03  0.00000000000E+00 0. -1.
      99926    2    1    2    0    0  0.00000000000E+00  0.00000000000E+00 -0.46217091194E+03  0.63756941408E+03  0.43919563514E+03 0.  0.
      99925    2    3    3    0    0  0.81322928495E+02 -0.30457965076E+02 -0.35991019815E+03  0.45414131367E+03  0.26299786256E+03 0.  0.
         25    1    4    4    0    0  0.56399596689E+02 -0.16503389944E+02 -0.24788385362E+03  0.28380836734E+03  0.12509000000E+03 0.  0.
         25    1    4    4    0    0  0.24923331806E+02 -0.13954575133E+02 -0.11202634453E+03  0.17033294633E+03  0.12509000000E+03 0.  0.
         25    1    3    3    0    0 -0.81322928495E+02  0.30457965076E+02 -0.10226071379E+03  0.18342810041E+03  0.12509000000E+03 0.  0.
<mgrwt>
<rscale>  2 0.43919564E+03</rscale>
<asrwt>0</asrwt>
<pdfrwt beam="1">  1       21 0.12896948E-01 0.43919564E+03</pdfrwt>
<pdfrwt beam="2">  1       21 0.80863262E-01 0.43919564E+03</pdfrwt>
<totfact> 0.64044587E+04</totfact>
</mgrwt>
</event>
<event>
 7    0  0.4752811E-002  0.4543860E+03  0.7546771E-02  0.1026422E+00
         21   -1    0    0  502  501  0.00000000000E+00  0.00000000000E+00  0.58342337000E+02  0.58342337000E+02  0.00000000000E+00 0.  1.
         21   -1    0    0  501  502 -0.00000000000E+00 -0.00000000000E+00 -0.88472062612E+03  0.88472062612E+03  0.00000000000E+00 0.  1.
      99926    2    1    2    0    0  0.00000000000E+00  0.00000000000E+00 -0.82637828912E+03  0.94306296312E+03  0.45438604257E+03 0.  0.
      99925    2    3    3    0    0  0.69686536880E+02 -0.54921174339E+02 -0.66376507909E+03  0.71953866245E+03  0.26320953199E+03 0.  0.
         25    1    4    4    0    0  0.66980899267E+02 -0.25496026367E+02 -0.28195321748E+03  0.31667272250E+03  0.12509000000E+03 0.  0.
         25    1    4    4    0    0  0.27056376126E+01 -0.29425147972E+02 -0.38181186161E+03  0.40286593995E+03  0.12509000000E+03 0.  0.
         25    1    3    3    0    0 -0.69686536880E+02  0.54921174339E+02 -0.16261321003E+03  0.22352430067E+03  0.12509000000E+03 0.  0.
<mgrwt>
<rscale>  2 0.45438604E+03</rscale>
<asrwt>0</asrwt>
<pdfrwt beam="1">  1       21 0.85797551E-02 0.45438604E+03</pdfrwt>
<pdfrwt beam="2">  1       21 0.13010598E+00 0.45438604E+03</pdfrwt>
<totfact> 0.41622467E+04</totfact>
</mgrwt>
</event>
<event>
 7    0  0.4752811E-002  0.4539236E+03  0.7546771E-02  0.1026558E+00
         21   -1    0    0  502  501  0.00000000000E+00  0.00000000000E+00  0.81300598436E+03  0.81300598436E+03  0.00000000000E+00 0.  1.
         21   -1    0    0  501  502 -0.00000000000E+00 -0.00000000000E+00 -0.63359503522E+02  0.63359503522E+02  0.00000000000E+00 0.  1.
      99926    2    1    2    0    0 -0.35527136788E-14  0.00000000000E+00  0.74964648084E+03  0.87636548789E+03  0.45392358621E+03 0.  0.
      99925    2    3    3    0    0  0.24162846527E+02  0.96200540156E+02  0.57341452778E+03  0.63857651325E+03  0.26293983252E+03 0.  0.
         25    1    3    3    0    0 -0.24162846527E+02 -0.96200540156E+02  0.17623195307E+03  0.23778897464E+03  0.12509000000E+03 0.  0.
         25    1    4    4    0    0  0.18336123409E+02  0.27420063618E+02  0.19422541304E+03  0.23336471987E+03  0.12509000000E+03 0.  0.
         25    1    4    4    0    0  0.58267231181E+01  0.68780476537E+02  0.37918911474E+03  0.40521179337E+03  0.12509000000E+03 0.  0.
<mgrwt>
<rscale>  2 0.45392359E+03</rscale>
<asrwt>0</asrwt>
<pdfrwt beam="1">  1       21 0.11955970E+00 0.45392359E+03</pdfrwt>
<pdfrwt beam="2">  1       21 0.93175745E-02 0.45392359E+03</pdfrwt>
<totfact> 0.44646595E+04</totfact>
</mgrwt>
</event>
<event>
 7    0  0.4752811E-002  0.4389331E+03  0.7546771E-02  0.1031075E+00
         21   -1    0    0  502  501  0.00000000000E+00  0.00000000000E+00  0.10698415457E+03  0.10698415457E+03  0.00000000000E+00 0. -1.
         21   -1    0    0  501  502 -0.00000000000E+00 -0.00000000000E+00 -0.45021206861E+03  0.45021206861E+03  0.00000000000E+00 0. -1.
      99926    2    1    2    0    0  0.00000000000E+00  0.71054273576E-14 -0.34322791404E+03  0.55719622318E+03  0.43893305884E+03 0.  0.
      99925    2    3    3    0    0 -0.39987514599E+02  0.60263241818E+02 -0.13654414043E+03  0.30501305559E+03  0.26297909072E+03 0.  0.
         25    1    4    4    0    0 -0.29950732341E+02  0.58301736300E+02 -0.40323721711E+02  0.14686609362E+03  0.12509000000E+03 0.  0.
         25    1    4    4    0    0 -0.10036782259E+02  0.19615055181E+01 -0.96220418717E+02  0.15814696197E+03  0.12509000000E+03 0.  0.
         25    1    3    3    0    0  0.39987514599E+02 -0.60263241818E+02 -0.20668377361E+03  0.25218316758E+03  0.12509000000E+03 0.  0.
<mgrwt>
<rscale>  2 0.43893306E+03</rscale>
<asrwt>0</asrwt>
<pdfrwt beam="1">  1       21 0.15732964E-01 0.43893306E+03</pdfrwt>
<pdfrwt beam="2">  1       21 0.66207658E-01 0.43893306E+03</pdfrwt>
<totfact> 0.69857521E+04</totfact>
</mgrwt>
</event>
<event>
 7    0  0.4752811E-002  0.4284660E+03  0.7546771E-02  0.1034346E+00
         21   -1    0    0  502  501  0.00000000000E+00  0.00000000000E+00  0.59315320745E+02  0.59315320745E+02  0.00000000000E+00 0.  1.
         21   -1    0    0  501  502 -0.00000000000E+00 -0.00000000000E+00 -0.77375911963E+03  0.77375911963E+03  0.00000000000E+00 0.  1.
      99926    2    1    2    0    0  0.00000000000E+00  0.00000000000E+00 -0.71444379888E+03  0.83307444037E+03  0.42846596299E+03 0.  0.
      99925    2    3    3    0    0 -0.67506129194E+02  0.20222413592E+02 -0.36605216853E+03  0.45625849101E+03  0.26308097051E+03 0.  0.
         25    1    4    4    0    0 -0.32002468094E+01 -0.23414185964E+01 -0.21395438708E+03  0.24787035254E+03  0.12509000000E+03 0.  0.
         25    1    4    4    0    0 -0.64305882384E+02  0.22563832188E+02 -0.15209778145E+03  0.20838813847E+03  0.12509000000E+03 0.  0.
         25    1    3    3    0    0  0.67506129194E+02 -0.20222413592E+02 -0.34839163035E+03  0.37681594936E+03  0.12509000000E+03 0.  0.
<mgrwt>
<rscale>  2 0.42846596E+03</rscale>
<asrwt>0</asrwt>
<pdfrwt beam="1">  1       21 0.87228414E-02 0.42846596E+03</pdfrwt>
<pdfrwt beam="2">  1       21 0.11378810E+00 0.42846596E+03</pdfrwt>
<totfact> 0.57218991E+04</totfact>
</mgrwt>
</event>
<event>
 7    0  0.4752811E-002  0.4481738E+03  0.7546771E-02  0.1028268E+00
         21   -1    0    0  502  501  0.00000000000E+00  0.00000000000E+00  0.50038269118E+02  0.50038269118E+02  0.00000000000E+00 0.  1.
         21   -1    0    0  501  502 -0.00000000000E+00 -0.00000000000E+00 -0.10035305104E+04  0.10035305104E+04  0.00000000000E+00 0.  1.
      99926    2    1    2    0    0 -0.35527136788E-14  0.14210854715E-13 -0.95349224124E+03  0.10535687795E+04  0.44817375981E+03 0.  0.
      99925    2    3    3    0    0 -0.23561559027E+02 -0.93403708259E+02 -0.49649233649E+03  0.57006508681E+03  0.26304023119E+03 0.  0.
         25    1    3    3    0    0  0.23561559027E+02  0.93403708259E+02 -0.45699990475E+03  0.48350369266E+03  0.12509000000E+03 0.  0.
         25    1    4    4    0    0  0.25108246370E+02 -0.62062169541E+02 -0.26723842403E+03  0.30256572890E+03  0.12509000000E+03 0.  0.
         25    1    4    4    0    0 -0.48669805396E+02 -0.31341538718E+02 -0.22925391246E+03  0.26749935791E+03  0.12509000000E+03 0.  0.
<mgrwt>
<rscale>  2 0.44817376E+03</rscale>
<asrwt>0</asrwt>
<pdfrwt beam="1">  1       21 0.73585687E-02 0.44817376E+03</pdfrwt>
<pdfrwt beam="2">  1       21 0.14757802E+00 0.44817376E+03</pdfrwt>
<totfact> 0.39193598E+04</totfact>
</mgrwt>
</event>
<event>
 7    0  0.4752811E-002  0.4587017E+03  0.7546771E-02  0.1025158E+00
         21   -1    0    0  502  501  0.00000000000E+00  0.00000000000E+00  0.17930670325E+03  0.17930670325E+03  0.00000000000E+00 0. -1.
         21   -1    0    0  501  502 -0.00000000000E+00 -0.00000000000E+00 -0.29336222677E+03  0.29336222677E+03  0.00000000000E+00 0. -1.
      99926    2    1    2    0    0  0.00000000000E+00  0.00000000000E+00 -0.11405552352E+03  0.47266893002E+03  0.45870170587E+03 0.  0.
      99925    2    3    3    0    0 -0.10532752440E+03 -0.42933881936E+02 -0.45085208714E+02  0.29007205700E+03  0.26300554480E+03 0.  0.
         25    1    4    4    0    0 -0.95145977968E+01 -0.13609614016E+02 -0.23393501018E+02  0.12833749707E+03  0.12509000000E+03 0.  0.
         25    1    4    4    0    0 -0.95812926599E+02 -0.29324267920E+02 -0.21691707697E+02  0.16173455993E+03  0.12509000000E+03 0.  0.
         25    1    3    3    0    0  0.10532752440E+03  0.42933881936E+02 -0.68970314803E+02  0.18259687302E+03  0.12509000000E+03 0.  0.
<mgrwt>
<rscale>  2 0.45870171E+03</rscale>
<asrwt>0</asrwt>
<pdfrwt beam="1">  1       21 0.26368633E-01 0.45870171E+03</pdfrwt>
<pdfrwt beam="2">  1       21 0.43141504E-01 0.45870171E+03</pdfrwt>
<totfact> 0.65299023E+04</totfact>
</mgrwt>
</event>
<event>
 7    0  0.4752811E-002  0.4543832E+03  0.7546771E-02  0.1026423E+00
         21   -1    0    0  502  501  0.00000000000E+00  0.00000000000E+00  0.44794173279E+02  0.44794173279E+02  0.00000000000E+00 0. -1.
         21   -1    0    0  501  502 -0.00000000000E+00 -0.00000000000E+00 -0.11522930480E+04  0.11522930480E+04  0.00000000000E+00 0. -1.
      99926    2    1    2    0    0  0.88817841970E-15  0.71054273576E-14 -0.11074988747E+04  0.11970872213E+04  0.45438316193E+03 0.  0.
      99925    2    3    3    0    0  0.32460260091E+01 -0.50668272416E+02 -0.96204473710E+03  0.99863766909E+03  0.26300058447E+03 0.  0.
         25    1    3    3    0    0 -0.32460260091E+01  0.50668272416E+02 -0.14545413764E+03  0.19844955221E+03  0.12509000000E+03 0.  0.
         25    1    4    4    0    0  0.25198621904E+02 -0.10202288544E+02 -0.58152535899E+03  0.59544798974E+03  0.12509000000E+03 0.  0.
         25    1    4    4    0    0 -0.21952595895E+02 -0.40465983872E+02 -0.38051937810E+03  0.40318967934E+03  0.12509000000E+03 0.  0.
<mgrwt>
<rscale>  2 0.45438316E+03</rscale>
<asrwt>0</asrwt>
<pdfrwt beam="1">  1       21 0.65873776E-02 0.45438316E+03</pdfrwt>
<pdfrwt beam="2">  1       21 0.16945488E+00 0.45438316E+03</pdfrwt>
<totfact> 0.32403822E+04</totfact>
</mgrwt>
</event>
<event>
 7    0  0.4752811E-002  0.4569759E+03  0.7546771E-02  0.1025662E+00
         21   -1    0    0  502  501  0.00000000000E+00  0.00000000000E+00  0.49735611604E+03  0.49735611604E+03  0.00000000000E+00 0. -1.
         21   -1    0    0  501  502 -0.00000000000E+00 -0.00000000000E+00 -0.10496854652E+03  0.10496854652E+03  0.00000000000E+00 0. -1.
      99926    2    1    2    0    0  0.71054273576E-14  0.14210854715E-13  0.39238756953E+03  0.60232466256E+03  0.45697592322E+03 0.  0.
      99925    2    3    3    0    0  0.61384682335E+02  0.96381517455E+02  0.26432215018E+03  0.38994355261E+03  0.26293021700E+03 0.  0.
         25    1    4    4    0    0  0.67712649815E+01  0.40883859647E+02  0.80735878322E+02  0.15454167774E+03  0.12509000000E+03 0.  0.
         25    1    3    3    0    0 -0.61384682335E+02 -0.96381517455E+02  0.12806541935E+03  0.21238110995E+03  0.12509000000E+03 0.  0.
         25    1    4    4    0    0  0.54613417353E+02  0.55497657809E+02  0.18358627186E+03  0.23540187487E+03  0.12509000000E+03 0.  0.
<mgrwt>
<rscale>  2 0.45697592E+03</rscale>
<asrwt>0</asrwt>
<pdfrwt beam="1">  1       21 0.73140604E-01 0.45697592E+03</pdfrwt>
<pdfrwt beam="2">  1       21 0.15436551E-01 0.45697592E+03</pdfrwt>
<totfact> 0.57630433E+04</totfact>
</mgrwt>
</event>
<event>
 7    0  0.4752811E-002  0.4619305E+03  0.7546771E-02  0.1024223E+00
         21   -1    0    0  502  501  0.00000000000E+00  0.00000000000E+00  0.25853802521E+03  0.25853802521E+03  0.00000000000E+00 0. -1.
         21   -1    0    0  501  502 -0.00000000000E+00 -0.00000000000E+00 -0.20633304875E+03  0.20633304875E+03  0.00000000000E+00 0. -1.
      99926    2    1    2    0    0  0.00000000000E+00 -0.35527136788E-14  0.52204976460E+02  0.46487107396E+03  0.46193046645E+03 0.  0.
      99925    2    3    3    0    0 -0.67123105645E+02  0.16396002662E+02  0.13082778562E+03  0.30176560368E+03  0.26300614035E+03 0.  0.
         25    1    4    4    0    0 -0.44641297095E+02 -0.17290140173E+02  0.33172456673E+02  0.13798447136E+03  0.12509000000E+03 0.  0.
         25    1    4    4    0    0 -0.22481808550E+02  0.33686142835E+02  0.97655328944E+02  0.16378113233E+03  0.12509000000E+03 0.  0.
         25    1    3    3    0    0  0.67123105645E+02 -0.16396002662E+02 -0.78622809158E+02  0.16310547028E+03  0.12509000000E+03 0.  0.
<mgrwt>
<rscale>  2 0.46193047E+03</rscale>
<asrwt>0</asrwt>
<pdfrwt beam="1">  1       21 0.38020298E-01 0.46193047E+03</pdfrwt>
<pdfrwt beam="2">  1       21 0.30343095E-01 0.46193047E+03</pdfrwt>
<totfact> 0.64204272E+04</totfact>
</mgrwt>
</event>
<event>
 7    0  0.4752811E-002  0.4434775E+03  0.7546771E-02  0.1029685E+00
         21   -1    0    0  502  501  0.00000000000E+00  0.00000000000E+00  0.14083684116E+04  0.14083684116E+04  0.00000000000E+00 0.  1.
         21   -1    0    0  501  502 -0.00000000000E+00 -0.00000000000E+00 -0.34911370025E+02  0.34911370025E+02  0.00000000000E+00 0.  1.
      99926    2    1    2    0    0  0.00000000000E+00  0.35527136788E-14  0.13734570416E+04  0.14432797816E+04  0.44347748871E+03 0.  0.
      99925    2    3    3    0    0 -0.37027301457E+02 -0.24575328218E+02  0.57535730191E+03  0.63421509301E+03  0.26309274321E+03 0.  0.
         25    1    4    4    0    0 -0.15801646621E+02  0.14585222193E+02  0.35423338164E+03  0.37628608466E+03  0.12509000000E+03 0.  0.
         25    1    4    4    0    0 -0.21225654837E+02 -0.39160550411E+02  0.22112392028E+03  0.25792900835E+03  0.12509000000E+03 0.  0.
         25    1    3    3    0    0  0.37027301457E+02  0.24575328218E+02  0.79809973969E+03  0.80906468864E+03  0.12509000000E+03 0.  0.
<mgrwt>
<rscale>  2 0.44347749E+03</rscale>
<asrwt>0</asrwt>
<pdfrwt beam="1">  1       21 0.20711296E+00 0.44347749E+03</pdfrwt>
<pdfrwt beam="2">  1       21 0.51340259E-02 0.44347749E+03</pdfrwt>
<totfact> 0.27589819E+04</totfact>
</mgrwt>
</event>
<event>
 7    0  0.4752811E-002  0.4804968E+03  0.7546771E-02  0.1018999E+00
         21   -1    0    0  502  501  0.00000000000E+00  0.00000000000E+00  0.10475736727E+04  0.10475736727E+04  0.00000000000E+00 0. -1.
         21   -1    0    0  501  502 -0.00000000000E+00 -0.00000000000E+00 -0.55098065590E+02  0.55098065590E+02  0.00000000000E+00 0. -1.
      99926    2    1    2    0    0 -0.14210854715E-13  0.00000000000E+00  0.99247560709E+03  0.11026717383E+04  0.48049675515E+03 0.  0.
      99925    2    3    3    0    0  0.11882728228E+03  0.59294446955E+02  0.54630350333E+03  0.62064185462E+03  0.26289358971E+03 0.  0.
         25    1    4    4    0    0  0.40929475697E+02  0.15319999279E+02  0.18125496591E+03  0.22452348458E+03  0.12509000000E+03 0.  0.
         25    1    3    3    0    0 -0.11882728228E+03 -0.59294446955E+02  0.44617210376E+03  0.48202988364E+03  0.12509000000E+03 0.  0.
         25    1    4    4    0    0  0.77897806579E+02  0.43974447676E+02  0.36504853742E+03  0.39611837005E+03  0.12509000000E+03 0.  0.
<mgrwt>
<rscale>  2 0.48049676E+03</rscale>
<asrwt>0</asrwt>
<pdfrwt beam="1">  1       21 0.15405494E+00 0.48049676E+03</pdfrwt>
<pdfrwt beam="2">  1       21 0.81026574E-02 0.48049676E+03</pdfrwt>
<totfact> 0.29156116E+04</totfact>
</mgrwt>
</event>
<event>
 7    0  0.4752811E-002  0.4393051E+03  0.7546771E-02  0.1030960E+00
         21   -1    0    0  502  501  0.00000000000E+00  0.00000000000E+00  0.85445013016E+03  0.85445013016E+03  0.00000000000E+00 0.  1.
         21   -1    0    0  501  502 -0.00000000000E+00 -0.00000000000E+00 -0.56465832948E+02  0.56465832948E+02  0.00000000000E+00 0.  1.
      99926    2    1    2    0    0 -0.83266726847E-16  0.35527136788E-14  0.79798429721E+03  0.91091596311E+03  0.43930507992E+03 0.  0.
      99925    2    3    3    0    0  0.18939342818E-01  0.30921320342E+02  0.70179490055E+03  0.75011783954E+03  0.26306760036E+03 0.  0.
         25    1    3    3    0    0 -0.18939342818E-01 -0.30921320342E+02  0.96189396663E+02  0.16079812356E+03  0.12509000000E+03 0.  0.
         25    1    4    4    0    0 -0.24379842593E+02  0.16631730207E+02  0.25916543718E+03  0.28928398349E+03  0.12509000000E+03 0.  0.
         25    1    4    4    0    0  0.24398781936E+02  0.14289590136E+02  0.44262946337E+03  0.46083385606E+03  0.12509000000E+03 0.  0.
<mgrwt>
<rscale>  2 0.43930508E+03</rscale>
<asrwt>0</asrwt>
<pdfrwt beam="1">  1       21 0.12565442E+00 0.43930508E+03</pdfrwt>
<pdfrwt beam="2">  1       21 0.83037995E-02 0.43930508E+03</pdfrwt>
<totfact> 0.48445733E+04</totfact>
</mgrwt>
</event>
<event>
 7    0  0.4752811E-002  0.4585509E+03  0.7546771E-02  0.1025202E+00
         21   -1    0    0  502  501  0.00000000000E+00  0.00000000000E+00  0.82157921694E+02  0.82157921694E+02  0.00000000000E+00 0.  1.
         21   -1    0    0  501  502 -0.00000000000E+00 -0.00000000000E+00 -0.63983170569E+03  0.63983170569E+03  0.00000000000E+00 0.  1.
      99926    2    1    2    0    0  0.00000000000E+00  0.14210854715E-13 -0.55767378400E+03  0.72198962738E+03  0.45855094885E+03 0.  0.
      99925    2    3    3    0    0 -0.50780123902E+02  0.10463434079E+03 -0.33928917992E+03  0.44474188681E+03  0.26296621840E+03 0.  0.
         25    1    4    4    0    0 -0.40888728048E+02  0.65786270816E+02 -0.12338503075E+03  0.19201847678E+03  0.12509000000E+03 0.  0.
         25    1    4    4    0    0 -0.98913958541E+01  0.38848069972E+02 -0.21590414916E+03  0.25272341003E+03  0.12509000000E+03 0.  0.
         25    1    3    3    0    0  0.50780123902E+02 -0.10463434079E+03 -0.21838460408E+03  0.27724774058E+03  0.12509000000E+03 0.  0.
<mgrwt>
<rscale>  2 0.45855095E+03</rscale>
<asrwt>0</asrwt>
<pdfrwt beam="1">  1       21 0.12082047E-01 0.45855095E+03</pdfrwt>
<pdfrwt beam="2">  1       21 0.94092900E-01 0.45855095E+03</pdfrwt>
<totfact> 0.50305537E+04</totfact>
</mgrwt>
</event>
<event>
 7    0  0.4752811E-002  0.4544968E+03  0.7546771E-02  0.1026389E+00
         21   -1    0    0  502  501  0.00000000000E+00  0.00000000000E+00  0.78825848942E+02  0.78825848942E+02  0.00000000000E+00 0.  1.
         21   -1    0    0  501  502 -0.00000000000E+00 -0.00000000000E+00 -0.65513832375E+03  0.65513832375E+03  0.00000000000E+00 0.  1.
      99926    2    1    2    0    0  0.00000000000E+00  0.00000000000E+00 -0.57631247480E+03  0.73396417269E+03  0.45449679666E+03 0.  0.
      99925    2    3    3    0    0  0.81945910746E+02  0.68511255031E+02 -0.42029614466E+03  0.50725394414E+03  0.26315164883E+03 0.  0.
         25    1    4    4    0    0  0.36977321976E+02 -0.20217166684E+01 -0.15842046273E+03  0.20522173567E+03  0.12509000000E+03 0.  0.
         25    1    4    4    0    0  0.44968588770E+02  0.70532971699E+02 -0.26187568193E+03  0.30203220848E+03  0.12509000000E+03 0.  0.
         25    1    3    3    0    0 -0.81945910746E+02 -0.68511255031E+02 -0.15601633015E+03  0.22671022854E+03  0.12509000000E+03 0.  0.
<mgrwt>
<rscale>  2 0.45449680E+03</rscale>
<asrwt>0</asrwt>
<pdfrwt beam="1">  1       21 0.11592037E-01 0.45449680E+03</pdfrwt>
<pdfrwt beam="2">  1       21 0.96343869E-01 0.45449680E+03</pdfrwt>
<totfact> 0.51300108E+04</totfact>
</mgrwt>
</event>
<event>
 7    0  0.4752811E-002  0.4517713E+03  0.7546771E-02  0.1027195E+00
         21   -1    0    0  502  501  0.00000000000E+00  0.00000000000E+00  0.48339854014E+03  0.48339854014E+03  0.00000000000E+00 0.  1.
         21   -1    0    0  501  502 -0.00000000000E+00 -0.00000000000E+00 -0.10555332737E+03  0.10555332737E+03  0.00000000000E+00 0.  1.
      99926    2    1    2    0    0  0.00000000000E+00  0.00000000000E+00  0.37784521276E+03  0.58895186751E+03  0.45177128886E+03 0.  0.
      99925    2    3    3    0    0  0.30712090477E+02 -0.10432504624E+03  0.26082769953E+03  0.38605397625E+03  0.26302021968E+03 0.  0.
         25    1    4    4    0    0  0.12303686304E+01 -0.78780524662E+02  0.17649340230E+03  0.23022882971E+03  0.12509000000E+03 0.  0.
         25    1    3    3    0    0 -0.30712090477E+02  0.10432504624E+03  0.11701751323E+03  0.20289789126E+03  0.12509000000E+03 0.  0.
         25    1    4    4    0    0  0.29481721846E+02 -0.25544521578E+02  0.84334297224E+02  0.15582514654E+03  0.12509000000E+03 0.  0.
<mgrwt>
<rscale>  2 0.45177129E+03</rscale>
<asrwt>0</asrwt>
<pdfrwt beam="1">  1       21 0.71088020E-01 0.45177129E+03</pdfrwt>
<pdfrwt beam="2">  1       21 0.15522548E-01 0.45177129E+03</pdfrwt>
<totfact> 0.60902852E+04</totfact>
</mgrwt>
</event>
<event>
 7    0  0.4752811E-002  0.4478337E+03  0.7546771E-02  0.1028370E+00
         21   -1    0    0  502  501  0.00000000000E+00  0.00000000000E+00  0.30766258337E+02  0.30766258337E+02  0.00000000000E+00 0.  1.
         21   -1    0    0  501  502 -0.00000000000E+00 -0.00000000000E+00 -0.16296669570E+04  0.16296669570E+04  0.00000000000E+00 0.  1.
      99926    2    1    2    0    0 -0.71054273576E-14 -0.35527136788E-14 -0.15989006987E+04  0.16604332153E+04  0.44783369503E+03 0.  0.
      99925    2    3    3    0    0  0.34319386161E+02  0.18295625924E+02 -0.64663285627E+03  0.69919749922E+03  0.26311697380E+03 0.  0.
         25    1    4    4    0    0  0.24686843359E+02 -0.24467042313E+02 -0.26274413516E+03  0.29307006851E+03  0.12509000000E+03 0.  0.
         25    1    3    3    0    0 -0.34319386161E+02 -0.18295625924E+02 -0.95226784238E+03  0.96123571611E+03  0.12509000000E+03 0.  0.
         25    1    4    4    0    0  0.96325428022E+01  0.42762668237E+02 -0.38388872111E+03  0.40612743071E+03  0.12509000000E+03 0.  0.
<mgrwt>
<rscale>  2 0.44783370E+03</rscale>
<asrwt>0</asrwt>
<pdfrwt beam="1">  1       21 0.45244513E-02 0.44783370E+03</pdfrwt>
<pdfrwt beam="2">  1       21 0.23965683E+00 0.44783370E+03</pdfrwt>
<totfact> 0.21256366E+04</totfact>
</mgrwt>
</event>
<event>
 7    0  0.4752811E-002  0.4222902E+03  0.7546771E-02  0.1036323E+00
         21   -1    0    0  502  501  0.00000000000E+00  0.00000000000E+00  0.68580701958E+03  0.68580701958E+03  0.00000000000E+00 0. -1.
         21   -1    0    0  501  502 -0.00000000000E+00 -0.00000000000E+00 -0.65007001262E+02  0.65007001262E+02  0.00000000000E+00 0. -1.
      99926    2    1    2    0    0  0.00000000000E+00  0.71054273576E-14  0.62080001832E+03  0.75081402084E+03  0.42229022147E+03 0.  0.
      99925    2    3    3    0    0 -0.57299595846E+02 -0.53816193235E+02  0.41194668940E+03  0.49498859709E+03  0.26293385100E+03 0.  0.
         25    1    4    4    0    0 -0.52293211536E+02 -0.13468189518E+01  0.24298435307E+03  0.27825401674E+03  0.12509000000E+03 0.  0.
         25    1    3    3    0    0  0.57299595846E+02  0.53816193235E+02  0.20885332892E+03  0.25582542376E+03  0.12509000000E+03 0.  0.
         25    1    4    4    0    0 -0.50063843102E+01 -0.52469374283E+02  0.16896233633E+03  0.21673458035E+03  0.12509000000E+03 0.  0.
<mgrwt>
<rscale>  2 0.42229022E+03</rscale>
<asrwt>0</asrwt>
<pdfrwt beam="1">  1       21 0.10085397E+00 0.42229022E+03</pdfrwt>
<pdfrwt beam="2">  1       21 0.95598535E-02 0.42229022E+03</pdfrwt>
<totfact> 0.65510334E+04</totfact>
</mgrwt>
</event>
<event>
 7    0  0.4752811E-002  0.4536777E+03  0.7546771E-02  0.1026631E+00
         21   -1    0    0  502  501  0.00000000000E+00  0.00000000000E+00  0.44946300980E+03  0.44946300980E+03  0.00000000000E+00 0. -1.
         21   -1    0    0  501  502 -0.00000000000E+00 -0.00000000000E+00 -0.11448299876E+03  0.11448299876E+03  0.00000000000E+00 0. -1.
      99926    2    1    2    0    0  0.00000000000E+00  0.00000000000E+00  0.33498001105E+03  0.56394600856E+03  0.45367774110E+03 0.  0.
      99925    2    3    3    0    0 -0.80702949921E+02  0.74579700371E+02  0.18472623116E+03  0.33967205933E+03  0.26301754614E+03 0.  0.
         25    1    4    4    0    0 -0.28094036088E+02  0.74067673306E+02  0.11242788907E+03  0.18591082119E+03  0.12509000000E+03 0.  0.
         25    1    4    4    0    0 -0.52608913834E+02  0.51202706491E+00  0.72298342089E+02  0.15376123814E+03  0.12509000000E+03 0.  0.
         25    1    3    3    0    0  0.80702949921E+02 -0.74579700371E+02  0.15025377988E+03  0.22427394923E+03  0.12509000000E+03 0.  0.
<mgrwt>
<rscale>  2 0.45367774E+03</rscale>
<asrwt>0</asrwt>
<pdfrwt beam="1">  1       21 0.66097501E-01 0.45367774E+03</pdfrwt>
<pdfrwt beam="2">  1       21 0.16835735E-01 0.45367774E+03</pdfrwt>
<totfact> 0.61595883E+04</totfact>
</mgrwt>
</event>
<event>
 7    0  0.4752811E-002  0.4525621E+03  0.7546771E-02  0.1026961E+00
         21   -1    0    0  502  501  0.00000000000E+00  0.00000000000E+00  0.33635317998E+02  0.33635317998E+02  0.00000000000E+00 0.  1.
         21   -1    0    0  501  502 -0.00000000000E+00 -0.00000000000E+00 -0.15223020009E+04  0.15223020009E+04  0.00000000000E+00 0.  1.
      99926    2    1    2    0    0  0.00000000000E+00  0.00000000000E+00 -0.14886666829E+04  0.15559373189E+04  0.45256209248E+03 0.  0.
      99925    2    3    3    0    0  0.81625267156E+02 -0.12117023343E+02 -0.68412054083E+03  0.73755384563E+03  0.26297386624E+03 0.  0.
         25    1    3    3    0    0 -0.81625267156E+02  0.12117023343E+02 -0.80454614203E+03  0.81838347323E+03  0.12509000000E+03 0.  0.
         25    1    4    4    0    0  0.18319014845E+02 -0.29482903270E+02 -0.39462517610E+03  0.41542913427E+03  0.12509000000E+03 0.  0.
         25    1    4    4    0    0  0.63306252311E+02  0.17365879927E+02 -0.28949536474E+03  0.32212471136E+03  0.12509000000E+03 0.  0.
<mgrwt>
<rscale>  2 0.45256209E+03</rscale>
<asrwt>0</asrwt>
<pdfrwt beam="1">  1       21 0.49463713E-02 0.45256209E+03</pdfrwt>
<pdfrwt beam="2">  1       21 0.22386789E+00 0.45256209E+03</pdfrwt>
<totfact> 0.22870892E+04</totfact>
</mgrwt>
</event>
<event>
 7    0  0.4752811E-002  0.4471043E+03  0.7546771E-02  0.1028589E+00
         21   -1    0    0  502  501  0.00000000000E+00  0.00000000000E+00  0.86650852541E+02  0.86650852541E+02  0.00000000000E+00 0.  1.
         21   -1    0    0  501  502 -0.00000000000E+00 -0.00000000000E+00 -0.57674632321E+03  0.57674632321E+03  0.00000000000E+00 0.  1.
      99926    2    1    2    0    0 -0.71054273576E-14  0.17763568394E-14 -0.49009547067E+03  0.66339717575E+03  0.44710428585E+03 0.  0.
      99925    2    3    3    0    0 -0.47311154835E+02 -0.15981305267E+02 -0.44877260314E+03  0.52251128231E+03  0.26292098304E+03 0.  0.
         25    1    3    3    0    0  0.47311154835E+02  0.15981305267E+02 -0.41322867530E+02  0.14088589344E+03  0.12509000000E+03 0.  0.
         25    1    4    4    0    0 -0.59086345715E+02  0.11586900690E+01 -0.26933288930E+03  0.30278747030E+03  0.12509000000E+03 0.  0.
         25    1    4    4    0    0  0.11775190881E+02 -0.17139995336E+02 -0.17943971384E+03  0.21972381201E+03  0.12509000000E+03 0.  0.
<mgrwt>
<rscale>  2 0.44710429E+03</rscale>
<asrwt>0</asrwt>
<pdfrwt beam="1">  1       21 0.12742772E-01 0.44710429E+03</pdfrwt>
<pdfrwt beam="2">  1       21 0.84815635E-01 0.44710429E+03</pdfrwt>
<totfact> 0.58491507E+04</totfact>
</mgrwt>
</event>
<event>
 7    0  0.4752811E-002  0.4550974E+03  0.7546771E-02  0.1026213E+00
         21   -1    0    0  502  501  0.00000000000E+00  0.00000000000E+00  0.56666360582E+03  0.56666360582E+03  0.00000000000E+00 0.  1.
         21   -1    0    0  501  502 -0.00000000000E+00 -0.00000000000E+00 -0.91374144673E+02  0.91374144673E+02  0.00000000000E+00 0.  1.
      99926    2    1    2    0    0  0.00000000000E+00  0.14210854715E-13  0.47528946115E+03  0.65803775049E+03  0.45509736232E+03 0.  0.
      99925    2    3    3    0    0 -0.60232920691E+02  0.76792346679E+02  0.21680980332E+03  0.35474859662E+03  0.26327743304E+03 0.  0.
         25    1    4    4    0    0 -0.20194966935E+02  0.57316390030E+02  0.66373244475E+02  0.15409711528E+03  0.12509000000E+03 0.  0.
         25    1    4    4    0    0 -0.40037953756E+02  0.19475956648E+02  0.15043655884E+03  0.20065148134E+03  0.12509000000E+03 0.  0.
         25    1    3    3    0    0  0.60232920691E+02 -0.76792346679E+02  0.25847965783E+03  0.30328915387E+03  0.12509000000E+03 0.  0.
<mgrwt>
<rscale>  2 0.45509736E+03</rscale>
<asrwt>0</asrwt>
<pdfrwt beam="1">  1       21 0.83332882E-01 0.45509736E+03</pdfrwt>
<pdfrwt beam="2">  1       21 0.13437374E-01 0.45509736E+03</pdfrwt>
<totfact> 0.55198201E+04</totfact>
</mgrwt>
</event>
<event>
 7    0  0.4752811E-002  0.4312802E+03  0.7546771E-02  0.1033456E+00
         21   -1    0    0  502  501  0.00000000000E+00  0.00000000000E+00  0.42725195668E+03  0.42725195668E+03  0.00000000000E+00 0. -1.
         21   -1    0    0  501  502 -0.00000000000E+00 -0.00000000000E+00 -0.10883659452E+03  0.10883659452E+03  0.00000000000E+00 0. -1.
      99926    2    1    2    0    0  0.00000000000E+00  0.35527136788E-14  0.31841536216E+03  0.53608855120E+03  0.43128017792E+03 0.  0.
      99925    2    3    3    0    0 -0.75617600845E+02  0.11182757813E+02  0.26174605996E+03  0.37891987257E+03  0.26310871194E+03 0.  0.
         25    1    3    3    0    0  0.75617600845E+02 -0.11182757813E+02  0.56669302200E+02  0.15716867863E+03  0.12509000000E+03 0.  0.
         25    1    4    4    0    0 -0.33432073688E+02 -0.33338802606E+02  0.11230297928E+03  0.17460998415E+03  0.12509000000E+03 0.  0.
         25    1    4    4    0    0 -0.42185527157E+02  0.44521560419E+02  0.14944308068E+03  0.20430988842E+03  0.12509000000E+03 0.  0.
<mgrwt>
<rscale>  2 0.43128018E+03</rscale>
<asrwt>0</asrwt>
<pdfrwt beam="1">  1       21 0.62831169E-01 0.43128018E+03</pdfrwt>
<pdfrwt beam="2">  1       21 0.16005382E-01 0.43128018E+03</pdfrwt>
<totfact> 0.76108224E+04</totfact>
</mgrwt>
</event>
<event>
 7    0  0.4752811E-002  0.4492097E+03  0.7546771E-02  0.1027958E+00
         21   -1    0    0  502  501  0.00000000000E+00  0.00000000000E+00  0.57332701716E+03  0.57332701716E+03  0.00000000000E+00 0.  1.
         21   -1    0    0  501  502 -0.00000000000E+00 -0.00000000000E+00 -0.87990496120E+02  0.87990496120E+02  0.00000000000E+00 0.  1.
      99926    2    1    2    0    0  0.00000000000E+00 -0.17763568394E-14  0.48533652104E+03  0.66131751328E+03  0.44920965563E+03 0.  0.
      99925    2    3    3    0    0 -0.91604609707E+02  0.92450909085E+01  0.38650216210E+03  0.47721804334E+03  0.26434118739E+03 0.  0.
         25    1    4    4    0    0 -0.90036402900E+02  0.11333750088E+02  0.22375740636E+03  0.27193729560E+03  0.12509000000E+03 0.  0.
         25    1    3    3    0    0  0.91604609707E+02 -0.92450909085E+01  0.98834358931E+02  0.18409946994E+03  0.12509000000E+03 0.  0.
         25    1    4    4    0    0 -0.15682068065E+01 -0.20886591792E+01  0.16274475574E+03  0.20528074774E+03  0.12509000000E+03 0.  0.
<mgrwt>
<rscale>  2 0.44920966E+03</rscale>
<asrwt>0</asrwt>
<pdfrwt beam="1">  1       21 0.84312795E-01 0.44920966E+03</pdfrwt>
<pdfrwt beam="2">  1       21 0.12939779E-01 0.44920966E+03</pdfrwt>
<totfact> 0.57640472E+04</totfact>
</mgrwt>
</event>
<event>
 7    0  0.4752811E-002  0.4532703E+03  0.7546771E-02  0.1026751E+00
         21   -1    0    0  502  501  0.00000000000E+00  0.00000000000E+00  0.21078196496E+04  0.21078196496E+04  0.00000000000E+00 0.  1.
         21   -1    0    0  501  502 -0.00000000000E+00 -0.00000000000E+00 -0.24368071628E+02  0.24368071628E+02  0.00000000000E+00 0.  1.
      99926    2    1    2    0    0  0.00000000000E+00  0.17763568394E-14  0.20834515780E+04  0.21321877212E+04  0.45327033964E+03 0.  0.
      99925    2    3    3    0    0  0.66373434762E+02  0.10827294690E+02  0.89500743258E+03  0.93528770119E+03  0.26306295153E+03 0.  0.
         25    1    3    3    0    0 -0.66373434762E+02 -0.10827294690E+02  0.11884441454E+04  0.11969000200E+04  0.12509000000E+03 0.  0.
         25    1    4    4    0    0  0.46032064266E+02  0.27095503578E+02  0.57146539160E+03  0.58742941632E+03  0.12509000000E+03 0.  0.
         25    1    4    4    0    0  0.20341370496E+02 -0.16268208888E+02  0.32354204098E+03  0.34785828487E+03  0.12509000000E+03 0.  0.
<mgrwt>
<rscale>  2 0.45327034E+03</rscale>
<asrwt>0</asrwt>
<pdfrwt beam="1">  1       21 0.30997335E+00 0.45327034E+03</pdfrwt>
<pdfrwt beam="2">  1       21 0.35835414E-02 0.45327034E+03</pdfrwt>
<totfact> 0.11827260E+04</totfact>
</mgrwt>
</event>
<event>
 7    0  0.4752811E-002  0.4606777E+03  0.7546771E-02  0.1024585E+00
         21   -1    0    0  502  501  0.00000000000E+00  0.00000000000E+00  0.16148205794E+03  0.16148205794E+03  0.00000000000E+00 0. -1.
         21   -1    0    0  501  502 -0.00000000000E+00 -0.00000000000E+00 -0.32855656932E+03  0.32855656932E+03  0.00000000000E+00 0. -1.
      99926    2    1    2    0    0  0.00000000000E+00  0.00000000000E+00 -0.16707451138E+03  0.49003862725E+03  0.46067772233E+03 0.  0.
      99925    2    3    3    0    0  0.67628777650E+02 -0.96392808289E+02 -0.11156783786E+03  0.30950130712E+03  0.26358765451E+03 0.  0.
         25    1    4    4    0    0  0.33929773511E+02 -0.49389477003E+02 -0.11475199729E+02  0.13917520712E+03  0.12509000000E+03 0.  0.
         25    1    4    4    0    0  0.33699004140E+02 -0.47003331286E+02 -0.10009263813E+03  0.17032609999E+03  0.12509000000E+03 0.  0.
         25    1    3    3    0    0 -0.67628777650E+02  0.96392808289E+02 -0.55506673520E+02  0.18053732014E+03  0.12509000000E+03 0.  0.
<mgrwt>
<rscale>  2 0.46067772E+03</rscale>
<asrwt>0</asrwt>
<pdfrwt beam="1">  1       21 0.23747362E-01 0.46067772E+03</pdfrwt>
<pdfrwt beam="2">  1       21 0.48317141E-01 0.46067772E+03</pdfrwt>
<totfact> 0.63084607E+04</totfact>
</mgrwt>
</event>
<event>
 7    0  0.4752811E-002  0.4607776E+03  0.7546771E-02  0.1024556E+00
         21   -1    0    0  502  501  0.00000000000E+00  0.00000000000E+00  0.99879763120E+02  0.99879763120E+02  0.00000000000E+00 0. -1.
         21   -1    0    0  501  502 -0.00000000000E+00 -0.00000000000E+00 -0.53142907781E+03  0.53142907781E+03  0.00000000000E+00 0. -1.
      99926    2    1    2    0    0  0.88817841970E-15  0.00000000000E+00 -0.43154931469E+03  0.63130884093E+03  0.46077764879E+03 0.  0.
      99925    2    3    3    0    0  0.67468071580E+01 -0.37962228880E+02 -0.11669621850E+03  0.29032991122E+03  0.26303383757E+03 0.  0.
         25    1    4    4    0    0  0.27092327044E+02 -0.51047869467E+02 -0.70701207527E+02  0.15487429744E+03  0.12509000000E+03 0.  0.
         25    1    4    4    0    0 -0.20345519886E+02  0.13085640587E+02 -0.45995010974E+02  0.13545561378E+03  0.12509000000E+03 0.  0.
         25    1    3    3    0    0 -0.67468071580E+01  0.37962228880E+02 -0.31485309619E+03  0.34097892971E+03  0.12509000000E+03 0.  0.
<mgrwt>
<rscale>  2 0.46077765E+03</rscale>
<asrwt>0</asrwt>
<pdfrwt beam="1">  1       21 0.14688201E-01 0.46077765E+03</pdfrwt>
<pdfrwt beam="2">  1       21 0.78151333E-01 0.46077765E+03</pdfrwt>
<totfact> 0.54273307E+04</totfact>
</mgrwt>
</event>
<event>
 7    0  0.4752811E-002  0.4550683E+03  0.7546771E-02  0.1026221E+00
         21   -1    0    0  502  501  0.00000000000E+00  0.00000000000E+00  0.33261142478E+02  0.33261142478E+02  0.00000000000E+00 0. -1.
         21   -1    0    0  501  502 -0.00000000000E+00 -0.00000000000E+00 -0.15565248980E+04  0.15565248980E+04  0.00000000000E+00 0. -1.
      99926    2    1    2    0    0 -0.71054273576E-14  0.14210854715E-13 -0.15232637556E+04  0.15897860405E+04  0.45506833071E+03 0.  0.
      99925    2    3    3    0    0 -0.52039741328E+02 -0.93785133033E+02 -0.10853271075E+04  0.11218760047E+04  0.26299629972E+03 0.  0.
         25    1    4    4    0    0 -0.66166101254E+02 -0.49974406198E+02 -0.61278183614E+03  0.63089181405E+03  0.12509000000E+03 0.  0.
         25    1    3    3    0    0  0.52039741328E+02  0.93785133033E+02 -0.43793664804E+03  0.46791003585E+03  0.12509000000E+03 0.  0.
         25    1    4    4    0    0  0.14126359926E+02 -0.43810726834E+02 -0.47254527138E+03  0.49098419061E+03  0.12509000000E+03 0.  0.
<mgrwt>
<rscale>  2 0.45506833E+03</rscale>
<asrwt>0</asrwt>
<pdfrwt beam="1">  1       21 0.48913434E-02 0.45506833E+03</pdfrwt>
<pdfrwt beam="2">  1       21 0.22890077E+00 0.45506833E+03</pdfrwt>
<totfact> 0.21650065E+04</totfact>
</mgrwt>
</event>
<event>
 7    0  0.4752811E-002  0.4504890E+03  0.7546771E-02  0.1027576E+00
         21   -1    0    0  502  501  0.00000000000E+00  0.00000000000E+00  0.74701069249E+02  0.74701069249E+02  0.00000000000E+00 0.  1.
         21   -1    0    0  501  502 -0.00000000000E+00 -0.00000000000E+00 -0.67917493229E+03  0.67917493229E+03  0.00000000000E+00 0.  1.
      99926    2    1    2    0    0  0.00000000000E+00  0.00000000000E+00 -0.60447386304E+03  0.75387600154E+03  0.45048903937E+03 0.  0.
      99925    2    3    3    0    0 -0.78566713440E+02 -0.52905165156E+02 -0.47177105357E+03  0.54837848646E+03  0.26301968076E+03 0.  0.
         25    1    4    4    0    0 -0.71545205722E+02 -0.46024152002E+02 -0.29600428652E+03  0.33241989226E+03  0.12509000000E+03 0.  0.
         25    1    4    4    0    0 -0.70215077173E+01 -0.68810131543E+01 -0.17576676705E+03  0.21595859420E+03  0.12509000000E+03 0.  0.
         25    1    3    3    0    0  0.78566713440E+02  0.52905165156E+02 -0.13270280947E+03  0.20549751508E+03  0.12509000000E+03 0.  0.
<mgrwt>
<rscale>  2 0.45048904E+03</rscale>
<asrwt>0</asrwt>
<pdfrwt beam="1">  1       21 0.10985451E-01 0.45048904E+03</pdfrwt>
<pdfrwt beam="2">  1       21 0.99878667E-01 0.45048904E+03</pdfrwt>
<totfact> 0.51888699E+04</totfact>
</mgrwt>
</event>
<event>
 7    0  0.4752811E-002  0.4533729E+03  0.7546771E-02  0.1026721E+00
         21   -1    0    0  502  501  0.00000000000E+00  0.00000000000E+00  0.12826589464E+03  0.12826589464E+03  0.00000000000E+00 0.  1.
         21   -1    0    0  501  502 -0.00000000000E+00 -0.00000000000E+00 -0.40062670061E+03  0.40062670061E+03  0.00000000000E+00 0.  1.
      99926    2    1    2    0    0  0.16653345369E-15  0.71054273576E-14 -0.27236080598E+03  0.52889259525E+03  0.45337288039E+03 0.  0.
      99925    2    3    3    0    0  0.28330583628E+00 -0.38539108972E+02 -0.49390433796E+02  0.27034155937E+03  0.26298251005E+03 0.  0.
         25    1    3    3    0    0 -0.28330583628E+00  0.38539108972E+02 -0.22297037218E+03  0.25855103588E+03  0.12509000000E+03 0.  0.
         25    1    4    4    0    0 -0.16446138031E+02 -0.56238028250E+02 -0.20195272039E+02  0.13960139108E+03  0.12509000000E+03 0.  0.
         25    1    4    4    0    0  0.16729443867E+02  0.17698919279E+02 -0.29195161757E+02  0.13074016829E+03  0.12509000000E+03 0.  0.
<mgrwt>
<rscale>  2 0.45337288E+03</rscale>
<asrwt>0</asrwt>
<pdfrwt beam="1">  1       21 0.18862631E-01 0.45337288E+03</pdfrwt>
<pdfrwt beam="2">  1       21 0.58915692E-01 0.45337288E+03</pdfrwt>
<totfact> 0.64104304E+04</totfact>
</mgrwt>
</event>
<event>
 7    0  0.4752811E-002  0.4482936E+03  0.7546771E-02  0.1028232E+00
         21   -1    0    0  502  501  0.00000000000E+00  0.00000000000E+00  0.95603223298E+03  0.95603223298E+03  0.00000000000E+00 0.  1.
         21   -1    0    0  501  502 -0.00000000000E+00 -0.00000000000E+00 -0.52552409019E+02  0.52552409019E+02  0.00000000000E+00 0.  1.
      99926    2    1    2    0    0  0.00000000000E+00  0.00000000000E+00  0.90347982396E+03  0.10085846420E+04  0.44829364012E+03 0.  0.
      99925    2    3    3    0    0  0.95437532407E+02 -0.47859496480E+02  0.56801036912E+03  0.63497238681E+03  0.26297395040E+03 0.  0.
         25    1    4    4    0    0  0.82022052244E+01 -0.32819535796E+02  0.23396887482E+03  0.26745717524E+03  0.12509000000E+03 0.  0.
         25    1    3    3    0    0 -0.95437532407E+02  0.47859496480E+02  0.33546945484E+03  0.37361225519E+03  0.12509000000E+03 0.  0.
         25    1    4    4    0    0  0.87235327183E+02 -0.15039960684E+02  0.33404149430E+03  0.36751521157E+03  0.12509000000E+03 0.  0.
<mgrwt>
<rscale>  2 0.44829364E+03</rscale>
<asrwt>0</asrwt>
<pdfrwt beam="1">  1       21 0.14059297E+00 0.44829364E+03</pdfrwt>
<pdfrwt beam="2">  1       21 0.77282960E-02 0.44829364E+03</pdfrwt>
<totfact> 0.40936693E+04</totfact>
</mgrwt>
</event>
<event>
 7    0  0.4752811E-002  0.4484102E+03  0.7546771E-02  0.1028197E+00
         21   -1    0    0  502  501  0.00000000000E+00  0.00000000000E+00  0.10327649540E+03  0.10327649540E+03  0.00000000000E+00 0.  1.
         21   -1    0    0  501  502 -0.00000000000E+00 -0.00000000000E+00 -0.48673152469E+03  0.48673152469E+03  0.00000000000E+00 0.  1.
      99926    2    1    2    0    0  0.00000000000E+00 -0.88817841970E-15 -0.38345502930E+03  0.59000802009E+03  0.44841019645E+03 0.  0.
      99925    2    3    3    0    0  0.57105604233E+02  0.73043754897E+01 -0.12443400831E+03  0.29665873792E+03  0.26307447696E+03 0.  0.
         25    1    4    4    0    0  0.45740492341E+02 -0.22720872317E+02 -0.92130529242E+02  0.16353584683E+03  0.12509000000E+03 0.  0.
         25    1    4    4    0    0  0.11365111892E+02  0.30025247807E+02 -0.32303479067E+02  0.13312289110E+03  0.12509000000E+03 0.  0.
         25    1    3    3    0    0 -0.57105604233E+02 -0.73043754897E+01 -0.25902102099E+03  0.29334928217E+03  0.12509000000E+03 0.  0.
<mgrwt>
<rscale>  2 0.44841020E+03</rscale>
<asrwt>0</asrwt>
<pdfrwt beam="1">  1       21 0.15187720E-01 0.44841020E+03</pdfrwt>
<pdfrwt beam="2">  1       21 0.71578166E-01 0.44841020E+03</pdfrwt>
<totfact> 0.62489018E+04</totfact>
</mgrwt>
</event>
<event>
 7    0  0.4752811E-002  0.4700641E+03  0.7546771E-02  0.1021902E+00
         21   -1    0    0  502  501  0.00000000000E+00  0.00000000000E+00  0.21526269527E+02  0.21526269527E+02  0.00000000000E+00 0. -1.
         21   -1    0    0  501  502 -0.00000000000E+00 -0.00000000000E+00 -0.25661696186E+04  0.25661696186E+04  0.00000000000E+00 0. -1.
      99926    2    1    2    0    0  0.00000000000E+00 -0.14210854715E-13 -0.25446433490E+04  0.25876958881E+04  0.47006407590E+03 0.  0.
      99925    2    3    3    0    0 -0.25356655567E+02 -0.86722230014E+02 -0.10912223927E+04  0.11261064486E+04  0.26303178160E+03 0.  0.
         25    1    4    4    0    0 -0.14709537792E+02 -0.79082666011E+02 -0.49977476473E+03  0.52143337267E+03  0.12509000000E+03 0.  0.
         25    1    3    3    0    0  0.25356655567E+02  0.86722230014E+02 -0.14534209563E+04  0.14615894395E+04  0.12509000000E+03 0.  0.
         25    1    4    4    0    0 -0.10647117775E+02 -0.76395640031E+01 -0.59144762799E+03  0.60467307598E+03  0.12509000000E+03 0.  0.
<mgrwt>
<rscale>  2 0.47006408E+03</rscale>
<asrwt>0</asrwt>
<pdfrwt beam="1">  1       21 0.31656296E-02 0.47006408E+03</pdfrwt>
<pdfrwt beam="2">  1       21 0.37737768E+00 0.47006408E+03</pdfrwt>
<totfact> 0.55914093E+03</totfact>
</mgrwt>
</event>
<event>
 7    0  0.4752811E-002  0.4645497E+03  0.7546771E-02  0.1023470E+00
         21   -1    0    0  502  501  0.00000000000E+00  0.00000000000E+00  0.20064306175E+03  0.20064306175E+03  0.00000000000E+00 0. -1.
         21   -1    0    0  501  502 -0.00000000000E+00 -0.00000000000E+00 -0.26889345575E+03  0.26889345575E+03  0.00000000000E+00 0. -1.
      99926    2    1    2    0    0 -0.71054273576E-14  0.00000000000E+00 -0.68250394002E+02  0.46953651750E+03  0.46454970131E+03 0.  0.
      99925    2    3    3    0    0 -0.47757333335E+02  0.11221490119E+03 -0.44955563606E+02  0.29328923622E+03  0.26291562610E+03 0.  0.
         25    1    4    4    0    0 -0.52696255495E+02  0.89449447368E+02 -0.27058904932E+02  0.16479621177E+03  0.12509000000E+03 0.  0.
         25    1    4    4    0    0  0.49389221600E+01  0.22765453824E+02 -0.17896658674E+02  0.12849302445E+03  0.12509000000E+03 0.  0.
         25    1    3    3    0    0  0.47757333335E+02 -0.11221490119E+03 -0.23294830396E+02  0.17624728128E+03  0.12509000000E+03 0.  0.
<mgrwt>
<rscale>  2 0.46454970E+03</rscale>
<asrwt>0</asrwt>
<pdfrwt beam="1">  1       21 0.29506333E-01 0.46454970E+03</pdfrwt>
<pdfrwt beam="2">  1       21 0.39543155E-01 0.46454970E+03</pdfrwt>
<totfact> 0.62586818E+04</totfact>
</mgrwt>
</event>
<event>
 7    0  0.4752811E-002  0.4409429E+03  0.7546771E-02  0.1030458E+00
         21   -1    0    0  502  501  0.00000000000E+00  0.00000000000E+00  0.12795680594E+03  0.12795680594E+03  0.00000000000E+00 0.  1.
         21   -1    0    0  501  502 -0.00000000000E+00 -0.00000000000E+00 -0.37987561441E+03  0.37987561441E+03  0.00000000000E+00 0.  1.
      99926    2    1    2    0    0 -0.35527136788E-14 -0.12767564783E-14 -0.25191880847E+03  0.50783242036E+03  0.44094294541E+03 0.  0.
      99925    2    3    3    0    0 -0.18850429852E+02  0.47950846910E+00 -0.27301995188E+03  0.37958135803E+03  0.26303335265E+03 0.  0.
         25    1    4    4    0    0 -0.33412748396E+02 -0.32503715388E+02 -0.14121909166E+03  0.19432766972E+03  0.12509000000E+03 0.  0.
         25    1    3    3    0    0  0.18850429852E+02 -0.47950846910E+00  0.21101143413E+02  0.12825106232E+03  0.12509000000E+03 0.  0.
         25    1    4    4    0    0  0.14562318544E+02  0.32983223857E+02 -0.13180086023E+03  0.18525368831E+03  0.12509000000E+03 0.  0.
<mgrwt>
<rscale>  2 0.44094295E+03</rscale>
<asrwt>0</asrwt>
<pdfrwt beam="1">  1       21 0.18817177E-01 0.44094295E+03</pdfrwt>
<pdfrwt beam="2">  1       21 0.55864061E-01 0.44094295E+03</pdfrwt>
<totfact> 0.72476701E+04</totfact>
</mgrwt>
</event>
<event>
 7    0  0.4752811E-002  0.4497963E+03  0.7546771E-02  0.1027783E+00
         21   -1    0    0  502  501  0.00000000000E+00  0.00000000000E+00  0.34836382664E+03  0.34836382664E+03  0.00000000000E+00 0.  1.
         21   -1    0    0  501  502 -0.00000000000E+00 -0.00000000000E+00 -0.14519064517E+03  0.14519064517E+03  0.00000000000E+00 0.  1.
      99926    2    1    2    0    0  0.00000000000E+00  0.00000000000E+00  0.20317318148E+03  0.49355447181E+03  0.44979625940E+03 0.  0.
      99925    2    3    3    0    0  0.73006536109E+02  0.65805728253E+02  0.78766666949E+02  0.29160191020E+03  0.26299646009E+03 0.  0.
         25    1    3    3    0    0 -0.73006536109E+02 -0.65805728253E+02  0.12440651453E+03  0.20195256162E+03  0.12509000000E+03 0.  0.
         25    1    4    4    0    0  0.77720687576E+02  0.27706257085E+02  0.38995326450E+02  0.15484277685E+03  0.12509000000E+03 0.  0.
         25    1    4    4    0    0 -0.47141514671E+01  0.38099471168E+02  0.39771340499E+02  0.13675913334E+03  0.12509000000E+03 0.  0.
<mgrwt>
<rscale>  2 0.44979626E+03</rscale>
<asrwt>0</asrwt>
<pdfrwt beam="1">  1       21 0.51229975E-01 0.44979626E+03</pdfrwt>
<pdfrwt beam="2">  1       21 0.21351565E-01 0.44979626E+03</pdfrwt>
<totfact> 0.68512668E+04</totfact>
</mgrwt>
</event>
<event>
 7    0  0.4752811E-002  0.4570358E+03  0.7546771E-02  0.1025644E+00
         21   -1    0    0  502  501  0.00000000000E+00  0.00000000000E+00  0.11541159181E+04  0.11541159181E+04  0.00000000000E+00 0.  1.
         21   -1    0    0  501  502 -0.00000000000E+00 -0.00000000000E+00 -0.45247118509E+02  0.45247118509E+02  0.00000000000E+00 0.  1.
      99926    2    1    2    0    0 -0.14210854715E-13  0.00000000000E+00  0.11088687996E+04  0.11993630366E+04  0.45703575229E+03 0.  0.
      99925    2    3    3    0    0  0.80211935765E+02  0.19373364277E+02  0.48550357992E+03  0.55823825384E+03  0.26288198884E+03 0.  0.
         25    1    4    4    0    0  0.78575376861E+02  0.22789518199E+02  0.28672066018E+03  0.32334145584E+03  0.12509000000E+03 0.  0.
         25    1    3    3    0    0 -0.80211935765E+02 -0.19373364277E+02  0.62336521965E+03  0.64112478274E+03  0.12509000000E+03 0.  0.
         25    1    4    4    0    0  0.16365589039E+01 -0.34161539229E+01  0.19878291974E+03  0.23489679800E+03  0.12509000000E+03 0.  0.
<mgrwt>
<rscale>  2 0.45703575E+03</rscale>
<asrwt>0</asrwt>
<pdfrwt beam="1">  1       21 0.16972291E+00 0.45703575E+03</pdfrwt>
<pdfrwt beam="2">  1       21 0.66539888E-02 0.45703575E+03</pdfrwt>
<totfact> 0.31670901E+04</totfact>
</mgrwt>
</event>
<event>
 7    0  0.4752811E-002  0.4581723E+03  0.7546771E-02  0.1025313E+00
         21   -1    0    0  502  501  0.00000000000E+00  0.00000000000E+00  0.29027713268E+03  0.29027713268E+03  0.00000000000E+00 0.  1.
         21   -1    0    0  501  502 -0.00000000000E+00 -0.00000000000E+00 -0.18079431145E+03  0.18079431145E+03  0.00000000000E+00 0.  1.
      99926    2    1    2    0    0  0.35527136788E-14  0.00000000000E+00  0.10948282123E+03  0.47107144414E+03  0.45817225727E+03 0.  0.
      99925    2    3    3    0    0  0.27584137345E+02  0.82021341085E+02 -0.10856935773E+02  0.27711900089E+03  0.26303741668E+03 0.  0.
         25    1    4    4    0    0  0.46883701720E+02  0.62769444852E+02 -0.19089343539E+02  0.14882874665E+03  0.12509000000E+03 0.  0.
         25    1    3    3    0    0 -0.27584137345E+02 -0.82021341085E+02  0.12033975700E+03  0.19395244325E+03  0.12509000000E+03 0.  0.
         25    1    4    4    0    0 -0.19299564375E+02  0.19251896233E+02  0.82324077658E+01  0.12829025423E+03  0.12509000000E+03 0.  0.
<mgrwt>
<rscale>  2 0.45817226E+03</rscale>
<asrwt>0</asrwt>
<pdfrwt beam="1">  1       21 0.42687814E-01 0.45817226E+03</pdfrwt>
<pdfrwt beam="2">  1       21 0.26587399E-01 0.45817226E+03</pdfrwt>
<totfact> 0.65687582E+04</totfact>
</mgrwt>
</event>
<event>
 7    0  0.4752811E-002  0.4463053E+03  0.7546771E-02  0.1028830E+00
         21   -1    0    0  502  501  0.00000000000E+00  0.00000000000E+00  0.59825211438E+02  0.59825211438E+02  0.00000000000E+00 0. -1.
         21   -1    0    0  501  502 -0.00000000000E+00 -0.00000000000E+00 -0.83237655809E+03  0.83237655809E+03  0.00000000000E+00 0. -1.
      99926    2    1    2    0    0  0.14210854715E-13  0.00000000000E+00 -0.77255134665E+03  0.89220176953E+03  0.44630529275E+03 0.  0.
      99925    2    3    3    0    0  0.70386512450E+02 -0.35402219748E+02 -0.62781012279E+03  0.68530781533E+03  0.26323691454E+03 0.  0.
         25    1    4    4    0    0  0.70118974840E+02 -0.13098501395E+00 -0.29461029258E+03  0.32765747418E+03  0.12509000000E+03 0.  0.
         25    1    4    4    0    0  0.26753761049E+00 -0.35271234734E+02 -0.33319983021E+03  0.35765034115E+03  0.12509000000E+03 0.  0.
         25    1    3    3    0    0 -0.70386512450E+02  0.35402219748E+02 -0.14474122386E+03  0.20689395419E+03  0.12509000000E+03 0.  0.
<mgrwt>
<rscale>  2 0.44630529E+03</rscale>
<asrwt>0</asrwt>
<pdfrwt beam="1">  1       21 0.87978256E-02 0.44630529E+03</pdfrwt>
<pdfrwt beam="2">  1       21 0.12240831E+00 0.44630529E+03</pdfrwt>
<totfact> 0.46669169E+04</totfact>
</mgrwt>
</event>
<event>
 7    0  0.4752811E-002  0.4505325E+03  0.7546771E-02  0.1027563E+00
         21   -1    0    0  502  501  0.00000000000E+00  0.00000000000E+00  0.20430195029E+02  0.20430195029E+02  0.00000000000E+00 0.  1.
         21   -1    0    0  501  502 -0.00000000000E+00 -0.00000000000E+00 -0.24838176580E+04  0.24838176580E+04  0.00000000000E+00 0.  1.
      99926    2    1    2    0    0  0.00000000000E+00  0.00000000000E+00 -0.24633874630E+04  0.25042478531E+04  0.45053248128E+03 0.  0.
      99925    2    3    3    0    0 -0.94380876472E+02 -0.48927375535E+02 -0.16883527093E+04  0.17120180787E+04  0.26300074657E+03 0.  0.
         25    1    3    3    0    0  0.94380876472E+02  0.48927375535E+02 -0.77503475370E+03  0.79222977441E+03  0.12509000000E+03 0.  0.
         25    1    4    4    0    0 -0.77518375239E+02 -0.55315929873E+01 -0.10074774875E+04  0.10181837225E+04  0.12509000000E+03 0.  0.
         25    1    4    4    0    0 -0.16862501233E+02 -0.43395782547E+02 -0.68087522186E+03  0.69383435612E+03  0.12509000000E+03 0.  0.
<mgrwt>
<rscale>  2 0.45053248E+03</rscale>
<asrwt>0</asrwt>
<pdfrwt beam="1">  1       21 0.30044398E-02 0.45053248E+03</pdfrwt>
<pdfrwt beam="2">  1       21 0.36526739E+00 0.45053248E+03</pdfrwt>
<totfact> 0.73400515E+03</totfact>
</mgrwt>
</event>
<event>
 7    0  0.4752811E-002  0.4473138E+03  0.7546771E-02  0.1028526E+00
         21   -1    0    0  502  501  0.00000000000E+00  0.00000000000E+00  0.40170083279E+03  0.40170083279E+03  0.00000000000E+00 0. -1.
         21   -1    0    0  501  502 -0.00000000000E+00 -0.00000000000E+00 -0.12452650649E+03  0.12452650649E+03  0.00000000000E+00 0. -1.
      99926    2    1    2    0    0  0.99920072216E-15 -0.14210854715E-13  0.27717432630E+03  0.52622733928E+03  0.44731376621E+03 0.  0.
      99925    2    3    3    0    0 -0.54302324743E+00  0.98141175374E+02  0.13014830412E+03  0.30967216276E+03  0.26329884570E+03 0.  0.
         25    1    3    3    0    0  0.54302324743E+00 -0.98141175374E+02  0.14702602218E+03  0.21655517652E+03  0.12509000000E+03 0.  0.
         25    1    4    4    0    0 -0.13149526735E+02  0.24944101042E+02  0.96149713258E+02  0.16027287259E+03  0.12509000000E+03 0.  0.
         25    1    4    4    0    0  0.12606503487E+02  0.73197074332E+02  0.33998590860E+02  0.14939929016E+03  0.12509000000E+03 0.  0.
<mgrwt>
<rscale>  2 0.44731377E+03</rscale>
<asrwt>0</asrwt>
<pdfrwt beam="1">  1       21 0.59073652E-01 0.44731377E+03</pdfrwt>
<pdfrwt beam="2">  1       21 0.18312722E-01 0.44731377E+03</pdfrwt>
<totfact> 0.67478493E+04</totfact>
</mgrwt>
</event>
<event>
 7    0  0.4752811E-002  0.4526387E+03  0.7546771E-02  0.1026938E+00
         21   -1    0    0  502  501  0.00000000000E+00  0.00000000000E+00  0.33234916330E+03  0.33234916330E+03  0.00000000000E+00 0.  1.
         21   -1    0    0  501  502 -0.00000000000E+00 -0.00000000000E+00 -0.15411640348E+03  0.15411640348E+03  0.00000000000E+00 0.  1.
      99926    2    1    2    0    0  0.00000000000E+00  0.00000000000E+00  0.17823275982E+03  0.48646556677E+03  0.45263874224E+03 0.  0.
      99925    2    3    3    0    0 -0.10400740204E+03 -0.33056238893E+02  0.13393398506E+03  0.31465129451E+03  0.26297693848E+03 0.  0.
         25    1    4    4    0    0 -0.62920983372E+02 -0.24618138092E+02  0.11181878424E+03  0.18087579020E+03  0.12509000000E+03 0.  0.
         25    1    3    3    0    0  0.10400740204E+03  0.33056238893E+02  0.44298774758E+02  0.17181427227E+03  0.12509000000E+03 0.  0.
         25    1    4    4    0    0 -0.41086418668E+02 -0.84381008017E+01  0.22115200819E+02  0.13377550430E+03  0.12509000000E+03 0.  0.
<mgrwt>
<rscale>  2 0.45263874E+03</rscale>
<asrwt>0</asrwt>
<pdfrwt beam="1">  1       21 0.48874877E-01 0.45263874E+03</pdfrwt>
<pdfrwt beam="2">  1       21 0.22664177E-01 0.45263874E+03</pdfrwt>
<totfact> 0.67488619E+04</totfact>
</mgrwt>
</event>
<event>
 7    0  0.4752811E-002  0.4610192E+03  0.7546771E-02  0.1024486E+00
         21   -1    0    0  502  501  0.00000000000E+00  0.00000000000E+00  0.14582040122E+03  0.14582040122E+03  0.00000000000E+00 0. -1.
         21   -1    0    0  501  502 -0.00000000000E+00 -0.00000000000E+00 -0.36438443156E+03  0.36438443156E+03  0.00000000000E+00 0. -1.
      99926    2    1    2    0    0 -0.14210854715E-13 -0.35527136788E-14 -0.21856403034E+03  0.51020483278E+03  0.46101923608E+03 0.  0.
      99925    2    3    3    0    0  0.11339709656E+03 -0.15398789220E+02 -0.10217645486E+03  0.30456047948E+03  0.26309890444E+03 0.  0.
         25    1    4    4    0    0  0.88533327920E+02 -0.35185122913E+02 -0.65963999503E+02  0.17051363687E+03  0.12509000000E+03 0.  0.
         25    1    4    4    0    0  0.24863768639E+02  0.19786333693E+02 -0.36212455357E+02  0.13404684261E+03  0.12509000000E+03 0.  0.
         25    1    3    3    0    0 -0.11339709656E+03  0.15398789220E+02 -0.11638757548E+03  0.20564435330E+03  0.12509000000E+03 0.  0.
<mgrwt>
<rscale>  2 0.46101924E+03</rscale>
<asrwt>0</asrwt>
<pdfrwt beam="1">  1       21 0.21444177E-01 0.46101924E+03</pdfrwt>
<pdfrwt beam="2">  1       21 0.53585945E-01 0.46101924E+03</pdfrwt>
<totfact> 0.61565286E+04</totfact>
</mgrwt>
</event>
<event>
 7    0  0.4752811E-002  0.4534992E+03  0.7546771E-02  0.1026684E+00
         21   -1    0    0  502  501  0.00000000000E+00  0.00000000000E+00  0.33167617012E+03  0.33167617012E+03  0.00000000000E+00 0. -1.
         21   -1    0    0  501  502 -0.00000000000E+00 -0.00000000000E+00 -0.15501677903E+03  0.15501677903E+03  0.00000000000E+00 0. -1.
      99926    2    1    2    0    0  0.00000000000E+00  0.00000000000E+00  0.17665939108E+03  0.48669294915E+03  0.45349915798E+03 0.  0.
      99925    2    3    3    0    0 -0.49318199265E+02  0.96627676377E+02  0.13715217853E+03  0.31646510018E+03  0.26376172379E+03 0.  0.
         25    1    4    4    0    0 -0.31024499481E+02  0.50752668664E+02  0.23720933675E+02  0.14052951199E+03  0.12509000000E+03 0.  0.
         25    1    3    3    0    0  0.49318199265E+02 -0.96627676377E+02  0.39507212557E+02  0.17022784897E+03  0.12509000000E+03 0.  0.
         25    1    4    4    0    0 -0.18293699784E+02  0.45875007713E+02  0.11343124485E+03  0.17593558819E+03  0.12509000000E+03 0.  0.
<mgrwt>
<rscale>  2 0.45349916E+03</rscale>
<asrwt>0</asrwt>
<pdfrwt beam="1">  1       21 0.48775907E-01 0.45349916E+03</pdfrwt>
<pdfrwt beam="2">  1       21 0.22796585E-01 0.45349916E+03</pdfrwt>
<totfact> 0.67010892E+04</totfact>
</mgrwt>
</event>
<event>
 7    0  0.4752811E-002  0.4570337E+03  0.7546771E-02  0.1025645E+00
         21   -1    0    0  502  501  0.00000000000E+00  0.00000000000E+00  0.57526483745E+03  0.57526483745E+03  0.00000000000E+00 0. -1.
         21   -1    0    0  501  502 -0.00000000000E+00 -0.00000000000E+00 -0.90775490696E+02  0.90775490696E+02  0.00000000000E+00 0. -1.
      99926    2    1    2    0    0  0.00000000000E+00  0.00000000000E+00  0.48448934675E+03  0.66604032814E+03  0.45703368760E+03 0.  0.
      99925    2    3    3    0    0 -0.86215004625E+02 -0.14477326154E+02  0.41338013521E+03  0.49767569985E+03  0.26297404061E+03 0.  0.
         25    1    4    4    0    0 -0.29846063743E+02  0.30535746005E+02  0.18196147632E+03  0.22490154795E+03  0.12509000000E+03 0.  0.
         25    1    4    4    0    0 -0.56368940881E+02 -0.45013072159E+02  0.23141865889E+03  0.27277415190E+03  0.12509000000E+03 0.  0.
         25    1    3    3    0    0  0.86215004625E+02  0.14477326154E+02  0.71109211538E+02  0.16836462829E+03  0.12509000000E+03 0.  0.
<mgrwt>
<rscale>  2 0.45703369E+03</rscale>
<asrwt>0</asrwt>
<pdfrwt beam="1">  1       21 0.84597769E-01 0.45703369E+03</pdfrwt>
<pdfrwt beam="2">  1       21 0.13349337E-01 0.45703369E+03</pdfrwt>
<totfact> 0.53915980E+04</totfact>
</mgrwt>
</event>
<event>
 7    0  0.4752811E-002  0.4446171E+03  0.7546771E-02  0.1029340E+00
         21   -1    0    0  502  501  0.00000000000E+00  0.00000000000E+00  0.17653475228E+03  0.17653475228E+03  0.00000000000E+00 0.  1.
         21   -1    0    0  501  502 -0.00000000000E+00 -0.00000000000E+00 -0.27995109460E+03  0.27995109460E+03  0.00000000000E+00 0.  1.
      99926    2    1    2    0    0  0.71054273576E-14  0.00000000000E+00 -0.10341634232E+03  0.45648584688E+03  0.44461712579E+03 0.  0.
      99925    2    3    3    0    0  0.45468862029E+02 -0.92713552031E+02 -0.69266723034E+02  0.29072419649E+03  0.26279166531E+03 0.  0.
         25    1    3    3    0    0 -0.45468862029E+02  0.92713552031E+02 -0.34149619288E+02  0.16576165040E+03  0.12509000000E+03 0.  0.
         25    1    4    4    0    0  0.50854486289E+01 -0.61390581986E+02 -0.69051338820E+02  0.15559646795E+03  0.12509000000E+03 0.  0.
         25    1    4    4    0    0  0.40383413400E+02 -0.31322970046E+02 -0.21538421378E+00  0.13512772854E+03  0.12509000000E+03 0.  0.
<mgrwt>
<rscale>  2 0.44461713E+03</rscale>
<asrwt>0</asrwt>
<pdfrwt beam="1">  1       21 0.25960993E-01 0.44461713E+03</pdfrwt>
<pdfrwt beam="2">  1       21 0.41169278E-01 0.44461713E+03</pdfrwt>
<totfact> 0.74395066E+04</totfact>
</mgrwt>
</event>
<event>
 7    0  0.4752811E-002  0.4330504E+03  0.7546771E-02  0.1032901E+00
         21   -1    0    0  502  501  0.00000000000E+00  0.00000000000E+00  0.37227758996E+03  0.37227758996E+03  0.00000000000E+00 0.  1.
         21   -1    0    0  501  502 -0.00000000000E+00 -0.00000000000E+00 -0.12593603860E+03  0.12593603860E+03  0.00000000000E+00 0.  1.
      99926    2    1    2    0    0  0.00000000000E+00  0.00000000000E+00  0.24634155136E+03  0.49821362857E+03  0.43305041249E+03 0.  0.
      99925    2    3    3    0    0  0.45737521111E+02 -0.47148574314E+01  0.67790647918E+02  0.27540859285E+03  0.26294518507E+03 0.  0.
         25    1    3    3    0    0 -0.45737521111E+02  0.47148574314E+01  0.17855090345E+03  0.22280503571E+03  0.12509000000E+03 0.  0.
         25    1    4    4    0    0 -0.93777588752E+01  0.10871590410E+02  0.54461300246E+02  0.13718482119E+03  0.12509000000E+03 0.  0.
         25    1    4    4    0    0  0.55115279986E+02 -0.15586447842E+02  0.13329347672E+02  0.13822377167E+03  0.12509000000E+03 0.  0.
<mgrwt>
<rscale>  2 0.43305041E+03</rscale>
<asrwt>0</asrwt>
<pdfrwt beam="1">  1       21 0.54746704E-01 0.43305041E+03</pdfrwt>
<pdfrwt beam="2">  1       21 0.18520006E-01 0.43305041E+03</pdfrwt>
<totfact> 0.78145736E+04</totfact>
</mgrwt>
</event>
<event>
 7    0  0.4752811E-002  0.4510350E+03  0.7546771E-02  0.1027414E+00
         21   -1    0    0  502  501  0.00000000000E+00  0.00000000000E+00  0.20889741993E+02  0.20889741993E+02  0.00000000000E+00 0.  1.
         21   -1    0    0  501  502 -0.00000000000E+00 -0.00000000000E+00 -0.24345989830E+04  0.24345989830E+04  0.00000000000E+00 0.  1.
      99926    2    1    2    0    0  0.53290705182E-14  0.00000000000E+00 -0.24137092410E+04  0.24554887250E+04  0.45103500801E+03 0.  0.
      99925    2    3    3    0    0  0.13519101605E+02 -0.10679224078E+03 -0.16290287698E+04  0.16536419199E+04  0.26307701858E+03 0.  0.
         25    1    3    3    0    0 -0.13519101605E+02  0.10679224078E+03 -0.78468047119E+03  0.80184680505E+03  0.12509000000E+03 0.  0.
         25    1    4    4    0    0 -0.23085290876E+02 -0.72247934525E+02 -0.96911746445E+03  0.98009635379E+03  0.12509000000E+03 0.  0.
         25    1    4    4    0    0  0.36604392481E+02 -0.34544306259E+02 -0.65991130534E+03  0.67354556614E+03  0.12509000000E+03 0.  0.
<mgrwt>
<rscale>  2 0.45103501E+03</rscale>
<asrwt>0</asrwt>
<pdfrwt beam="1">  1       21 0.30720230E-02 0.45103501E+03</pdfrwt>
<pdfrwt beam="2">  1       21 0.35802902E+00 0.45103501E+03</pdfrwt>
<totfact> 0.78368722E+03</totfact>
</mgrwt>
</event>
<event>
 7    0  0.4752811E-002  0.4556631E+03  0.7546771E-02  0.1026047E+00
         21   -1    0    0  502  501  0.00000000000E+00  0.00000000000E+00  0.45423564499E+02  0.45423564499E+02  0.00000000000E+00 0. -1.
         21   -1    0    0  501  502 -0.00000000000E+00 -0.00000000000E+00 -0.11427373907E+04  0.11427373907E+04  0.00000000000E+00 0. -1.
      99926    2    1    2    0    0  0.35527136788E-14  0.00000000000E+00 -0.10973138262E+04  0.11881609552E+04  0.45566305785E+03 0.  0.
      99925    2    3    3    0    0  0.25865734990E+02  0.10954593071E+03 -0.64768492349E+03  0.70807449900E+03  0.26306727054E+03 0.  0.
         25    1    4    4    0    0  0.33492993982E+02  0.46945736735E+02 -0.23658919866E+03  0.27376566598E+03  0.12509000000E+03 0.  0.
         25    1    4    4    0    0 -0.76272589922E+01  0.62600193970E+02 -0.41109572483E+03  0.43430883302E+03  0.12509000000E+03 0.  0.
         25    1    3    3    0    0 -0.25865734990E+02 -0.10954593071E+03 -0.44962890272E+03  0.48008645622E+03  0.12509000000E+03 0.  0.
<mgrwt>
<rscale>  2 0.45566306E+03</rscale>
<asrwt>0</asrwt>
<pdfrwt beam="1">  1       21 0.66799355E-02 0.45566306E+03</pdfrwt>
<pdfrwt beam="2">  1       21 0.16804963E+00 0.45566306E+03</pdfrwt>
<totfact> 0.32365923E+04</totfact>
</mgrwt>
</event>
<event>
 7    0  0.4752811E-002  0.4575765E+03  0.7546771E-02  0.1025486E+00
         21   -1    0    0  502  501  0.00000000000E+00  0.00000000000E+00  0.83742984337E+02  0.83742984337E+02  0.00000000000E+00 0.  1.
         21   -1    0    0  501  502 -0.00000000000E+00 -0.00000000000E+00 -0.62505605641E+03  0.62505605641E+03  0.00000000000E+00 0.  1.
      99926    2    1    2    0    0  0.00000000000E+00  0.00000000000E+00 -0.54131307207E+03  0.70879904075E+03  0.45757648341E+03 0.  0.
      99925    2    3    3    0    0  0.90865371773E+02  0.48044863568E+02 -0.25883694822E+03  0.38321480687E+03  0.26323411203E+03 0.  0.
         25    1    4    4    0    0  0.57558616729E+02  0.37294684708E+02 -0.18561936683E+03  0.23410669642E+03  0.12509000000E+03 0.  0.
         25    1    4    4    0    0  0.33306755045E+02  0.10750178860E+02 -0.73217581393E+02  0.14910811045E+03  0.12509000000E+03 0.  0.
         25    1    3    3    0    0 -0.90865371773E+02 -0.48044863568E+02 -0.28247612385E+03  0.32558423388E+03  0.12509000000E+03 0.  0.
<mgrwt>
<rscale>  2 0.45757648E+03</rscale>
<asrwt>0</asrwt>
<pdfrwt beam="1">  1       21 0.12315145E-01 0.45757648E+03</pdfrwt>
<pdfrwt beam="2">  1       21 0.91920008E-01 0.45757648E+03</pdfrwt>
<totfact> 0.51378360E+04</totfact>
</mgrwt>
</event>
<event>
 7    0  0.4752811E-002  0.4690275E+03  0.7546771E-02  0.1022195E+00
         21   -1    0    0  502  501  0.00000000000E+00  0.00000000000E+00  0.21444207141E+04  0.21444207141E+04  0.00000000000E+00 0.  1.
         21   -1    0    0  501  502 -0.00000000000E+00 -0.00000000000E+00 -0.25646410766E+02  0.25646410766E+02  0.00000000000E+00 0.  1.
      99926    2    1    2    0    0  0.00000000000E+00  0.00000000000E+00  0.21187743034E+04  0.21700671249E+04  0.46902748103E+03 0.  0.
      99925    2    3    3    0    0  0.96560036177E+01  0.89746120336E+01  0.73816733156E+03  0.78374216272E+03  0.26303419202E+03 0.  0.
         25    1    4    4    0    0  0.10942345307E+02 -0.32658536137E+02  0.41160120909E+03  0.43156619229E+03  0.12509000000E+03 0.  0.
         25    1    4    4    0    0 -0.12863416893E+01  0.41633148170E+02  0.32656612247E+03  0.35217597042E+03  0.12509000000E+03 0.  0.
         25    1    3    3    0    0 -0.96560036177E+01 -0.89746120336E+01  0.13806069718E+04  0.13863249622E+04  0.12509000000E+03 0.  0.
<mgrwt>
<rscale>  2 0.46902748E+03</rscale>
<asrwt>0</asrwt>
<pdfrwt beam="1">  1       21 0.31535587E+00 0.46902748E+03</pdfrwt>
<pdfrwt beam="2">  1       21 0.37715324E-02 0.46902748E+03</pdfrwt>
<totfact> 0.99929712E+03</totfact>
</mgrwt>
</event>
<event>
 7    0  0.4752811E-002  0.4537159E+03  0.7546771E-02  0.1026620E+00
         21   -1    0    0  502  501  0.00000000000E+00  0.00000000000E+00  0.21229381250E+03  0.21229381250E+03  0.00000000000E+00 0. -1.
         21   -1    0    0  501  502 -0.00000000000E+00 -0.00000000000E+00 -0.24242126412E+03  0.24242126412E+03  0.00000000000E+00 0. -1.
      99926    2    1    2    0    0  0.00000000000E+00  0.00000000000E+00 -0.30127451615E+02  0.45471507662E+03  0.45371592166E+03 0.  0.
      99925    2    3    3    0    0  0.18600006357E+02 -0.57686077543E+02  0.75291738853E+02  0.28026061953E+03  0.26306562897E+03 0.  0.
         25    1    3    3    0    0 -0.18600006357E+02  0.57686077543E+02 -0.10541919047E+03  0.17445445709E+03  0.12509000000E+03 0.  0.
         25    1    4    4    0    0 -0.38363871103E+01  0.56598444875E+01  0.15669960143E+02  0.12625295029E+03  0.12509000000E+03 0.  0.
         25    1    4    4    0    0  0.22436393468E+02 -0.63345922031E+02  0.59621778710E+02  0.15400766925E+03  0.12509000000E+03 0.  0.
<mgrwt>
<rscale>  2 0.45371592E+03</rscale>
<asrwt>0</asrwt>
<pdfrwt beam="1">  1       21 0.31219678E-01 0.45371592E+03</pdfrwt>
<pdfrwt beam="2">  1       21 0.35650186E-01 0.45371592E+03</pdfrwt>
<totfact> 0.69273727E+04</totfact>
</mgrwt>
</event>
<event>
 7    0  0.4752811E-002  0.4500868E+03  0.7546771E-02  0.1027696E+00
         21   -1    0    0  502  501  0.00000000000E+00  0.00000000000E+00  0.32181593911E+03  0.32181593911E+03  0.00000000000E+00 0. -1.
         21   -1    0    0  501  502 -0.00000000000E+00 -0.00000000000E+00 -0.15737113643E+03  0.15737113643E+03  0.00000000000E+00 0. -1.
      99926    2    1    2    0    0  0.00000000000E+00  0.00000000000E+00  0.16444480268E+03  0.47918707553E+03  0.45008683632E+03 0.  0.
      99925    2    3    3    0    0 -0.86146252116E+02 -0.50422095507E+02  0.14810930624E+03  0.31832091684E+03  0.26349245726E+03 0.  0.
         25    1    4    4    0    0 -0.77766588691E+02 -0.24262394206E+02  0.10753391284E+03  0.18397651100E+03  0.12509000000E+03 0.  0.
         25    1    4    4    0    0 -0.83796634256E+01 -0.26159701302E+02  0.40575393400E+02  0.13434440584E+03  0.12509000000E+03 0.  0.
         25    1    3    3    0    0  0.86146252116E+02  0.50422095507E+02  0.16335496444E+02  0.16086615869E+03  0.12509000000E+03 0.  0.
<mgrwt>
<rscale>  2 0.45008684E+03</rscale>
<asrwt>0</asrwt>
<pdfrwt beam="1">  1       21 0.47325873E-01 0.45008684E+03</pdfrwt>
<pdfrwt beam="2">  1       21 0.23142814E-01 0.45008684E+03</pdfrwt>
<totfact> 0.69427757E+04</totfact>
</mgrwt>
</event>
<event>
 7    0  0.4752811E-002  0.4531938E+03  0.7546771E-02  0.1026774E+00
         21   -1    0    0  502  501  0.00000000000E+00  0.00000000000E+00  0.19484687238E+03  0.19484687238E+03  0.00000000000E+00 0. -1.
         21   -1    0    0  501  502 -0.00000000000E+00 -0.00000000000E+00 -0.26352054328E+03  0.26352054328E+03  0.00000000000E+00 0. -1.
      99926    2    1    2    0    0  0.00000000000E+00  0.14210854715E-13 -0.68673670899E+02  0.45836741565E+03  0.45319379371E+03 0.  0.
      99925    2    3    3    0    0  0.53815091606E+02 -0.96346392035E+02 -0.26764851140E+02  0.28637163484E+03  0.26289477866E+03 0.  0.
         25    1    4    4    0    0  0.19317875519E+02 -0.31350642832E+02  0.24065803542E+02  0.13259982700E+03  0.12509000000E+03 0.  0.
         25    1    3    3    0    0 -0.53815091606E+02  0.96346392035E+02 -0.41908819759E+02  0.17199578081E+03  0.12509000000E+03 0.  0.
         25    1    4    4    0    0  0.34497216087E+02 -0.64995749203E+02 -0.50830654683E+02  0.15377180784E+03  0.12509000000E+03 0.  0.
<mgrwt>
<rscale>  2 0.45319379E+03</rscale>
<asrwt>0</asrwt>
<pdfrwt beam="1">  1       21 0.28653952E-01 0.45319379E+03</pdfrwt>
<pdfrwt beam="2">  1       21 0.38753021E-01 0.45319379E+03</pdfrwt>
<totfact> 0.69292418E+04</totfact>
</mgrwt>
</event>
<event>
 7    0  0.4752811E-002  0.4519764E+03  0.7546771E-02  0.1027134E+00
         21   -1    0    0  502  501  0.00000000000E+00  0.00000000000E+00  0.28749261084E+03  0.28749261084E+03  0.00000000000E+00 0. -1.
         21   -1    0    0  501  502 -0.00000000000E+00 -0.00000000000E+00 -0.17764170257E+03  0.17764170257E+03  0.00000000000E+00 0. -1.
      99926    2    1    2    0    0  0.00000000000E+00  0.35527136788E-14  0.10985090827E+03  0.46513431340E+03  0.45197644569E+03 0.  0.
      99925    2    3    3    0    0  0.73874758479E+02 -0.23764152881E+02  0.15001010272E+03  0.31254832485E+03  0.26298518884E+03 0.  0.
         25    1    3    3    0    0 -0.73874758479E+02  0.23764152881E+02 -0.40159194448E+02  0.15258598855E+03  0.12509000000E+03 0.  0.
         25    1    4    4    0    0  0.51950967460E+02  0.25516855837E+02  0.80459182001E+02  0.15959699565E+03  0.12509000000E+03 0.  0.
         25    1    4    4    0    0  0.21923791019E+02 -0.49281008718E+02  0.69550920718E+02  0.15295132921E+03  0.12509000000E+03 0.  0.
<mgrwt>
<rscale>  2 0.45197645E+03</rscale>
<asrwt>0</asrwt>
<pdfrwt beam="1">  1       21 0.42278325E-01 0.45197645E+03</pdfrwt>
<pdfrwt beam="2">  1       21 0.26123780E-01 0.45197645E+03</pdfrwt>
<totfact> 0.69450252E+04</totfact>
</mgrwt>
</event>
<event>
 7    0  0.4752811E-002  0.4272962E+03  0.7546771E-02  0.1034717E+00
         21   -1    0    0  502  501  0.00000000000E+00  0.00000000000E+00  0.43710917705E+03  0.43710917705E+03  0.00000000000E+00 0.  1.
         21   -1    0    0  501  502 -0.00000000000E+00 -0.00000000000E+00 -0.10442589394E+03  0.10442589394E+03  0.00000000000E+00 0.  1.
      99926    2    1    2    0    0  0.00000000000E+00  0.00000000000E+00  0.33268328311E+03  0.54153507100E+03  0.42729622776E+03 0.  0.
      99925    2    3    3    0    0 -0.45890990622E+02  0.12990999785E+02  0.12632125316E+03  0.29555225737E+03  0.26290555099E+03 0.  0.
         25    1    4    4    0    0 -0.18705570373E+02 -0.33547738604E+02  0.57197545936E+02  0.14280902104E+03  0.12509000000E+03 0.  0.
         25    1    4    4    0    0 -0.27185420250E+02  0.46538738389E+02  0.69123707224E+02  0.15274323633E+03  0.12509000000E+03 0.  0.
         25    1    3    3    0    0  0.45890990622E+02 -0.12990999785E+02  0.20636202995E+03  0.24598281363E+03  0.12509000000E+03 0.  0.
<mgrwt>
<rscale>  2 0.42729623E+03</rscale>
<asrwt>0</asrwt>
<pdfrwt beam="1">  1       21 0.64280761E-01 0.42729623E+03</pdfrwt>
<pdfrwt beam="2">  1       21 0.15356749E-01 0.42729623E+03</pdfrwt>
<totfact> 0.78218083E+04</totfact>
</mgrwt>
</event>
<event>
 7    0  0.4752811E-002  0.4600817E+03  0.7546771E-02  0.1024758E+00
         21   -1    0    0  502  501  0.00000000000E+00  0.00000000000E+00  0.41248690846E+03  0.41248690846E+03  0.00000000000E+00 0.  1.
         21   -1    0    0  501  502 -0.00000000000E+00 -0.00000000000E+00 -0.12829208149E+03  0.12829208149E+03  0.00000000000E+00 0.  1.
      99926    2    1    2    0    0 -0.14210854715E-13  0.71054273576E-14  0.28419482697E+03  0.54077898995E+03  0.46008174958E+03 0.  0.
      99925    2    3    3    0    0  0.10274734018E+03 -0.39826727876E+02  0.22700581668E+03  0.36453689746E+03  0.26308235333E+03 0.  0.
         25    1    4    4    0    0  0.41721639502E+02  0.20607693502E+02  0.10875725757E+03  0.17216568011E+03  0.12509000000E+03 0.  0.
         25    1    4    4    0    0  0.61025700683E+02 -0.60434421378E+02  0.11824855911E+03  0.19237121734E+03  0.12509000000E+03 0.  0.
         25    1    3    3    0    0 -0.10274734018E+03  0.39826727876E+02  0.57189010293E+02  0.17624209249E+03  0.12509000000E+03 0.  0.
<mgrwt>
<rscale>  2 0.46008175E+03</rscale>
<asrwt>0</asrwt>
<pdfrwt beam="1">  1       21 0.60659839E-01 0.46008175E+03</pdfrwt>
<pdfrwt beam="2">  1       21 0.18866483E-01 0.46008175E+03</pdfrwt>
<totfact> 0.60028542E+04</totfact>
</mgrwt>
</event>
<event>
 7    0  0.4752811E-002  0.4499132E+03  0.7546771E-02  0.1027748E+00
         21   -1    0    0  502  501  0.00000000000E+00  0.00000000000E+00  0.28291161045E+02  0.28291161045E+02  0.00000000000E+00 0.  1.
         21   -1    0    0  501  502 -0.00000000000E+00 -0.00000000000E+00 -0.17887377365E+04  0.17887377365E+04  0.00000000000E+00 0.  1.
      99926    2    1    2    0    0  0.00000000000E+00  0.00000000000E+00 -0.17604465754E+04  0.18170288975E+04  0.44991317994E+03 0.  0.
      99925    2    3    3    0    0  0.15287521060E+02 -0.10727012203E+03 -0.11215757090E+04  0.11570712630E+04  0.26294723634E+03 0.  0.
         25    1    3    3    0    0 -0.15287521060E+02  0.10727012203E+03 -0.63887086639E+03  0.65995763456E+03  0.12509000000E+03 0.  0.
         25    1    4    4    0    0 -0.10756597206E+02 -0.76321894704E+02 -0.47259016190E+03  0.49490373328E+03  0.12509000000E+03 0.  0.
         25    1    4    4    0    0  0.26044118266E+02 -0.30948227327E+02 -0.64898554715E+03  0.66216752969E+03  0.12509000000E+03 0.  0.
<mgrwt>
<rscale>  2 0.44991318E+03</rscale>
<asrwt>0</asrwt>
<pdfrwt beam="1">  1       21 0.41604647E-02 0.44991318E+03</pdfrwt>
<pdfrwt beam="2">  1       21 0.26304968E+00 0.44991318E+03</pdfrwt>
<totfact> 0.17619985E+04</totfact>
</mgrwt>
</event>
<event>
 7    0  0.4752811E-002  0.4626654E+03  0.7546771E-02  0.1024011E+00
         21   -1    0    0  502  501  0.00000000000E+00  0.00000000000E+00  0.49760929123E+03  0.49760929123E+03  0.00000000000E+00 0. -1.
         21   -1    0    0  501  502 -0.00000000000E+00 -0.00000000000E+00 -0.10754384906E+03  0.10754384906E+03  0.00000000000E+00 0. -1.
      99926    2    1    2    0    0 -0.14210854715E-13 -0.71054273576E-14  0.39006544217E+03  0.60515314029E+03  0.46266540180E+03 0.  0.
      99925    2    3    3    0    0  0.10017385944E+03  0.63087838796E+02  0.27135441943E+03  0.39597691664E+03  0.26296315341E+03 0.  0.
         25    1    4    4    0    0  0.54142446047E+02 -0.23716820516E+01  0.99033419282E+02  0.16849971980E+03  0.12509000000E+03 0.  0.
         25    1    3    3    0    0 -0.10017385944E+03 -0.63087838796E+02  0.11871102274E+03  0.20917622364E+03  0.12509000000E+03 0.  0.
         25    1    4    4    0    0  0.46031413392E+02  0.65459520848E+02  0.17232100015E+03  0.22747719684E+03  0.12509000000E+03 0.  0.
<mgrwt>
<rscale>  2 0.46266540E+03</rscale>
<asrwt>0</asrwt>
<pdfrwt beam="1">  1       21 0.73177836E-01 0.46266540E+03</pdfrwt>
<pdfrwt beam="2">  1       21 0.15815272E-01 0.46266540E+03</pdfrwt>
<totfact> 0.54957594E+04</totfact>
</mgrwt>
</event>
<event>
 7    0  0.4752811E-002  0.4643902E+03  0.7546771E-02  0.1023516E+00
         21   -1    0    0  502  501  0.00000000000E+00  0.00000000000E+00  0.29112522037E+03  0.29112522037E+03  0.00000000000E+00 0.  1.
         21   -1    0    0  501  502 -0.00000000000E+00 -0.00000000000E+00 -0.18519368740E+03  0.18519368740E+03  0.00000000000E+00 0.  1.
      99926    2    1    2    0    0 -0.35527136788E-14  0.00000000000E+00  0.10593153297E+03  0.47631890777E+03  0.46439015087E+03 0.  0.
      99925    2    3    3    0    0  0.24715724288E+02 -0.31147484060E+02  0.18418944961E+03  0.32350253952E+03  0.26295837492E+03 0.  0.
         25    1    4    4    0    0  0.13861468433E+02 -0.19623612743E+02  0.43545408557E+02  0.13461403044E+03  0.12509000000E+03 0.  0.
         25    1    4    4    0    0  0.10854255855E+02 -0.11523871317E+02  0.14064404105E+03  0.18888850908E+03  0.12509000000E+03 0.  0.
         25    1    3    3    0    0 -0.24715724288E+02  0.31147484060E+02 -0.78257916632E+02  0.15281636825E+03  0.12509000000E+03 0.  0.
<mgrwt>
<rscale>  2 0.46439015E+03</rscale>
<asrwt>0</asrwt>
<pdfrwt beam="1">  1       21 0.42812532E-01 0.46439015E+03</pdfrwt>
<pdfrwt beam="2">  1       21 0.27234366E-01 0.46439015E+03</pdfrwt>
<totfact> 0.62204125E+04</totfact>
</mgrwt>
</event>
<event>
 7    0  0.4752811E-002  0.4466293E+03  0.7546771E-02  0.1028732E+00
         21   -1    0    0  502  501  0.00000000000E+00  0.00000000000E+00  0.25529417262E+03  0.25529417262E+03  0.00000000000E+00 0.  1.
         21   -1    0    0  501  502 -0.00000000000E+00 -0.00000000000E+00 -0.19534101334E+03  0.19534101334E+03  0.00000000000E+00 0.  1.
      99926    2    1    2    0    0  0.00000000000E+00  0.71054273576E-14  0.59953159276E+02  0.45063518597E+03  0.44662925287E+03 0.  0.
      99925    2    3    3    0    0 -0.88438957846E+02 -0.44105206729E+02  0.20590351710E+01  0.28102989055E+03  0.26307193167E+03 0.  0.
         25    1    4    4    0    0 -0.53478167706E+02  0.10693188584E+02  0.23400082336E+02  0.13845335192E+03  0.12509000000E+03 0.  0.
         25    1    4    4    0    0 -0.34960790140E+02 -0.54798395313E+02 -0.21341047165E+02  0.14257653864E+03  0.12509000000E+03 0.  0.
         25    1    3    3    0    0  0.88438957846E+02  0.44105206729E+02  0.57894124105E+02  0.16960529541E+03  0.12509000000E+03 0.  0.
<mgrwt>
<rscale>  2 0.44662925E+03</rscale>
<asrwt>0</asrwt>
<pdfrwt beam="1">  1       21 0.37543260E-01 0.44662925E+03</pdfrwt>
<pdfrwt beam="2">  1       21 0.28726620E-01 0.44662925E+03</pdfrwt>
<totfact> 0.73664522E+04</totfact>
</mgrwt>
</event>
<event>
 7    0  0.4752811E-002  0.4505611E+03  0.7546771E-02  0.1027555E+00
         21   -1    0    0  502  501  0.00000000000E+00  0.00000000000E+00  0.29204164034E+02  0.29204164034E+02  0.00000000000E+00 0.  1.
         21   -1    0    0  501  502 -0.00000000000E+00 -0.00000000000E+00 -0.17378116689E+04  0.17378116689E+04  0.00000000000E+00 0.  1.
      99926    2    1    2    0    0  0.00000000000E+00  0.00000000000E+00 -0.17086075048E+04  0.17670158329E+04  0.45056114807E+03 0.  0.
      99925    2    3    3    0    0  0.99356365041E+01 -0.10761771794E+03 -0.10200131931E+04  0.10588562997E+04  0.26281069120E+03 0.  0.
         25    1    3    3    0    0 -0.99356365041E+01  0.10761771794E+03 -0.68859431178E+03  0.70815953316E+03  0.12509000000E+03 0.  0.
         25    1    4    4    0    0 -0.24766975098E+02 -0.30351160286E+02 -0.53717139930E+03  0.55293328378E+03  0.12509000000E+03 0.  0.
         25    1    4    4    0    0  0.34702611603E+02 -0.77266557658E+02 -0.48284179375E+03  0.50592301596E+03  0.12509000000E+03 0.  0.
<mgrwt>
<rscale>  2 0.45056115E+03</rscale>
<asrwt>0</asrwt>
<pdfrwt beam="1">  1       21 0.42947299E-02 0.45056115E+03</pdfrwt>
<pdfrwt beam="2">  1       21 0.25556055E+00 0.45056115E+03</pdfrwt>
<totfact> 0.18532395E+04</totfact>
</mgrwt>
</event>
<event>
 7    0  0.4752811E-002  0.4585057E+03  0.7546771E-02  0.1025216E+00
         21   -1    0    0  502  501  0.00000000000E+00  0.00000000000E+00  0.81140210323E+02  0.81140210323E+02  0.00000000000E+00 0. -1.
         21   -1    0    0  501  502 -0.00000000000E+00 -0.00000000000E+00 -0.64772891887E+03  0.64772891887E+03  0.00000000000E+00 0. -1.
      99926    2    1    2    0    0  0.00000000000E+00  0.00000000000E+00 -0.56658870854E+03  0.72886912919E+03  0.45850566282E+03 0.  0.
      99925    2    3    3    0    0  0.35171764369E+02  0.81423168677E+02 -0.23578804577E+03  0.36425512507E+03  0.26309505546E+03 0.  0.
         25    1    3    3    0    0 -0.35171764369E+02 -0.81423168677E+02 -0.33080066277E+03  0.36461400412E+03  0.12509000000E+03 0.  0.
         25    1    4    4    0    0  0.40225982808E+02  0.53228438058E+02 -0.81326343886E+02  0.16344074957E+03  0.12509000000E+03 0.  0.
         25    1    4    4    0    0 -0.50542184392E+01  0.28194730619E+02 -0.15446170188E+03  0.20081437550E+03  0.12509000000E+03 0.  0.
<mgrwt>
<rscale>  2 0.45850566E+03</rscale>
<asrwt>0</asrwt>
<pdfrwt beam="1">  1       21 0.11932383E-01 0.45850566E+03</pdfrwt>
<pdfrwt beam="2">  1       21 0.95254257E-01 0.45850566E+03</pdfrwt>
<totfact> 0.49971535E+04</totfact>
</mgrwt>
</event>
<event>
 7    0  0.4752811E-002  0.4540443E+03  0.7546771E-02  0.1026523E+00
         21   -1    0    0  502  501  0.00000000000E+00  0.00000000000E+00  0.12748326944E+03  0.12748326944E+03  0.00000000000E+00 0. -1.
         21   -1    0    0  501  502 -0.00000000000E+00 -0.00000000000E+00 -0.40428087563E+03  0.40428087563E+03  0.00000000000E+00 0. -1.
      99926    2    1    2    0    0 -0.14210854715E-13  0.35527136788E-14 -0.27679760618E+03  0.53176414507E+03  0.45404426127E+03 0.  0.
      99925    2    3    3    0    0 -0.63922380520E+02 -0.16221453080E+02 -0.28068835216E+03  0.39030089092E+03  0.26305822196E+03 0.  0.
         25    1    4    4    0    0 -0.73555959508E+02 -0.11117210610E+02 -0.14550591172E+03  0.20579978134E+03  0.12509000000E+03 0.  0.
         25    1    3    3    0    0  0.63922380520E+02  0.16221453080E+02  0.38907459782E+01  0.14146325415E+03  0.12509000000E+03 0.  0.
         25    1    4    4    0    0  0.96335789887E+01 -0.51042424699E+01 -0.13518244044E+03  0.18450110958E+03  0.12509000000E+03 0.  0.
<mgrwt>
<rscale>  2 0.45404426E+03</rscale>
<asrwt>0</asrwt>
<pdfrwt beam="1">  1       21 0.18747540E-01 0.45404426E+03</pdfrwt>
<pdfrwt beam="2">  1       21 0.59453068E-01 0.45404426E+03</pdfrwt>
<totfact> 0.63567363E+04</totfact>
</mgrwt>
</event>
<event>
 7    0  0.4752811E-002  0.4551891E+03  0.7546771E-02  0.1026186E+00
         21   -1    0    0  502  501  0.00000000000E+00  0.00000000000E+00  0.12529265773E+03  0.12529265773E+03  0.00000000000E+00 0. -1.
         21   -1    0    0  501  502 -0.00000000000E+00 -0.00000000000E+00 -0.41342625457E+03  0.41342625457E+03  0.00000000000E+00 0. -1.
      99926    2    1    2    0    0  0.00000000000E+00  0.00000000000E+00 -0.28813359684E+03  0.53871891229E+03  0.45518907811E+03 0.  0.
      99925    2    3    3    0    0 -0.55481094367E+02 -0.54443565083E+02 -0.83712156798E+02  0.28677072940E+03  0.26303511636E+03 0.  0.
         25    1    3    3    0    0  0.55481094367E+02  0.54443565083E+02 -0.20442144005E+03  0.25194818289E+03  0.12509000000E+03 0.  0.
         25    1    4    4    0    0 -0.59526810906E+01  0.22499146730E+01 -0.17521967169E+02  0.12647143536E+03  0.12509000000E+03 0.  0.
         25    1    4    4    0    0 -0.49528413276E+02 -0.56693479756E+02 -0.66190189629E+02  0.16029929405E+03  0.12509000000E+03 0.  0.
<mgrwt>
<rscale>  2 0.45518908E+03</rscale>
<asrwt>0</asrwt>
<pdfrwt beam="1">  1       21 0.18425391E-01 0.45518908E+03</pdfrwt>
<pdfrwt beam="2">  1       21 0.60797978E-01 0.45518908E+03</pdfrwt>
<totfact> 0.62524573E+04</totfact>
</mgrwt>
</event>
<event>
 7    0  0.4752811E-002  0.4418027E+03  0.7546771E-02  0.1030195E+00
         21   -1    0    0  502  501  0.00000000000E+00  0.00000000000E+00  0.18316595995E+04  0.18316595995E+04  0.00000000000E+00 0.  1.
         21   -1    0    0  501  502 -0.00000000000E+00 -0.00000000000E+00 -0.26641090601E+02  0.26641090601E+02  0.00000000000E+00 0.  1.
      99926    2    1    2    0    0 -0.17763568394E-14  0.00000000000E+00  0.18050185089E+04  0.18583006901E+04  0.44180271316E+03 0.  0.
      99925    2    3    3    0    0  0.89142344881E+01 -0.93803253122E+02  0.12896963306E+04  0.13197071797E+04  0.26349933809E+03 0.  0.
         25    1    4    4    0    0  0.24931524710E+02 -0.69780098762E+02  0.81964099572E+03  0.83243601139E+03  0.12509000000E+03 0.  0.
         25    1    3    3    0    0 -0.89142344881E+01  0.93803253122E+02  0.51532217826E+03  0.53859351034E+03  0.12509000000E+03 0.  0.
         25    1    4    4    0    0 -0.16017290222E+02 -0.24023154360E+02  0.47005533489E+03  0.48727116833E+03  0.12509000000E+03 0.  0.
<mgrwt>
<rscale>  2 0.44180271E+03</rscale>
<asrwt>0</asrwt>
<pdfrwt beam="1">  1       21 0.26936162E+00 0.44180271E+03</pdfrwt>
<pdfrwt beam="2">  1       21 0.39178087E-02 0.44180271E+03</pdfrwt>
<totfact> 0.17931858E+04</totfact>
</mgrwt>
</event>
<event>
 7    0  0.4752811E-002  0.4557457E+03  0.7546771E-02  0.1026022E+00
         21   -1    0    0  502  501  0.00000000000E+00  0.00000000000E+00  0.13658057079E+03  0.13658057079E+03  0.00000000000E+00 0. -1.
         21   -1    0    0  501  502 -0.00000000000E+00 -0.00000000000E+00 -0.38018602593E+03  0.38018602593E+03  0.00000000000E+00 0. -1.
      99926    2    1    2    0    0 -0.14210854715E-13  0.71054273576E-14 -0.24360545514E+03  0.51676659672E+03  0.45574565024E+03 0.  0.
      99925    2    3    3    0    0  0.98419863921E+02 -0.57048379189E+02 -0.14699359193E+03  0.32202998641E+03  0.26297377986E+03 0.  0.
         25    1    4    4    0    0  0.43895905398E+02  0.86047859749E+01 -0.88856223100E+02  0.15982437028E+03  0.12509000000E+03 0.  0.
         25    1    4    4    0    0  0.54523958523E+02 -0.65653165164E+02 -0.58137368831E+02  0.16220561613E+03  0.12509000000E+03 0.  0.
         25    1    3    3    0    0 -0.98419863921E+02  0.57048379189E+02 -0.96611863213E+02  0.19473661031E+03  0.12509000000E+03 0.  0.
<mgrwt>
<rscale>  2 0.45574565E+03</rscale>
<asrwt>0</asrwt>
<pdfrwt beam="1">  1       21 0.20085378E-01 0.45574565E+03</pdfrwt>
<pdfrwt beam="2">  1       21 0.55909709E-01 0.45574565E+03</pdfrwt>
<totfact> 0.63730205E+04</totfact>
</mgrwt>
</event>
<event>
 7    0  0.4752811E-002  0.4540329E+03  0.7546771E-02  0.1026526E+00
         21   -1    0    0  502  501  0.00000000000E+00  0.00000000000E+00  0.12722489098E+04  0.12722489098E+04  0.00000000000E+00 0.  1.
         21   -1    0    0  501  502 -0.00000000000E+00 -0.00000000000E+00 -0.40508172707E+02  0.40508172707E+02  0.00000000000E+00 0.  1.
      99926    2    1    2    0    0  0.00000000000E+00 -0.35527136788E-14  0.12317407371E+04  0.13127570825E+04  0.45403294402E+03 0.  0.
      99925    2    3    3    0    0 -0.39997556531E+02  0.27975717028E+02  0.10681042280E+04  0.11010807719E+04  0.26296345578E+03 0.  0.
         25    1    3    3    0    0  0.39997556531E+02 -0.27975717028E+02  0.16363650911E+03  0.21167631064E+03  0.12509000000E+03 0.  0.
         25    1    4    4    0    0 -0.25938902307E+02 -0.14676829836E+02  0.41010050424E+03  0.42978851505E+03  0.12509000000E+03 0.  0.
         25    1    4    4    0    0 -0.14058654224E+02  0.42652546864E+02  0.65800372375E+03  0.67129225683E+03  0.12509000000E+03 0.  0.
<mgrwt>
<rscale>  2 0.45403294E+03</rscale>
<asrwt>0</asrwt>
<pdfrwt beam="1">  1       21 0.18709540E+00 0.45403294E+03</pdfrwt>
<pdfrwt beam="2">  1       21 0.59570851E-02 0.45403294E+03</pdfrwt>
<totfact> 0.28963641E+04</totfact>
</mgrwt>
</event>
<event>
 7    0  0.4752811E-002  0.4411415E+03  0.7546771E-02  0.1030397E+00
         21   -1    0    0  502  501  0.00000000000E+00  0.00000000000E+00  0.12995792563E+04  0.12995792563E+04  0.00000000000E+00 0. -1.
         21   -1    0    0  501  502 -0.00000000000E+00 -0.00000000000E+00 -0.37436316545E+02  0.37436316545E+02  0.00000000000E+00 0. -1.
      99926    2    1    2    0    0 -0.35527136788E-14  0.35527136788E-14  0.12621429398E+04  0.13370155729E+04  0.44114152112E+03 0.  0.
      99925    2    3    3    0    0 -0.30676342839E+02  0.17602266453E+02  0.52297208087E+03  0.58650111961E+03  0.26312143230E+03 0.  0.
         25    1    4    4    0    0 -0.49116922655E+02 -0.10378078149E+01  0.22189504655E+03  0.25941948446E+03  0.12509000000E+03 0.  0.
         25    1    3    3    0    0  0.30676342839E+02 -0.17602266453E+02  0.73917085889E+03  0.75051445324E+03  0.12509000000E+03 0.  0.
         25    1    4    4    0    0  0.18440579816E+02  0.18640074268E+02  0.30107703432E+03  0.32708163514E+03  0.12509000000E+03 0.  0.
<mgrwt>
<rscale>  2 0.44114152E+03</rscale>
<asrwt>0</asrwt>
<pdfrwt beam="1">  1       21 0.19111457E+00 0.44114152E+03</pdfrwt>
<pdfrwt beam="2">  1       21 0.55053415E-02 0.44114152E+03</pdfrwt>
<totfact> 0.31297354E+04</totfact>
</mgrwt>
</event>
<event>
 6    0  0.4752811E-002  0.4579408E+03  0.7546771E-02  0.1025380E+00
         21   -1    0    0  502  501  0.00000000000E+00  0.00000000000E+00  0.64331358169E+02  0.64331358169E+02  0.00000000000E+00 0. -1.
         21   -1    0    0  501  502 -0.00000000000E+00 -0.00000000000E+00 -0.81495922965E+03  0.81495922965E+03  0.00000000000E+00 0. -1.
      99926    2    1    2    0    0 -0.13322676296E-14  0.00000000000E+00 -0.75062787148E+03  0.87929058782E+03  0.45794075641E+03 0.  0.
         25    1    3    3    0    0  0.11596306225E+02 -0.46551584425E+02 -0.25457345950E+03  0.28767460561E+03  0.12509000000E+03 0.  0.
         25    1    3    3    0    0  0.31579600024E+01  0.93726332983E+02 -0.39052535794E+03  0.42065682153E+03  0.12509000000E+03 0.  0.
         25    1    3    3    0    0 -0.14754266227E+02 -0.47174748558E+02 -0.10552905404E+03  0.17095916068E+03  0.12509000000E+03 0.  0.
<mgrwt>
<rscale>  2 0.45794076E+03</rscale>
<asrwt>0</asrwt>
<pdfrwt beam="1">  1       21 0.94604935E-02 0.45794076E+03</pdfrwt>
<pdfrwt beam="2">  1       21 0.11984695E+00 0.45794076E+03</pdfrwt>
<totfact> 0.43139038E+04</totfact>
</mgrwt>
</event>
<event>
 7    0  0.4752811E-002  0.4535549E+03  0.7546771E-02  0.1026667E+00
         21   -1    0    0  502  501  0.00000000000E+00  0.00000000000E+00  0.14002270280E+03  0.14002270280E+03  0.00000000000E+00 0.  1.
         21   -1    0    0  501  502 -0.00000000000E+00 -0.00000000000E+00 -0.36728337160E+03  0.36728337160E+03  0.00000000000E+00 0.  1.
      99926    2    1    2    0    0  0.00000000000E+00  0.17763568394E-14 -0.22726066881E+03  0.50730607440E+03  0.45355489363E+03 0.  0.
      99925    2    3    3    0    0  0.67526217878E+02 -0.14716269494E+02 -0.44918120220E+02  0.27563244229E+03  0.26301948032E+03 0.  0.
         25    1    4    4    0    0  0.35724374051E+02  0.17181338147E+02  0.10396892775E+02  0.13163218741E+03  0.12509000000E+03 0.  0.
         25    1    4    4    0    0  0.31801843828E+02 -0.31897607642E+02 -0.55315012996E+02  0.14400025488E+03  0.12509000000E+03 0.  0.
         25    1    3    3    0    0 -0.67526217878E+02  0.14716269494E+02 -0.18234254859E+03  0.23167363211E+03  0.12509000000E+03 0.  0.
<mgrwt>
<rscale>  2 0.45355489E+03</rscale>
<asrwt>0</asrwt>
<pdfrwt beam="1">  1       21 0.20591574E-01 0.45355489E+03</pdfrwt>
<pdfrwt beam="2">  1       21 0.54012260E-01 0.45355489E+03</pdfrwt>
<totfact> 0.65508498E+04</totfact>
</mgrwt>
</event>
<event>
 7    0  0.4752811E-002  0.4538076E+03  0.7546771E-02  0.1026593E+00
         21   -1    0    0  502  501  0.00000000000E+00  0.00000000000E+00  0.46732800175E+03  0.46732800175E+03  0.00000000000E+00 0. -1.
         21   -1    0    0  501  502 -0.00000000000E+00 -0.00000000000E+00 -0.11016961137E+03  0.11016961137E+03  0.00000000000E+00 0. -1.
      99926    2    1    2    0    0 -0.88817841970E-15  0.00000000000E+00  0.35715839038E+03  0.57749761312E+03  0.45380764355E+03 0.  0.
      99925    2    3    3    0    0  0.67313501101E+01  0.23153461345E+02  0.85376926120E+02  0.27734087697E+03  0.26276862194E+03 0.  0.
         25    1    4    4    0    0 -0.91986709462E+01  0.41422834370E+02  0.18317744791E+02  0.13335484479E+03  0.12509000000E+03 0.  0.
         25    1    3    3    0    0 -0.67313501101E+01 -0.23153461345E+02  0.27178146426E+03  0.30015673616E+03  0.12509000000E+03 0.  0.
         25    1    4    4    0    0  0.15930021056E+02 -0.18269373025E+02  0.67059181329E+02  0.14398603218E+03  0.12509000000E+03 0.  0.
<mgrwt>
<rscale>  2 0.45380764E+03</rscale>
<asrwt>0</asrwt>
<pdfrwt beam="1">  1       21 0.68724705E-01 0.45380764E+03</pdfrwt>
<pdfrwt beam="2">  1       21 0.16201414E-01 0.45380764E+03</pdfrwt>
<totfact> 0.60654953E+04</totfact>
</mgrwt>
</event>
<event>
 7    0  0.4752811E-002  0.4330095E+03  0.7546771E-02  0.1032913E+00
         21   -1    0    0  502  501  0.00000000000E+00  0.00000000000E+00  0.77161657223E+02  0.77161657223E+02  0.00000000000E+00 0.  1.
         21   -1    0    0  501  502 -0.00000000000E+00 -0.00000000000E+00 -0.60748182838E+03  0.60748182838E+03  0.00000000000E+00 0.  1.
      99926    2    1    2    0    0  0.35527136788E-14  0.00000000000E+00 -0.53032017116E+03  0.68464348560E+03  0.43300949002E+03 0.  0.
      99925    2    3    3    0    0 -0.20932114684E+02  0.65817710604E+02 -0.24702557210E+03  0.36735266883E+03  0.26297571289E+03 0.  0.
         25    1    4    4    0    0 -0.30706954015E+02  0.63116639340E+01 -0.15071464412E+03  0.19835615992E+03  0.12509000000E+03 0.  0.
         25    1    4    4    0    0  0.97748393312E+01  0.59506046669E+02 -0.96310927975E+02  0.16899650890E+03  0.12509000000E+03 0.  0.
         25    1    3    3    0    0  0.20932114684E+02 -0.65817710604E+02 -0.28329459906E+03  0.31729081678E+03  0.12509000000E+03 0.  0.
<mgrwt>
<rscale>  2 0.43300949E+03</rscale>
<asrwt>0</asrwt>
<pdfrwt beam="1">  1       21 0.11347303E-01 0.43300949E+03</pdfrwt>
<pdfrwt beam="2">  1       21 0.89335557E-01 0.43300949E+03</pdfrwt>
<totfact> 0.64150450E+04</totfact>
</mgrwt>
</event>
<event>
 7    0  0.4752811E-002  0.4574832E+03  0.7546771E-02  0.1025514E+00
         21   -1    0    0  502  501  0.00000000000E+00  0.00000000000E+00  0.64950309777E+03  0.64950309777E+03  0.00000000000E+00 0. -1.
         21   -1    0    0  501  502 -0.00000000000E+00 -0.00000000000E+00 -0.80558076851E+02  0.80558076851E+02  0.00000000000E+00 0. -1.
      99926    2    1    2    0    0  0.77715611724E-15  0.00000000000E+00  0.56894502092E+03  0.73006117462E+03  0.45748320391E+03 0.  0.
      99925    2    3    3    0    0  0.95522914018E+00  0.43481155493E+02  0.18659322389E+03  0.32542315350E+03  0.26304310348E+03 0.  0.
         25    1    4    4    0    0 -0.80913640872E+01  0.38892007911E+02  0.51385938475E+02  0.14094708661E+03  0.12509000000E+03 0.  0.
         25    1    4    4    0    0  0.90465932274E+01  0.45891475816E+01  0.13520728542E+03  0.18447606689E+03  0.12509000000E+03 0.  0.
         25    1    3    3    0    0 -0.95522914018E+00 -0.43481155493E+02  0.38235179702E+03  0.40463802112E+03  0.12509000000E+03 0.  0.
<mgrwt>
<rscale>  2 0.45748320E+03</rscale>
<asrwt>0</asrwt>
<pdfrwt beam="1">  1       21 0.95515159E-01 0.45748320E+03</pdfrwt>
<pdfrwt beam="2">  1       21 0.11846776E-01 0.45748320E+03</pdfrwt>
<totfact> 0.50311430E+04</totfact>
</mgrwt>
</event>
<event>
 7    0  0.4752811E-002  0.4543993E+03  0.7546771E-02  0.1026418E+00
         21   -1    0    0  502  501  0.00000000000E+00  0.00000000000E+00  0.28708755155E+03  0.28708755155E+03  0.00000000000E+00 0. -1.
         21   -1    0    0  501  502 -0.00000000000E+00 -0.00000000000E+00 -0.17980468773E+03  0.17980468773E+03  0.00000000000E+00 0. -1.
      99926    2    1    2    0    0  0.00000000000E+00  0.00000000000E+00  0.10728286382E+03  0.46689223928E+03  0.45439932903E+03 0.  0.
      99925    2    3    3    0    0  0.36073982737E+02 -0.64093124963E+02 -0.20066958252E+02  0.27382555085E+03  0.26299902773E+03 0.  0.
         25    1    4    4    0    0  0.81755800755E+01 -0.69401119400E+02  0.38693838493E+01  0.14333818652E+03  0.12509000000E+03 0.  0.
         25    1    3    3    0    0 -0.36073982737E+02  0.64093124963E+02  0.12734982208E+03  0.19306668843E+03  0.12509000000E+03 0.  0.
         25    1    4    4    0    0  0.27898402662E+02  0.53079944379E+01 -0.23936342101E+02  0.13048736433E+03  0.12509000000E+03 0.  0.
<mgrwt>
<rscale>  2 0.45439933E+03</rscale>
<asrwt>0</asrwt>
<pdfrwt beam="1">  1       21 0.42218758E-01 0.45439933E+03</pdfrwt>
<pdfrwt beam="2">  1       21 0.26441866E-01 0.45439933E+03</pdfrwt>
<totfact> 0.67991124E+04</totfact>
</mgrwt>
</event>
<event>
 7    0  0.4752811E-002  0.4502837E+03  0.7546771E-02  0.1027637E+00
         21   -1    0    0  502  501  0.00000000000E+00  0.00000000000E+00  0.19522489446E+03  0.19522489446E+03  0.00000000000E+00 0.  1.
         21   -1    0    0  501  502 -0.00000000000E+00 -0.00000000000E+00 -0.25964337370E+03  0.25964337370E+03  0.00000000000E+00 0.  1.
      99926    2    1    2    0    0  0.00000000000E+00 -0.14210854715E-13 -0.64418479244E+02  0.45486826816E+03  0.45028368937E+03 0.  0.
      99925    2    3    3    0    0  0.82264271197E+02  0.70935034822E+02 -0.37003304245E+02  0.28694480524E+03  0.26299978564E+03 0.  0.
         25    1    3    3    0    0 -0.82264271197E+02 -0.70935034822E+02 -0.27415174999E+02  0.16792346293E+03  0.12509000000E+03 0.  0.
         25    1    4    4    0    0  0.11929198319E+02  0.63607710674E+02 -0.19766806443E+02  0.14221983465E+03  0.12509000000E+03 0.  0.
         25    1    4    4    0    0  0.70335072878E+02  0.73273241478E+01 -0.17236497802E+02  0.14472497059E+03  0.12509000000E+03 0.  0.
<mgrwt>
<rscale>  2 0.45028369E+03</rscale>
<asrwt>0</asrwt>
<pdfrwt beam="1">  1       21 0.28709543E-01 0.45028369E+03</pdfrwt>
<pdfrwt beam="2">  1       21 0.38182849E-01 0.45028369E+03</pdfrwt>
<totfact> 0.71196533E+04</totfact>
</mgrwt>
</event>
<event>
 6    0  0.4752811E-002  0.4467089E+03  0.7546771E-02  0.1028708E+00
         21   -1    0    0  502  501  0.00000000000E+00  0.00000000000E+00  0.10579883008E+03  0.10579883008E+03  0.00000000000E+00 0.  1.
         21   -1    0    0  501  502 -0.00000000000E+00 -0.00000000000E+00 -0.47152895262E+03  0.47152895262E+03  0.00000000000E+00 0.  1.
      99926    2    1    2    0    0  0.00000000000E+00  0.00000000000E+00 -0.36573012255E+03  0.57732778270E+03  0.44670890538E+03 0.  0.
         25    1    3    3    0    0 -0.17415720270E+02  0.86201768272E+02 -0.64169847406E+02  0.16582921812E+03  0.12509000000E+03 0.  0.
         25    1    3    3    0    0  0.43190153073E+02 -0.36104315743E+02 -0.10974675687E+03  0.17567233613E+03  0.12509000000E+03 0.  0.
         25    1    3    3    0    0 -0.25774432803E+02 -0.50097452529E+02 -0.19181351827E+03  0.23582622846E+03  0.12509000000E+03 0.  0.
<mgrwt>
<rscale>  2 0.44670891E+03</rscale>
<asrwt>0</asrwt>
<pdfrwt beam="1">  1       21 0.15558652E-01 0.44670891E+03</pdfrwt>
<pdfrwt beam="2">  1       21 0.69342492E-01 0.44670891E+03</pdfrwt>
<totfact> 0.64202048E+04</totfact>
</mgrwt>
</event>
<event>
 7    0  0.4752811E-002  0.4487300E+03  0.7546771E-02  0.1028101E+00
         21   -1    0    0  502  501  0.00000000000E+00  0.00000000000E+00  0.12894447538E+03  0.12894447538E+03  0.00000000000E+00 0.  1.
         21   -1    0    0  501  502 -0.00000000000E+00 -0.00000000000E+00 -0.39039790838E+03  0.39039790838E+03  0.00000000000E+00 0.  1.
      99926    2    1    2    0    0  0.00000000000E+00  0.00000000000E+00 -0.26145343300E+03  0.51934238377E+03  0.44873000117E+03 0.  0.
      99925    2    3    3    0    0  0.26351386138E+02 -0.87493707643E+02 -0.23009480355E+03  0.36129044240E+03  0.26313042530E+03 0.  0.
         25    1    4    4    0    0  0.53090351085E+02 -0.53894199665E+02 -0.11590533817E+03  0.18656024671E+03  0.12509000000E+03 0.  0.
         25    1    4    4    0    0 -0.26738964947E+02 -0.33599507978E+02 -0.11418946538E+03  0.17473019569E+03  0.12509000000E+03 0.  0.
         25    1    3    3    0    0 -0.26351386138E+02  0.87493707643E+02 -0.31358629445E+02  0.15805194136E+03  0.12509000000E+03 0.  0.
<mgrwt>
<rscale>  2 0.44873000E+03</rscale>
<asrwt>0</asrwt>
<pdfrwt beam="1">  1       21 0.18962423E-01 0.44873000E+03</pdfrwt>
<pdfrwt beam="2">  1       21 0.57411457E-01 0.44873000E+03</pdfrwt>
<totfact> 0.67213039E+04</totfact>
</mgrwt>
</event>
<event>
 7    0  0.4752811E-002  0.4464088E+03  0.7546771E-02  0.1028798E+00
         21   -1    0    0  502  501  0.00000000000E+00  0.00000000000E+00  0.26192832302E+03  0.26192832302E+03  0.00000000000E+00 0.  1.
         21   -1    0    0  501  502 -0.00000000000E+00 -0.00000000000E+00 -0.19020548177E+03  0.19020548177E+03  0.00000000000E+00 0.  1.
      99926    2    1    2    0    0  0.00000000000E+00 -0.14210854715E-13  0.71722841246E+02  0.45213380479E+03  0.44640879413E+03 0.  0.
      99925    2    3    3    0    0  0.38166894400E+02 -0.96997907376E+02  0.33779389249E+02  0.28494373477E+03  0.26303341800E+03 0.  0.
         25    1    4    4    0    0  0.17490408296E+02 -0.21256487950E+02  0.47528337709E+02  0.13661699619E+03  0.12509000000E+03 0.  0.
         25    1    3    3    0    0 -0.38166894400E+02  0.96997907376E+02  0.37943451997E+02  0.16719007002E+03  0.12509000000E+03 0.  0.
         25    1    4    4    0    0  0.20676486104E+02 -0.75741419426E+02 -0.13748948460E+02  0.14832673858E+03  0.12509000000E+03 0.  0.
<mgrwt>
<rscale>  2 0.44640879E+03</rscale>
<asrwt>0</asrwt>
<pdfrwt beam="1">  1       21 0.38518871E-01 0.44640879E+03</pdfrwt>
<pdfrwt beam="2">  1       21 0.27971394E-01 0.44640879E+03</pdfrwt>
<totfact> 0.73677411E+04</totfact>
</mgrwt>
</event>
<event>
 7    0  0.4752811E-002  0.4541378E+03  0.7546771E-02  0.1026495E+00
         21   -1    0    0  502  501  0.00000000000E+00  0.00000000000E+00  0.63640307474E+02  0.63640307474E+02  0.00000000000E+00 0. -1.
         21   -1    0    0  501  502 -0.00000000000E+00 -0.00000000000E+00 -0.81018275198E+03  0.81018275198E+03  0.00000000000E+00 0. -1.
      99926    2    1    2    0    0  0.00000000000E+00  0.00000000000E+00 -0.74654244451E+03  0.87382305945E+03  0.45413777401E+03 0.  0.
      99925    2    3    3    0    0  0.68298328640E+02  0.41923369853E+02 -0.62106395797E+03  0.67936332244E+03  0.26342333487E+03 0.  0.
         25    1    4    4    0    0  0.48078602865E+02  0.43751358002E+02 -0.40553017557E+03  0.42933432751E+03  0.12509000000E+03 0.  0.
         25    1    3    3    0    0 -0.68298328640E+02 -0.41923369853E+02 -0.12547848653E+03  0.19445973701E+03  0.12509000000E+03 0.  0.
         25    1    4    4    0    0  0.20219725775E+02 -0.18279881491E+01 -0.21553378240E+03  0.25002899493E+03  0.12509000000E+03 0.  0.
<mgrwt>
<rscale>  2 0.45413777E+03</rscale>
<asrwt>0</asrwt>
<pdfrwt beam="1">  1       21 0.93588689E-02 0.45413777E+03</pdfrwt>
<pdfrwt beam="2">  1       21 0.11914452E+00 0.45413777E+03</pdfrwt>
<totfact> 0.44685897E+04</totfact>
</mgrwt>
</event>
<event>
 7    0  0.4752811E-002  0.4527873E+03  0.7546771E-02  0.1026894E+00
         21   -1    0    0  502  501  0.00000000000E+00  0.00000000000E+00  0.50246513521E+02  0.50246513521E+02  0.00000000000E+00 0.  1.
         21   -1    0    0  501  502 -0.00000000000E+00 -0.00000000000E+00 -0.10200524676E+04  0.10200524676E+04  0.00000000000E+00 0.  1.
      99926    2    1    2    0    0  0.00000000000E+00  0.00000000000E+00 -0.96980595405E+03  0.10702989811E+04  0.45278727943E+03 0.  0.
      99925    2    3    3    0    0  0.20796193909E+02 -0.76630588164E+02 -0.79516900821E+03  0.84127867702E+03  0.26296640864E+03 0.  0.
         25    1    4    4    0    0  0.29609039591E+02 -0.75025137249E+02 -0.40763139046E+03  0.43395428911E+03  0.12509000000E+03 0.  0.
         25    1    4    4    0    0 -0.88128456819E+01 -0.16054509151E+01 -0.38753761775E+03  0.40732438792E+03  0.12509000000E+03 0.  0.
         25    1    3    3    0    0 -0.20796193909E+02  0.76630588164E+02 -0.17463694585E+03  0.22902030407E+03  0.12509000000E+03 0.  0.
<mgrwt>
<rscale>  2 0.45278728E+03</rscale>
<asrwt>0</asrwt>
<pdfrwt beam="1">  1       21 0.73891932E-02 0.45278728E+03</pdfrwt>
<pdfrwt beam="2">  1       21 0.15000772E+00 0.45278728E+03</pdfrwt>
<totfact> 0.37179106E+04</totfact>
</mgrwt>
</event>
<event>
 7    0  0.4752811E-002  0.4637849E+03  0.7546771E-02  0.1023689E+00
         21   -1    0    0  502  501  0.00000000000E+00  0.00000000000E+00  0.12383623470E+03  0.12383623470E+03  0.00000000000E+00 0. -1.
         21   -1    0    0  501  502 -0.00000000000E+00 -0.00000000000E+00 -0.43423566577E+03  0.43423566577E+03  0.00000000000E+00 0. -1.
      99926    2    1    2    0    0  0.00000000000E+00 -0.14210854715E-13 -0.31039943107E+03  0.55807190046E+03  0.46378490626E+03 0.  0.
      99925    2    3    3    0    0  0.48567006558E+02 -0.11086700361E+03 -0.20170842129E+03  0.35286105688E+03  0.26301025004E+03 0.  0.
         25    1    4    4    0    0  0.46989359476E+02 -0.49765591312E+02 -0.61553948062E+02  0.15530940282E+03  0.12509000000E+03 0.  0.
         25    1    4    4    0    0  0.15776470813E+01 -0.61101412302E+02 -0.14015447323E+03  0.19755165406E+03  0.12509000000E+03 0.  0.
         25    1    3    3    0    0 -0.48567006558E+02  0.11086700361E+03 -0.10869100978E+03  0.20521084358E+03  0.12509000000E+03 0.  0.
<mgrwt>
<rscale>  2 0.46378491E+03</rscale>
<asrwt>0</asrwt>
<pdfrwt beam="1">  1       21 0.18211211E-01 0.46378491E+03</pdfrwt>
<pdfrwt beam="2">  1       21 0.63858186E-01 0.46378491E+03</pdfrwt>
<totfact> 0.57252657E+04</totfact>
</mgrwt>
</event>
<event>
 7    0  0.4752811E-002  0.4373581E+03  0.7546771E-02  0.1031560E+00
         21   -1    0    0  502  501  0.00000000000E+00  0.00000000000E+00  0.12758226036E+03  0.12758226036E+03  0.00000000000E+00 0. -1.
         21   -1    0    0  501  502 -0.00000000000E+00 -0.00000000000E+00 -0.37482112939E+03  0.37482112939E+03  0.00000000000E+00 0. -1.
      99926    2    1    2    0    0  0.00000000000E+00  0.00000000000E+00 -0.24723886903E+03  0.50240338975E+03  0.43735810004E+03 0.  0.
      99925    2    3    3    0    0 -0.84078509611E+02 -0.31290606982E+02 -0.19631500046E+03  0.34026441740E+03  0.26304371591E+03 0.  0.
         25    1    3    3    0    0  0.84078509611E+02  0.31290606982E+02 -0.50923868566E+02  0.16213897235E+03  0.12509000000E+03 0.  0.
         25    1    4    4    0    0 -0.35104870658E+02 -0.36729964421E+02 -0.56691116299E+02  0.14643371537E+03  0.12509000000E+03 0.  0.
         25    1    4    4    0    0 -0.48973638953E+02  0.54393574393E+01 -0.13962388416E+03  0.19383070203E+03  0.12509000000E+03 0.  0.
<mgrwt>
<rscale>  2 0.43735810E+03</rscale>
<asrwt>0</asrwt>
<pdfrwt beam="1">  1       21 0.18762097E-01 0.43735810E+03</pdfrwt>
<pdfrwt beam="2">  1       21 0.55120754E-01 0.43735810E+03</pdfrwt>
<totfact> 0.75074680E+04</totfact>
</mgrwt>
</event>
<event>
 7    0  0.4752811E-002  0.4606618E+03  0.7546771E-02  0.1024589E+00
         21   -1    0    0  502  501  0.00000000000E+00  0.00000000000E+00  0.42588268677E+03  0.42588268677E+03  0.00000000000E+00 0.  1.
         21   -1    0    0  501  502 -0.00000000000E+00 -0.00000000000E+00 -0.12457030111E+03  0.12457030111E+03  0.00000000000E+00 0.  1.
      99926    2    1    2    0    0  0.00000000000E+00  0.00000000000E+00  0.30131238566E+03  0.55045298788E+03  0.46066184790E+03 0.  0.
      99925    2    3    3    0    0 -0.10660289070E+03 -0.28485768247E+02  0.13726888304E+03  0.31650129596E+03  0.26297282901E+03 0.  0.
         25    1    3    3    0    0  0.10660289070E+03  0.28485768247E+02  0.16404350262E+03  0.23395169192E+03  0.12509000000E+03 0.  0.
         25    1    4    4    0    0 -0.35551818085E+02 -0.17996621950E+02  0.24825895035E+02  0.13361004204E+03  0.12509000000E+03 0.  0.
         25    1    4    4    0    0 -0.71051072613E+02 -0.10489146297E+02  0.11244298800E+03  0.18289125392E+03  0.12509000000E+03 0.  0.
<mgrwt>
<rscale>  2 0.46066185E+03</rscale>
<asrwt>0</asrwt>
<pdfrwt beam="1">  1       21 0.62629806E-01 0.46066185E+03</pdfrwt>
<pdfrwt beam="2">  1       21 0.18319162E-01 0.46066185E+03</pdfrwt>
<totfact> 0.59142376E+04</totfact>
</mgrwt>
</event>
<event>
 7    0  0.4752811E-002  0.4541665E+03  0.7546771E-02  0.1026487E+00
         21   -1    0    0  502  501  0.00000000000E+00  0.00000000000E+00  0.24966691036E+03  0.24966691036E+03  0.00000000000E+00 0.  1.
         21   -1    0    0  501  502 -0.00000000000E+00 -0.00000000000E+00 -0.20654238523E+03  0.20654238523E+03  0.00000000000E+00 0.  1.
      99926    2    1    2    0    0  0.17763568394E-14 -0.14210854715E-13  0.43124525132E+02  0.45620929560E+03  0.45416648569E+03 0.  0.
      99925    2    3    3    0    0 -0.96373515371E+01 -0.10946980237E+03  0.51822615666E+02  0.28947693205E+03  0.26274473262E+03 0.  0.
         25    1    4    4    0    0  0.25753312816E+02 -0.37934312450E+02  0.46119545927E+02  0.14098498430E+03  0.12509000000E+03 0.  0.
         25    1    3    3    0    0  0.96373515371E+01  0.10946980237E+03 -0.86980905338E+01  0.16673236355E+03  0.12509000000E+03 0.  0.
         25    1    4    4    0    0 -0.35390664353E+02 -0.71535489920E+02  0.57030697385E+01  0.14849194775E+03  0.12509000000E+03 0.  0.
<mgrwt>
<rscale>  2 0.45416649E+03</rscale>
<asrwt>0</asrwt>
<pdfrwt beam="1">  1       21 0.36715722E-01 0.45416649E+03</pdfrwt>
<pdfrwt beam="2">  1       21 0.30373880E-01 0.45416649E+03</pdfrwt>
<totfact> 0.68914459E+04</totfact>
</mgrwt>
</event>
<event>
 7    0  0.4752811E-002  0.4489701E+03  0.7546771E-02  0.1028030E+00
         21   -1    0    0  502  501  0.00000000000E+00  0.00000000000E+00  0.56421327338E+03  0.56421327338E+03  0.00000000000E+00 0.  1.
         21   -1    0    0  501  502 -0.00000000000E+00 -0.00000000000E+00 -0.89316458846E+02  0.89316458846E+02  0.00000000000E+00 0.  1.
      99926    2    1    2    0    0  0.00000000000E+00  0.00000000000E+00  0.47489681453E+03  0.65352973222E+03  0.44897007300E+03 0.  0.
      99925    2    3    3    0    0 -0.35875612623E+02 -0.77711625888E+02  0.39502113139E+03  0.48220025655E+03  0.26296242467E+03 0.  0.
         25    1    4    4    0    0 -0.87984983139E+01 -0.39220373366E+02  0.26477380653E+03  0.29558133903E+03  0.12509000000E+03 0.  0.
         25    1    3    3    0    0  0.35875612623E+02  0.77711625888E+02  0.79875683139E+02  0.17132947568E+03  0.12509000000E+03 0.  0.
         25    1    4    4    0    0 -0.27077114309E+02 -0.38491252522E+02  0.13024732486E+03  0.18661891751E+03  0.12509000000E+03 0.  0.
<mgrwt>
<rscale>  2 0.44897007E+03</rscale>
<asrwt>0</asrwt>
<pdfrwt beam="1">  1       21 0.82972539E-01 0.44897007E+03</pdfrwt>
<pdfrwt beam="2">  1       21 0.13134774E-01 0.44897007E+03</pdfrwt>
<totfact> 0.58218560E+04</totfact>
</mgrwt>
</event>
<event>
 7    0  0.4752811E-002  0.4570138E+03  0.7546771E-02  0.1025651E+00
         21   -1    0    0  502  501  0.00000000000E+00  0.00000000000E+00  0.96597595051E+03  0.96597595051E+03  0.00000000000E+00 0.  1.
         21   -1    0    0  501  502 -0.00000000000E+00 -0.00000000000E+00 -0.54054559438E+02  0.54054559438E+02  0.00000000000E+00 0.  1.
      99926    2    1    2    0    0  0.00000000000E+00  0.00000000000E+00  0.91192139107E+03  0.10200305100E+04  0.45701380475E+03 0.  0.
      99925    2    3    3    0    0 -0.58390406689E+02  0.11026259775E+02  0.79269043334E+03  0.83728875944E+03  0.26298921190E+03 0.  0.
         25    1    3    3    0    0  0.58390406689E+02 -0.11026259775E+02  0.11923095773E+03  0.18274175051E+03  0.12509000000E+03 0.  0.
         25    1    4    4    0    0 -0.25362594521E+02  0.37946452310E+02  0.32321158541E+03  0.34956606169E+03  0.12509000000E+03 0.  0.
         25    1    4    4    0    0 -0.33027812168E+02 -0.26920192536E+02  0.46947884793E+03  0.48772269775E+03  0.12509000000E+03 0.  0.
<mgrwt>
<rscale>  2 0.45701380E+03</rscale>
<asrwt>0</asrwt>
<pdfrwt beam="1">  1       21 0.14205528E+00 0.45701380E+03</pdfrwt>
<pdfrwt beam="2">  1       21 0.79492005E-02 0.45701380E+03</pdfrwt>
<totfact> 0.37798786E+04</totfact>
</mgrwt>
</event>
<event>
 7    0  0.4752811E-002  0.4546401E+03  0.7546771E-02  0.1026347E+00
         21   -1    0    0  502  501  0.00000000000E+00  0.00000000000E+00  0.65800829936E+03  0.65800829936E+03  0.00000000000E+00 0. -1.
         21   -1    0    0  501  502 -0.00000000000E+00 -0.00000000000E+00 -0.78531531130E+02  0.78531531130E+02  0.00000000000E+00 0. -1.
      99926    2    1    2    0    0 -0.14210854715E-13  0.00000000000E+00  0.57947676823E+03  0.73653983049E+03  0.45464007410E+03 0.  0.
      99925    2    3    3    0    0 -0.80989197879E+02 -0.74413910480E+02  0.32434971377E+03  0.43185310242E+03  0.26305452857E+03 0.  0.
         25    1    4    4    0    0 -0.17710215382E+02 -0.18733313977E+02  0.19524489884E+03  0.23330809545E+03  0.12509000000E+03 0.  0.
         25    1    3    3    0    0  0.80989197879E+02  0.74413910480E+02  0.25512705446E+03  0.30468672807E+03  0.12509000000E+03 0.  0.
         25    1    4    4    0    0 -0.63278982497E+02 -0.55680596503E+02  0.12910481494E+03  0.19854500697E+03  0.12509000000E+03 0.  0.
<mgrwt>
<rscale>  2 0.45464007E+03</rscale>
<asrwt>0</asrwt>
<pdfrwt beam="1">  1       21 0.96765923E-01 0.45464007E+03</pdfrwt>
<pdfrwt beam="2">  1       21 0.11548755E-01 0.45464007E+03</pdfrwt>
<totfact> 0.51108064E+04</totfact>
</mgrwt>
</event>
<event>
 7    0  0.4752811E-002  0.4389533E+03  0.7546771E-02  0.1031068E+00
         21   -1    0    0  502  501  0.00000000000E+00  0.00000000000E+00  0.58011107469E+02  0.58011107469E+02  0.00000000000E+00 0. -1.
         21   -1    0    0  501  502 -0.00000000000E+00 -0.00000000000E+00 -0.83035812504E+03  0.83035812504E+03  0.00000000000E+00 0. -1.
      99926    2    1    2    0    0  0.00000000000E+00  0.35527136788E-14 -0.77234701757E+03  0.88836923251E+03  0.43895327510E+03 0.  0.
      99925    2    3    3    0    0 -0.36956064856E+02 -0.25254204100E+02 -0.31814936595E+03  0.41513933025E+03  0.26290325010E+03 0.  0.
         25    1    4    4    0    0 -0.19939404577E+02  0.22871247135E+02 -0.12497185843E+03  0.17940498126E+03  0.12509000000E+03 0.  0.
         25    1    3    3    0    0  0.36956064856E+02  0.25254204100E+02 -0.45419765162E+03  0.47322990226E+03  0.12509000000E+03 0.  0.
         25    1    4    4    0    0 -0.17016660278E+02 -0.48125451235E+02 -0.19317750752E+03  0.23573434899E+03  0.12509000000E+03 0.  0.
<mgrwt>
<rscale>  2 0.43895328E+03</rscale>
<asrwt>0</asrwt>
<pdfrwt beam="1">  1       21 0.85310456E-02 0.43895328E+03</pdfrwt>
<pdfrwt beam="2">  1       21 0.12211148E+00 0.43895328E+03</pdfrwt>
<totfact> 0.49694925E+04</totfact>
</mgrwt>
</event>
<event>
 7    0  0.4752811E-002  0.4549808E+03  0.7546771E-02  0.1026247E+00
         21   -1    0    0  502  501  0.00000000000E+00  0.00000000000E+00  0.12471736111E+03  0.12471736111E+03  0.00000000000E+00 0.  1.
         21   -1    0    0  501  502 -0.00000000000E+00 -0.00000000000E+00 -0.41495326889E+03  0.41495326889E+03  0.00000000000E+00 0.  1.
      99926    2    1    2    0    0  0.00000000000E+00  0.14210854715E-13 -0.29023590778E+03  0.53967063000E+03  0.45498077621E+03 0.  0.
      99925    2    3    3    0    0 -0.57775706172E+02 -0.96343080209E+02 -0.19880727933E+03  0.34828953499E+03  0.26298525537E+03 0.  0.
         25    1    3    3    0    0  0.57775706172E+02  0.96343080209E+02 -0.91428628451E+02  0.19138109501E+03  0.12509000000E+03 0.  0.
         25    1    4    4    0    0 -0.65263164990E+02 -0.66304959284E+02 -0.92789817991E+02  0.18141964269E+03  0.12509000000E+03 0.  0.
         25    1    4    4    0    0  0.74874588182E+01 -0.30038120925E+02 -0.10601746134E+03  0.16686989230E+03  0.12509000000E+03 0.  0.
<mgrwt>
<rscale>  2 0.45498078E+03</rscale>
<asrwt>0</asrwt>
<pdfrwt beam="1">  1       21 0.18340788E-01 0.45498078E+03</pdfrwt>
<pdfrwt beam="2">  1       21 0.61022540E-01 0.45498078E+03</pdfrwt>
<totfact> 0.62563807E+04</totfact>
</mgrwt>
</event>
<event>
 7    0  0.4752811E-002  0.4538532E+03  0.7546771E-02  0.1026579E+00
         21   -1    0    0  502  501  0.00000000000E+00  0.00000000000E+00  0.17711902674E+03  0.17711902674E+03  0.00000000000E+00 0.  1.
         21   -1    0    0  501  502 -0.00000000000E+00 -0.00000000000E+00 -0.29074048043E+03  0.29074048043E+03  0.00000000000E+00 0.  1.
      99926    2    1    2    0    0  0.14210854715E-13 -0.71054273576E-14 -0.11362145369E+03  0.46785950717E+03  0.45385315214E+03 0.  0.
      99925    2    3    3    0    0  0.10367130953E+03 -0.41711165629E+02 -0.80028830416E+02  0.29679363039E+03  0.26304806326E+03 0.  0.
         25    1    3    3    0    0 -0.10367130953E+03  0.41711165629E+02 -0.33592623276E+02  0.17106587677E+03  0.12509000000E+03 0.  0.
         25    1    4    4    0    0  0.71836998201E+02 -0.56593333317E+02 -0.31695868365E+02  0.15816287762E+03  0.12509000000E+03 0.  0.
         25    1    4    4    0    0  0.31834311331E+02  0.14882167689E+02 -0.48332962051E+02  0.13863075277E+03  0.12509000000E+03 0.  0.
<mgrwt>
<rscale>  2 0.45385315E+03</rscale>
<asrwt>0</asrwt>
<pdfrwt beam="1">  1       21 0.26046916E-01 0.45385315E+03</pdfrwt>
<pdfrwt beam="2">  1       21 0.42755953E-01 0.45385315E+03</pdfrwt>
<totfact> 0.68213763E+04</totfact>
</mgrwt>
</event>
<event>
 7    0  0.4752811E-002  0.4546002E+03  0.7546771E-02  0.1026359E+00
         21   -1    0    0  502  501  0.00000000000E+00  0.00000000000E+00  0.26042195869E+03  0.26042195869E+03  0.00000000000E+00 0.  1.
         21   -1    0    0  501  502 -0.00000000000E+00 -0.00000000000E+00 -0.19839083023E+03  0.19839083023E+03  0.00000000000E+00 0.  1.
      99926    2    1    2    0    0  0.14210854715E-13  0.14210854715E-13  0.62031128459E+02  0.45881278893E+03  0.45460016980E+03 0.  0.
      99925    2    3    3    0    0  0.69481080491E+02  0.69399553652E+02 -0.16995644999E+02  0.28122715433E+03  0.26297517333E+03 0.  0.
         25    1    4    4    0    0  0.39801951820E+02  0.22529490517E+02  0.30030087615E+02  0.13653236823E+03  0.12509000000E+03 0.  0.
         25    1    4    4    0    0  0.29679128671E+02  0.46870063135E+02 -0.47025732614E+02  0.14469478610E+03  0.12509000000E+03 0.  0.
         25    1    3    3    0    0 -0.69481080491E+02 -0.69399553652E+02  0.79026773457E+02  0.17758563460E+03  0.12509000000E+03 0.  0.
<mgrwt>
<rscale>  2 0.45460017E+03</rscale>
<asrwt>0</asrwt>
<pdfrwt beam="1">  1       21 0.38297347E-01 0.45460017E+03</pdfrwt>
<pdfrwt beam="2">  1       21 0.29175122E-01 0.45460017E+03</pdfrwt>
<totfact> 0.68485286E+04</totfact>
</mgrwt>
</event>
<event>
 7    0  0.4752811E-002  0.4566470E+03  0.7546771E-02  0.1025758E+00
         21   -1    0    0  502  501  0.00000000000E+00  0.00000000000E+00  0.76026017271E+03  0.76026017271E+03  0.00000000000E+00 0. -1.
         21   -1    0    0  501  502 -0.00000000000E+00 -0.00000000000E+00 -0.68570766816E+02  0.68570766816E+02  0.00000000000E+00 0. -1.
      99926    2    1    2    0    0  0.00000000000E+00  0.00000000000E+00  0.69168940589E+03  0.82883093953E+03  0.45664701038E+03 0.  0.
      99925    2    3    3    0    0 -0.10535091988E+03  0.73567700332E+01  0.35331703037E+03  0.45293692387E+03  0.26299428639E+03 0.  0.
         25    1    4    4    0    0 -0.87932912761E+02  0.81467865221E+01  0.15546567819E+03  0.21821011084E+03  0.12509000000E+03 0.  0.
         25    1    4    4    0    0 -0.17418007122E+02 -0.79001648894E+00  0.19785135217E+03  0.23472681303E+03  0.12509000000E+03 0.  0.
         25    1    3    3    0    0  0.10535091988E+03 -0.73567700332E+01  0.33837237553E+03  0.37589401566E+03  0.12509000000E+03 0.  0.
<mgrwt>
<rscale>  2 0.45664701E+03</rscale>
<asrwt>0</asrwt>
<pdfrwt beam="1">  1       21 0.11180296E+00 0.45664701E+03</pdfrwt>
<pdfrwt beam="2">  1       21 0.10083937E-01 0.45664701E+03</pdfrwt>
<totfact> 0.45806876E+04</totfact>
</mgrwt>
</event>
<event>
 7    0  0.4752811E-002  0.4520571E+03  0.7546771E-02  0.1027110E+00
         21   -1    0    0  502  501  0.00000000000E+00  0.00000000000E+00  0.48374314716E+02  0.48374314716E+02  0.00000000000E+00 0. -1.
         21   -1    0    0  501  502 -0.00000000000E+00 -0.00000000000E+00 -0.10561163013E+04  0.10561163013E+04  0.00000000000E+00 0. -1.
      99926    2    1    2    0    0  0.00000000000E+00  0.00000000000E+00 -0.10077419866E+04  0.11044906161E+04  0.45205708639E+03 0.  0.
      99925    2    3    3    0    0  0.38984980018E+02 -0.84532884619E+02 -0.49126740207E+03  0.56499164309E+03  0.26307082538E+03 0.  0.
         25    1    4    4    0    0  0.33405862812E+02 -0.78266680134E+02 -0.30500921378E+03  0.34046990099E+03  0.12509000000E+03 0.  0.
         25    1    4    4    0    0  0.55791172060E+01 -0.62662044842E+01 -0.18625818829E+03  0.22452174210E+03  0.12509000000E+03 0.  0.
         25    1    3    3    0    0 -0.38984980018E+02  0.84532884619E+02 -0.51647458456E+03  0.53949897297E+03  0.12509000000E+03 0.  0.
<mgrwt>
<rscale>  2 0.45205709E+03</rscale>
<asrwt>0</asrwt>
<pdfrwt beam="1">  1       21 0.71138697E-02 0.45205709E+03</pdfrwt>
<pdfrwt beam="2">  1       21 0.15531122E+00 0.45205709E+03</pdfrwt>
<totfact> 0.36161214E+04</totfact>
</mgrwt>
</event>
<event>
 7    0  0.4752811E-002  0.4768611E+03  0.7546771E-02  0.1020001E+00
         21   -1    0    0  502  501  0.00000000000E+00  0.00000000000E+00  0.29021783305E+03  0.29021783305E+03  0.00000000000E+00 0.  1.
         21   -1    0    0  501  502 -0.00000000000E+00 -0.00000000000E+00 -0.19588431116E+03  0.19588431116E+03  0.00000000000E+00 0.  1.
      99926    2    1    2    0    0 -0.13322676296E-14  0.14210854715E-13  0.94333521893E+02  0.48610214421E+03  0.47686107123E+03 0.  0.
      99925    2    3    3    0    0  0.29019737277E+01 -0.12723823649E+03  0.96430649901E+02  0.30763675171E+03  0.26295153638E+03 0.  0.
         25    1    4    4    0    0  0.31355645596E+02 -0.89204615128E+02  0.67624043980E+02  0.17076638807E+03  0.12509000000E+03 0.  0.
         25    1    4    4    0    0 -0.28453671868E+02 -0.38033621364E+02  0.28806605921E+02  0.13687036363E+03  0.12509000000E+03 0.  0.
         25    1    3    3    0    0 -0.29019737277E+01  0.12723823649E+03 -0.20971280078E+01  0.17846539251E+03  0.12509000000E+03 0.  0.
<mgrwt>
<rscale>  2 0.47686107E+03</rscale>
<asrwt>0</asrwt>
<pdfrwt beam="1">  1       21 0.42679093E-01 0.47686107E+03</pdfrwt>
<pdfrwt beam="2">  1       21 0.28806516E-01 0.47686107E+03</pdfrwt>
<totfact> 0.55906420E+04</totfact>
</mgrwt>
</event>
<event>
 7    0  0.4752811E-002  0.4588376E+03  0.7546771E-02  0.1025119E+00
         21   -1    0    0  502  501  0.00000000000E+00  0.00000000000E+00  0.10527028737E+04  0.10527028737E+04  0.00000000000E+00 0. -1.
         21   -1    0    0  501  502 -0.00000000000E+00 -0.00000000000E+00 -0.49997946888E+02  0.49997946888E+02  0.00000000000E+00 0. -1.
      99926    2    1    2    0    0 -0.14210854715E-13  0.00000000000E+00  0.10027049268E+04  0.11027008205E+04  0.45883758506E+03 0.  0.
      99925    2    3    3    0    0 -0.10697738044E+03  0.45474479911E+02  0.65513173847E+03  0.71544545574E+03  0.26296866188E+03 0.  0.
         25    1    4    4    0    0 -0.94435859838E+02  0.37374469753E+02  0.34865082182E+03  0.38408317624E+03  0.12509000000E+03 0.  0.
         25    1    4    4    0    0 -0.12541520603E+02  0.81000101583E+01  0.30648091665E+03  0.33136227950E+03  0.12509000000E+03 0.  0.
         25    1    3    3    0    0  0.10697738044E+03 -0.45474479911E+02  0.34757318829E+03  0.38725536480E+03  0.12509000000E+03 0.  0.
<mgrwt>
<rscale>  2 0.45883759E+03</rscale>
<asrwt>0</asrwt>
<pdfrwt beam="1">  1       21 0.15480923E+00 0.45883759E+03</pdfrwt>
<pdfrwt beam="2">  1       21 0.73526399E-02 0.45883759E+03</pdfrwt>
<totfact> 0.34360488E+04</totfact>
</mgrwt>
</event>
<event>
 7    0  0.4752811E-002  0.5114782E+03  0.7546771E-02  0.1010826E+00
         21   -1    0    0  502  501  0.00000000000E+00  0.00000000000E+00  0.45921895320E+03  0.45921895320E+03  0.00000000000E+00 0. -1.
         21   -1    0    0  501  502 -0.00000000000E+00 -0.00000000000E+00 -0.14242116651E+03  0.14242116651E+03  0.00000000000E+00 0. -1.
      99926    2    1    2    0    0  0.14210854715E-13 -0.14210854715E-13  0.31679778669E+03  0.60164011971E+03  0.51147824586E+03 0.  0.
      99925    2    3    3    0    0  0.10178909524E+03 -0.11061353401E+03  0.12529345888E+03  0.32792897729E+03  0.26313986678E+03 0.  0.
         25    1    4    4    0    0  0.22293485762E+02 -0.47060314410E+02  0.90541487327E+02  0.16296300724E+03  0.12509000000E+03 0.  0.
         25    1    4    4    0    0  0.79495609476E+02 -0.63553219601E+02  0.34751971554E+02  0.16496597005E+03  0.12509000000E+03 0.  0.
         25    1    3    3    0    0 -0.10178909524E+03  0.11061353401E+03  0.19150432781E+03  0.27371114242E+03  0.12509000000E+03 0.  0.
<mgrwt>
<rscale>  2 0.51147825E+03</rscale>
<asrwt>0</asrwt>
<pdfrwt beam="1">  1       21 0.67532198E-01 0.51147825E+03</pdfrwt>
<pdfrwt beam="2">  1       21 0.20944289E-01 0.51147825E+03</pdfrwt>
<totfact> 0.38358183E+04</totfact>
</mgrwt>
</event>
<event>
 7    0  0.4752811E-002  0.4556194E+03  0.7546771E-02  0.1026059E+00
         21   -1    0    0  502  501  0.00000000000E+00  0.00000000000E+00  0.43043940334E+02  0.43043940334E+02  0.00000000000E+00 0.  1.
         21   -1    0    0  501  502 -0.00000000000E+00 -0.00000000000E+00 -0.12056807221E+04  0.12056807221E+04  0.00000000000E+00 0.  1.
      99926    2    1    2    0    0  0.14210854715E-13  0.17763568394E-14 -0.11626367817E+04  0.12487246624E+04  0.45561935456E+03 0.  0.
      99925    2    3    3    0    0 -0.67531861945E+02 -0.14164580875E+02 -0.48330480938E+03  0.55453403693E+03  0.26298910931E+03 0.  0.
         25    1    3    3    0    0  0.67531861945E+02  0.14164580875E+02 -0.67933197236E+03  0.69419062548E+03  0.12509000000E+03 0.  0.
         25    1    4    4    0    0 -0.26797455488E+02  0.32937863503E+02 -0.24052817960E+03  0.27441632560E+03  0.12509000000E+03 0.  0.
         25    1    4    4    0    0 -0.40734406457E+02 -0.47102444378E+02 -0.24277662978E+03  0.28011771133E+03  0.12509000000E+03 0.  0.
<mgrwt>
<rscale>  2 0.45561935E+03</rscale>
<asrwt>0</asrwt>
<pdfrwt beam="1">  1       21 0.63299904E-02 0.45561935E+03</pdfrwt>
<pdfrwt beam="2">  1       21 0.17730601E+00 0.45561935E+03</pdfrwt>
<totfact> 0.30493650E+04</totfact>
</mgrwt>
</event>
<event>
 7    0  0.4752811E-002  0.4567215E+03  0.7546771E-02  0.1025736E+00
         21   -1    0    0  502  501  0.00000000000E+00  0.00000000000E+00  0.40148461543E+02  0.40148461543E+02  0.00000000000E+00 0.  1.
         21   -1    0    0  501  502 -0.00000000000E+00 -0.00000000000E+00 -0.12988950485E+04  0.12988950485E+04  0.00000000000E+00 0.  1.
      99926    2    1    2    0    0  0.00000000000E+00  0.00000000000E+00 -0.12587465870E+04  0.13390435101E+04  0.45672152524E+03 0.  0.
      99925    2    3    3    0    0  0.61369432844E+02  0.71484052336E+02 -0.59937611875E+03  0.66133184608E+03  0.26311955816E+03 0.  0.
         25    1    4    4    0    0  0.68380725411E+02  0.34142604477E+02 -0.35746866645E+03  0.38635863733E+03  0.12509000000E+03 0.  0.
         25    1    4    4    0    0 -0.70112925665E+01  0.37341447859E+02 -0.24190745230E+03  0.27497320875E+03  0.12509000000E+03 0.  0.
         25    1    3    3    0    0 -0.61369432844E+02 -0.71484052336E+02 -0.65937046826E+03  0.67771166401E+03  0.12509000000E+03 0.  0.
<mgrwt>
<rscale>  2 0.45672153E+03</rscale>
<asrwt>0</asrwt>
<pdfrwt beam="1">  1       21 0.59041854E-02 0.45672153E+03</pdfrwt>
<pdfrwt beam="2">  1       21 0.19101398E+00 0.45672153E+03</pdfrwt>
<totfact> 0.27629912E+04</totfact>
</mgrwt>
</event>
<event>
 7    0  0.4752811E-002  0.4402911E+03  0.7546771E-02  0.1030658E+00
         21   -1    0    0  502  501  0.00000000000E+00  0.00000000000E+00  0.28163913217E+03  0.28163913217E+03  0.00000000000E+00 0.  1.
         21   -1    0    0  501  502 -0.00000000000E+00 -0.00000000000E+00 -0.17207861580E+03  0.17207861580E+03  0.00000000000E+00 0.  1.
      99926    2    1    2    0    0 -0.71054273576E-14 -0.71054273576E-14  0.10956051637E+03  0.45371774797E+03  0.44029114012E+03 0.  0.
      99925    2    3    3    0    0  0.57671780793E+02 -0.40199250077E+02  0.14139732011E+03  0.30673780315E+03  0.26296932091E+03 0.  0.
         25    1    3    3    0    0 -0.57671780793E+02  0.40199250077E+02 -0.31836803738E+02  0.14697994482E+03  0.12509000000E+03 0.  0.
         25    1    4    4    0    0 -0.11511941113E+02 -0.22066548072E+02  0.56515228578E+02  0.13950246053E+03  0.12509000000E+03 0.  0.
         25    1    4    4    0    0  0.69183721905E+02 -0.18132702005E+02  0.84882091531E+02  0.16723534262E+03  0.12509000000E+03 0.  0.
<mgrwt>
<rscale>  2 0.44029114E+03</rscale>
<asrwt>0</asrwt>
<pdfrwt beam="1">  1       21 0.41417519E-01 0.44029114E+03</pdfrwt>
<pdfrwt beam="2">  1       21 0.25305679E-01 0.44029114E+03</pdfrwt>
<totfact> 0.77298583E+04</totfact>
</mgrwt>
</event>
<event>
 7    0  0.4752811E-002  0.4494341E+03  0.7546771E-02  0.1027891E+00
         21   -1    0    0  502  501  0.00000000000E+00  0.00000000000E+00  0.18228739921E+03  0.18228739921E+03  0.00000000000E+00 0.  1.
         21   -1    0    0  501  502 -0.00000000000E+00 -0.00000000000E+00 -0.27702274572E+03  0.27702274572E+03  0.00000000000E+00 0.  1.
      99926    2    1    2    0    0  0.00000000000E+00  0.00000000000E+00 -0.94735346514E+02  0.45931014493E+03  0.44943411459E+03 0.  0.
      99925    2    3    3    0    0 -0.64256261943E+02  0.14483267306E+02 -0.14728746015E+03  0.30848619134E+03  0.26292870155E+03 0.  0.
         25    1    4    4    0    0 -0.49536936920E+02  0.31105900133E+02 -0.10860773047E+03  0.17568332977E+03  0.12509000000E+03 0.  0.
         25    1    3    3    0    0  0.64256261943E+02 -0.14483267306E+02  0.52552113638E+02  0.15082395360E+03  0.12509000000E+03 0.  0.
         25    1    4    4    0    0 -0.14719325023E+02 -0.16622632827E+02 -0.38679729685E+02  0.13280286156E+03  0.12509000000E+03 0.  0.
<mgrwt>
<rscale>  2 0.44943411E+03</rscale>
<asrwt>0</asrwt>
<pdfrwt beam="1">  1       21 0.26806971E-01 0.44943411E+03</pdfrwt>
<pdfrwt beam="2">  1       21 0.40738639E-01 0.44943411E+03</pdfrwt>
<totfact> 0.71337521E+04</totfact>
</mgrwt>
</event>
<event>
 7    0  0.4752811E-002  0.4566246E+03  0.7546771E-02  0.1025765E+00
         21   -1    0    0  502  501  0.00000000000E+00  0.00000000000E+00  0.72678318569E+03  0.72678318569E+03  0.00000000000E+00 0. -1.
         21   -1    0    0  501  502 -0.00000000000E+00 -0.00000000000E+00 -0.71722209006E+02  0.71722209006E+02  0.00000000000E+00 0. -1.
      99926    2    1    2    0    0  0.00000000000E+00  0.00000000000E+00  0.65506097669E+03  0.79850539470E+03  0.45662455276E+03 0.  0.
      99925    2    3    3    0    0  0.90139443431E+02 -0.70694064113E+02  0.42021740399E+03  0.50881283059E+03  0.26303053054E+03 0.  0.
         25    1    4    4    0    0  0.69138843413E+02 -0.34751402553E+02  0.16150910382E+03  0.21845031098E+03  0.12509000000E+03 0.  0.
         25    1    4    4    0    0  0.21000600018E+02 -0.35942661560E+02  0.25870830016E+03  0.29036251961E+03  0.12509000000E+03 0.  0.
         25    1    3    3    0    0 -0.90139443431E+02  0.70694064113E+02  0.23484357270E+03  0.28969256411E+03  0.12509000000E+03 0.  0.
<mgrwt>
<rscale>  2 0.45662455E+03</rscale>
<asrwt>0</asrwt>
<pdfrwt beam="1">  1       21 0.10687988E+00 0.45662455E+03</pdfrwt>
<pdfrwt beam="2">  1       21 0.10547384E-01 0.45662455E+03</pdfrwt>
<totfact> 0.47232126E+04</totfact>
</mgrwt>
</event>
<event>
 7    0  0.4752811E-002  0.4548307E+03  0.7546771E-02  0.1026291E+00
         21   -1    0    0  502  501  0.00000000000E+00  0.00000000000E+00  0.50592918019E+03  0.50592918019E+03  0.00000000000E+00 0. -1.
         21   -1    0    0  501  502 -0.00000000000E+00 -0.00000000000E+00 -0.10222330033E+03  0.10222330033E+03  0.00000000000E+00 0. -1.
      99926    2    1    2    0    0  0.00000000000E+00  0.35527136788E-14  0.40370587986E+03  0.60815248051E+03  0.45483074008E+03 0.  0.
      99925    2    3    3    0    0 -0.59564218136E+02  0.28982180795E+02  0.13155825702E+03  0.30139573714E+03  0.26295237685E+03 0.  0.
         25    1    4    4    0    0 -0.44231267291E+02 -0.14832150312E+02  0.92331072228E+02  0.16232354323E+03  0.12509000000E+03 0.  0.
         25    1    4    4    0    0 -0.15332950844E+02  0.43814331107E+02  0.39227184796E+02  0.13907219391E+03  0.12509000000E+03 0.  0.
         25    1    3    3    0    0  0.59564218136E+02 -0.28982180795E+02  0.27214762284E+03  0.30675674337E+03  0.12509000000E+03 0.  0.
<mgrwt>
<rscale>  2 0.45483074E+03</rscale>
<asrwt>0</asrwt>
<pdfrwt beam="1">  1       21 0.74401349E-01 0.45483074E+03</pdfrwt>
<pdfrwt beam="2">  1       21 0.15032839E-01 0.45483074E+03</pdfrwt>
<totfact> 0.58257102E+04</totfact>
</mgrwt>
</event>
<event>
 7    0  0.4752811E-002  0.4539921E+03  0.7546771E-02  0.1026538E+00
         21   -1    0    0  502  501  0.00000000000E+00  0.00000000000E+00  0.92343131315E+02  0.92343131315E+02  0.00000000000E+00 0.  1.
         21   -1    0    0  501  502 -0.00000000000E+00 -0.00000000000E+00 -0.55799729862E+03  0.55799729862E+03  0.00000000000E+00 0.  1.
      99926    2    1    2    0    0  0.00000000000E+00  0.00000000000E+00 -0.46565416730E+03  0.65034042993E+03  0.45399214892E+03 0.  0.
      99925    2    3    3    0    0 -0.12821312068E+02  0.91595482011E+02 -0.20206314135E+03  0.34426551193E+03  0.26293556481E+03 0.  0.
         25    1    3    3    0    0  0.12821312068E+02 -0.91595482011E+02 -0.26359102595E+03  0.30607491800E+03  0.12509000000E+03 0.  0.
         25    1    4    4    0    0  0.33266849500E+02  0.36543666138E+02 -0.97609995696E+02  0.16618466286E+03  0.12509000000E+03 0.  0.
         25    1    4    4    0    0 -0.46088161568E+02  0.55051815872E+02 -0.10445314565E+03  0.17808084907E+03  0.12509000000E+03 0.  0.
<mgrwt>
<rscale>  2 0.45399215E+03</rscale>
<asrwt>0</asrwt>
<pdfrwt beam="1">  1       21 0.13579873E-01 0.45399215E+03</pdfrwt>
<pdfrwt beam="2">  1       21 0.82058424E-01 0.45399215E+03</pdfrwt>
<totfact> 0.56126804E+04</totfact>
</mgrwt>
</event>
<event>
 7    0  0.4752811E-002  0.4269895E+03  0.7546771E-02  0.1034815E+00
         21   -1    0    0  502  501  0.00000000000E+00  0.00000000000E+00  0.16936767984E+03  0.16936767984E+03  0.00000000000E+00 0.  1.
         21   -1    0    0  501  502 -0.00000000000E+00 -0.00000000000E+00 -0.26911871044E+03  0.26911871044E+03  0.00000000000E+00 0.  1.
      99926    2    1    2    0    0  0.00000000000E+00 -0.35527136788E-14 -0.99751030601E+02  0.43848639027E+03  0.42698951550E+03 0.  0.
      99925    2    3    3    0    0 -0.36041835894E+02  0.20744538014E+02 -0.13978211646E+03  0.30072084405E+03  0.26299170362E+03 0.  0.
         25    1    4    4    0    0 -0.17287554772E+02  0.42996424739E+02 -0.98484586328E+02  0.16581397388E+03  0.12509000000E+03 0.  0.
         25    1    4    4    0    0 -0.18754281122E+02 -0.22251886725E+02 -0.41297530130E+02  0.13490687017E+03  0.12509000000E+03 0.  0.
         25    1    3    3    0    0  0.36041835894E+02 -0.20744538014E+02  0.40031085858E+02  0.13776554623E+03  0.12509000000E+03 0.  0.
<mgrwt>
<rscale>  2 0.42698952E+03</rscale>
<asrwt>0</asrwt>
<pdfrwt beam="1">  1       21 0.24907012E-01 0.42698952E+03</pdfrwt>
<pdfrwt beam="2">  1       21 0.39576281E-01 0.42698952E+03</pdfrwt>
<totfact> 0.87796108E+04</totfact>
</mgrwt>
</event>
<event>
 7    0  0.4752811E-002  0.4557533E+03  0.7546771E-02  0.1026020E+00
         21   -1    0    0  502  501  0.00000000000E+00  0.00000000000E+00  0.58296096941E+03  0.58296096941E+03  0.00000000000E+00 0. -1.
         21   -1    0    0  501  502 -0.00000000000E+00 -0.00000000000E+00 -0.89075892762E+02  0.89075892762E+02  0.00000000000E+00 0. -1.
      99926    2    1    2    0    0 -0.26645352591E-14 -0.71054273576E-14  0.49388507665E+03  0.67203686217E+03  0.45575330518E+03 0.  0.
      99925    2    3    3    0    0  0.53582412805E+01  0.45109263217E+02  0.46436059763E+03  0.53571826719E+03  0.26324843929E+03 0.  0.
         25    1    3    3    0    0 -0.53582412805E+01 -0.45109263217E+02  0.29524479019E+02  0.13631859499E+03  0.12509000000E+03 0.  0.
         25    1    4    4    0    0 -0.22653654540E+02  0.52667041347E+02  0.21558583619E+03  0.25575724070E+03  0.12509000000E+03 0.  0.
         25    1    4    4    0    0  0.28011895821E+02 -0.75577781300E+01  0.24877476144E+03  0.27996102648E+03  0.12509000000E+03 0.  0.
<mgrwt>
<rscale>  2 0.45575331E+03</rscale>
<asrwt>0</asrwt>
<pdfrwt beam="1">  1       21 0.85729553E-01 0.45575331E+03</pdfrwt>
<pdfrwt beam="2">  1       21 0.13099396E-01 0.45575331E+03</pdfrwt>
<totfact> 0.54125717E+04</totfact>
</mgrwt>
</event>
<event>
 7    0  0.4752811E-002  0.4562250E+03  0.7546771E-02  0.1025882E+00
         21   -1    0    0  502  501  0.00000000000E+00  0.00000000000E+00  0.33488611273E+02  0.33488611273E+02  0.00000000000E+00 0. -1.
         21   -1    0    0  501  502 -0.00000000000E+00 -0.00000000000E+00 -0.15538213983E+04  0.15538213983E+04  0.00000000000E+00 0. -1.
      99926    2    1    2    0    0  0.00000000000E+00  0.00000000000E+00 -0.15203327870E+04  0.15873100096E+04  0.45622503568E+03 0.  0.
      99925    2    3    3    0    0 -0.71419039445E+02 -0.57621144377E+02 -0.11928844607E+04  0.12249692998E+04  0.26297447270E+03 0.  0.
         25    1    4    4    0    0 -0.31975251600E+02 -0.53142768219E+02 -0.75654925843E+03  0.76932493724E+03  0.12509000000E+03 0.  0.
         25    1    3    3    0    0  0.71419039445E+02  0.57621144377E+02 -0.32744832628E+03  0.36234070977E+03  0.12509000000E+03 0.  0.
         25    1    4    4    0    0 -0.39443787845E+02 -0.44783761587E+01 -0.43633520232E+03  0.45564436256E+03  0.12509000000E+03 0.  0.
<mgrwt>
<rscale>  2 0.45622504E+03</rscale>
<asrwt>0</asrwt>
<pdfrwt beam="1">  1       21 0.49247964E-02 0.45622504E+03</pdfrwt>
<pdfrwt beam="2">  1       21 0.22850312E+00 0.45622504E+03</pdfrwt>
<totfact> 0.21512637E+04</totfact>
</mgrwt>
</event>
<event>
 7    0  0.4752811E-002  0.4467429E+03  0.7546771E-02  0.1028698E+00
         21   -1    0    0  502  501  0.00000000000E+00  0.00000000000E+00  0.68792754032E+02  0.68792754032E+02  0.00000000000E+00 0.  1.
         21   -1    0    0  501  502 -0.00000000000E+00 -0.00000000000E+00 -0.72529156128E+03  0.72529156128E+03  0.00000000000E+00 0.  1.
      99926    2    1    2    0    0  0.00000000000E+00  0.00000000000E+00 -0.65649880725E+03  0.79408431531E+03  0.44674289687E+03 0.  0.
      99925    2    3    3    0    0 -0.60235884806E+02 -0.74255207278E+01 -0.56919434471E+03  0.62991039090E+03  0.26290948698E+03 0.  0.
         25    1    4    4    0    0 -0.27401434967E+02 -0.27438752848E+02 -0.36079294445E+03  0.38382649813E+03  0.12509000000E+03 0.  0.
         25    1    3    3    0    0  0.60235884806E+02  0.74255207278E+01 -0.87304462537E+02  0.16417392441E+03  0.12509000000E+03 0.  0.
         25    1    4    4    0    0 -0.32834449839E+02  0.20013232120E+02 -0.20840140026E+03  0.24608389278E+03  0.12509000000E+03 0.  0.
<mgrwt>
<rscale>  2 0.44674290E+03</rscale>
<asrwt>0</asrwt>
<pdfrwt beam="1">  1       21 0.10116582E-01 0.44674290E+03</pdfrwt>
<pdfrwt beam="2">  1       21 0.10666052E+00 0.44674290E+03</pdfrwt>
<totfact> 0.51296589E+04</totfact>
</mgrwt>
</event>
<event>
 7    0  0.4752811E-002  0.4522810E+03  0.7546771E-02  0.1027044E+00
         21   -1    0    0  502  501  0.00000000000E+00  0.00000000000E+00  0.41111525650E+03  0.41111525650E+03  0.00000000000E+00 0. -1.
         21   -1    0    0  501  502 -0.00000000000E+00 -0.00000000000E+00 -0.12439218429E+03  0.12439218429E+03  0.00000000000E+00 0. -1.
      99926    2    1    2    0    0  0.00000000000E+00 -0.26645352591E-14  0.28672307221E+03  0.53550744079E+03  0.45228099563E+03 0.  0.
      99925    2    3    3    0    0 -0.86296873825E+02  0.87768213168E+00  0.26266809113E+03  0.38164363422E+03  0.26307682659E+03 0.  0.
         25    1    4    4    0    0 -0.32520419824E+02 -0.38039929683E+02  0.13985865456E+03  0.19419723302E+03  0.12509000000E+03 0.  0.
         25    1    4    4    0    0 -0.53776454001E+02  0.38917611814E+02  0.12280943657E+03  0.18744640120E+03  0.12509000000E+03 0.  0.
         25    1    3    3    0    0  0.86296873825E+02 -0.87768213168E+00  0.24054981076E+02  0.15386380657E+03  0.12509000000E+03 0.  0.
<mgrwt>
<rscale>  2 0.45228100E+03</rscale>
<asrwt>0</asrwt>
<pdfrwt beam="1">  1       21 0.60458126E-01 0.45228100E+03</pdfrwt>
<pdfrwt beam="2">  1       21 0.18292968E-01 0.45228100E+03</pdfrwt>
<totfact> 0.64205070E+04</totfact>
</mgrwt>
</event>
<event>
 7    0  0.4752811E-002  0.4285622E+03  0.7546771E-02  0.1034315E+00
         21   -1    0    0  502  501  0.00000000000E+00  0.00000000000E+00  0.11600621888E+03  0.11600621888E+03  0.00000000000E+00 0. -1.
         21   -1    0    0  501  502 -0.00000000000E+00 -0.00000000000E+00 -0.39580974035E+03  0.39580974035E+03  0.00000000000E+00 0. -1.
      99926    2    1    2    0    0  0.00000000000E+00 -0.71054273576E-14 -0.27980352147E+03  0.51181595924E+03  0.42856220727E+03 0.  0.
      99925    2    3    3    0    0  0.26283446224E+02 -0.39031356294E+02 -0.26694916330E+03  0.37755126193E+03  0.26280949997E+03 0.  0.
         25    1    4    4    0    0  0.41230254002E+02 -0.47956920120E+02 -0.12858571310E+03  0.19021459919E+03  0.12509000000E+03 0.  0.
         25    1    3    3    0    0 -0.26283446224E+02  0.39031356294E+02 -0.12854358167E+02  0.13426469731E+03  0.12509000000E+03 0.  0.
         25    1    4    4    0    0 -0.14946807778E+02  0.89255638268E+01 -0.13836345021E+03  0.18733666274E+03  0.12509000000E+03 0.  0.
<mgrwt>
<rscale>  2 0.42856221E+03</rscale>
<asrwt>0</asrwt>
<pdfrwt beam="1">  1       21 0.17059738E-01 0.42856221E+03</pdfrwt>
<pdfrwt beam="2">  1       21 0.58207315E-01 0.42856221E+03</pdfrwt>
<totfact> 0.79928421E+04</totfact>
</mgrwt>
</event>
<event>
 7    0  0.4752811E-002  0.4578758E+03  0.7546771E-02  0.1025399E+00
         21   -1    0    0  502  501  0.00000000000E+00  0.00000000000E+00  0.18178273407E+03  0.18178273407E+03  0.00000000000E+00 0.  1.
         21   -1    0    0  501  502 -0.00000000000E+00 -0.00000000000E+00 -0.28832530278E+03  0.28832530278E+03  0.00000000000E+00 0.  1.
      99926    2    1    2    0    0  0.00000000000E+00  0.00000000000E+00 -0.10654256870E+03  0.47010803685E+03  0.45787579906E+03 0.  0.
      99925    2    3    3    0    0  0.76875186356E+02  0.33547345118E+02  0.15081520270E+02  0.27652305354E+03  0.26306335405E+03 0.  0.
         25    1    4    4    0    0  0.62416453805E+02  0.61517090714E+01  0.39413938231E+02  0.14537752184E+03  0.12509000000E+03 0.  0.
         25    1    4    4    0    0  0.14458732551E+02  0.27395636046E+02 -0.24332417961E+02  0.13114553170E+03  0.12509000000E+03 0.  0.
         25    1    3    3    0    0 -0.76875186356E+02 -0.33547345118E+02 -0.12162408897E+03  0.19358498330E+03  0.12509000000E+03 0.  0.
<mgrwt>
<rscale>  2 0.45787580E+03</rscale>
<asrwt>0</asrwt>
<pdfrwt beam="1">  1       21 0.26732755E-01 0.45787580E+03</pdfrwt>
<pdfrwt beam="2">  1       21 0.42400779E-01 0.45787580E+03</pdfrwt>
<totfact> 0.65911392E+04</totfact>
</mgrwt>
</event>
<event>
 7    0  0.4752811E-002  0.4621105E+03  0.7546771E-02  0.1024171E+00
         21   -1    0    0  502  501  0.00000000000E+00  0.00000000000E+00  0.28433104947E+03  0.28433104947E+03  0.00000000000E+00 0.  1.
         21   -1    0    0  501  502 -0.00000000000E+00 -0.00000000000E+00 -0.18776189694E+03  0.18776189694E+03  0.00000000000E+00 0.  1.
      99926    2    1    2    0    0  0.00000000000E+00 -0.71054273576E-14  0.96569152526E+02  0.47209294640E+03  0.46211053745E+03 0.  0.
      99925    2    3    3    0    0 -0.67734725961E+02  0.60619038146E+02 -0.19201069969E+02  0.27892743861E+03  0.26300033086E+03 0.  0.
         25    1    4    4    0    0 -0.44041250927E+02  0.59083328822E+02 -0.38374438555E+02  0.15016849590E+03  0.12509000000E+03 0.  0.
         25    1    3    3    0    0  0.67734725961E+02 -0.60619038146E+02  0.11577022250E+03  0.19316550780E+03  0.12509000000E+03 0.  0.
         25    1    4    4    0    0 -0.23693475034E+02  0.15357093243E+01  0.19173368586E+02  0.12875894270E+03  0.12509000000E+03 0.  0.
<mgrwt>
<rscale>  2 0.46211054E+03</rscale>
<asrwt>0</asrwt>
<pdfrwt beam="1">  1       21 0.41813390E-01 0.46211054E+03</pdfrwt>
<pdfrwt beam="2">  1       21 0.27612044E-01 0.46211054E+03</pdfrwt>
<totfact> 0.63614600E+04</totfact>
</mgrwt>
</event>
<event>
 7    0  0.4752811E-002  0.4556144E+03  0.7546771E-02  0.1026061E+00
         21   -1    0    0  502  501  0.00000000000E+00  0.00000000000E+00  0.62125238506E+03  0.62125238506E+03  0.00000000000E+00 0.  1.
         21   -1    0    0  501  502 -0.00000000000E+00 -0.00000000000E+00 -0.83534673461E+02  0.83534673461E+02  0.00000000000E+00 0.  1.
      99926    2    1    2    0    0  0.00000000000E+00  0.00000000000E+00  0.53771771160E+03  0.70478705852E+03  0.45561437696E+03 0.  0.
      99925    2    3    3    0    0 -0.71411951244E+02 -0.68043874449E+02  0.25082470328E+03  0.37663352441E+03  0.26307820947E+03 0.  0.
         25    1    4    4    0    0  0.33318912614E+01 -0.46128396280E+02  0.11142815156E+03  0.17378915819E+03  0.12509000000E+03 0.  0.
         25    1    4    4    0    0 -0.74743842505E+02 -0.21915478169E+02  0.13939655173E+03  0.20284436622E+03  0.12509000000E+03 0.  0.
         25    1    3    3    0    0  0.71411951244E+02  0.68043874449E+02  0.28689300831E+03  0.32815353411E+03  0.12509000000E+03 0.  0.
<mgrwt>
<rscale>  2 0.45561438E+03</rscale>
<asrwt>0</asrwt>
<pdfrwt beam="1">  1       21 0.91360643E-01 0.45561438E+03</pdfrwt>
<pdfrwt beam="2">  1       21 0.12284511E-01 0.45561438E+03</pdfrwt>
<totfact> 0.52390085E+04</totfact>
</mgrwt>
</event>
<event>
 7    0  0.4752811E-002  0.4540363E+03  0.7546771E-02  0.1026525E+00
         21   -1    0    0  502  501  0.00000000000E+00  0.00000000000E+00  0.25705729886E+04  0.25705729886E+04  0.00000000000E+00 0.  1.
         21   -1    0    0  501  502 -0.00000000000E+00 -0.00000000000E+00 -0.20048933729E+02  0.20048933729E+02  0.00000000000E+00 0.  1.
      99926    2    1    2    0    0  0.71054273576E-14  0.00000000000E+00  0.25505240549E+04  0.25906219223E+04  0.45403633112E+03 0.  0.
      99925    2    3    3    0    0 -0.32485979550E+02 -0.10471189705E+03  0.17443365364E+04  0.17674538087E+04  0.26298877054E+03 0.  0.
         25    1    4    4    0    0  0.14878220696E+02 -0.51482355628E+02  0.68565998370E+03  0.69903427365E+03  0.12509000000E+03 0.  0.
         25    1    4    4    0    0 -0.47364200246E+02 -0.53229541424E+02  0.10586765527E+04  0.10684195350E+04  0.12509000000E+03 0.  0.
         25    1    3    3    0    0  0.32485979550E+02  0.10471189705E+03  0.80618751852E+03  0.82316811367E+03  0.12509000000E+03 0.  0.
<mgrwt>
<rscale>  2 0.45403633E+03</rscale>
<asrwt>0</asrwt>
<pdfrwt beam="1">  1       21 0.37802521E+00 0.45403633E+03</pdfrwt>
<pdfrwt beam="2">  1       21 0.29483744E-02 0.45403633E+03</pdfrwt>
<totfact> 0.62954693E+03</totfact>
</mgrwt>
</event>
<event>
 7    0  0.4752811E-002  0.4566454E+03  0.7546771E-02  0.1025759E+00
         21   -1    0    0  502  501  0.00000000000E+00  0.00000000000E+00  0.28711301798E+03  0.28711301798E+03  0.00000000000E+00 0.  1.
         21   -1    0    0  501  502 -0.00000000000E+00 -0.00000000000E+00 -0.18157048289E+03  0.18157048289E+03  0.00000000000E+00 0.  1.
      99926    2    1    2    0    0 -0.22204460493E-15  0.71054273576E-14  0.10554253510E+03  0.46868350087E+03  0.45664537365E+03 0.  0.
      99925    2    3    3    0    0 -0.64863923468E+00  0.63227119714E+02  0.16468117989E+03  0.31655534171E+03  0.26284844294E+03 0.  0.
         25    1    3    3    0    0  0.64863923468E+00 -0.63227119714E+02 -0.59138644791E+02  0.15212815916E+03  0.12509000000E+03 0.  0.
         25    1    4    4    0    0  0.74328730190E+01 -0.50737181910E+01  0.97132858311E+02  0.15862941241E+03  0.12509000000E+03 0.  0.
         25    1    4    4    0    0 -0.80815122537E+01  0.68300837905E+02  0.67548321578E+02  0.15792592931E+03  0.12509000000E+03 0.  0.
<mgrwt>
<rscale>  2 0.45664537E+03</rscale>
<asrwt>0</asrwt>
<pdfrwt beam="1">  1       21 0.42222503E-01 0.45664537E+03</pdfrwt>
<pdfrwt beam="2">  1       21 0.26701542E-01 0.45664537E+03</pdfrwt>
<totfact> 0.66659700E+04</totfact>
</mgrwt>
</event>
<event>
 7    0  0.4752811E-002  0.4514052E+03  0.7546771E-02  0.1027304E+00
         21   -1    0    0  502  501  0.00000000000E+00  0.00000000000E+00  0.85156211200E+03  0.85156211200E+03  0.00000000000E+00 0. -1.
         21   -1    0    0  501  502 -0.00000000000E+00 -0.00000000000E+00 -0.59821425721E+02  0.59821425721E+02  0.00000000000E+00 0. -1.
      99926    2    1    2    0    0  0.71054273576E-14  0.71054273576E-14  0.79174068628E+03  0.91138353772E+03  0.45140518220E+03 0.  0.
      99925    2    3    3    0    0 -0.52921228770E+02 -0.61952255353E+02  0.35155950252E+03  0.44657635078E+03  0.26305439526E+03 0.  0.
         25    1    3    3    0    0  0.52921228770E+02  0.61952255353E+02  0.44018118375E+03  0.46480718694E+03  0.12509000000E+03 0.  0.
         25    1    4    4    0    0 -0.54045436231E+01 -0.33868921815E+01  0.20080781550E+03  0.23666847487E+03  0.12509000000E+03 0.  0.
         25    1    4    4    0    0 -0.47516685147E+02 -0.58565363172E+02  0.15075168702E+03  0.20990787592E+03  0.12509000000E+03 0.  0.
<mgrwt>
<rscale>  2 0.45140518E+03</rscale>
<asrwt>0</asrwt>
<pdfrwt beam="1">  1       21 0.12522972E+00 0.45140518E+03</pdfrwt>
<pdfrwt beam="2">  1       21 0.87972690E-02 0.45140518E+03</pdfrwt>
<totfact> 0.43969031E+04</totfact>
</mgrwt>
</event>
<event>
 7    0  0.4752811E-002  0.4556299E+03  0.7546771E-02  0.1026056E+00
         21   -1    0    0  502  501  0.00000000000E+00  0.00000000000E+00  0.44644459802E+03  0.44644459802E+03  0.00000000000E+00 0.  1.
         21   -1    0    0  501  502 -0.00000000000E+00 -0.00000000000E+00 -0.11625103139E+03  0.11625103139E+03  0.00000000000E+00 0.  1.
      99926    2    1    2    0    0  0.00000000000E+00  0.00000000000E+00  0.33019356663E+03  0.56269562941E+03  0.45562987162E+03 0.  0.
      99925    2    3    3    0    0  0.60511555946E+02  0.77550109506E+02  0.13702206079E+03  0.31241896918E+03  0.26297319117E+03 0.  0.
         25    1    3    3    0    0 -0.60511555946E+02 -0.77550109506E+02  0.19317150585E+03  0.25027666024E+03  0.12509000000E+03 0.  0.
         25    1    4    4    0    0 -0.12768243512E+01  0.20962563721E+02  0.38749904031E+02  0.13262775924E+03  0.12509000000E+03 0.  0.
         25    1    4    4    0    0  0.61788380298E+02  0.56587545784E+02  0.98272156756E+02  0.17979120994E+03  0.12509000000E+03 0.  0.
<mgrwt>
<rscale>  2 0.45562987E+03</rscale>
<asrwt>0</asrwt>
<pdfrwt beam="1">  1       21 0.65653617E-01 0.45562987E+03</pdfrwt>
<pdfrwt beam="2">  1       21 0.17095740E-01 0.45562987E+03</pdfrwt>
<totfact> 0.60732164E+04</totfact>
</mgrwt>
</event>
<event>
 7    0  0.4752811E-002  0.4525029E+03  0.7546771E-02  0.1026978E+00
         21   -1    0    0  502  501  0.00000000000E+00  0.00000000000E+00  0.28230788548E+03  0.28230788548E+03  0.00000000000E+00 0. -1.
         21   -1    0    0  501  502 -0.00000000000E+00 -0.00000000000E+00 -0.18132584100E+03  0.18132584100E+03  0.00000000000E+00 0. -1.
      99926    2    1    2    0    0  0.00000000000E+00  0.00000000000E+00  0.10098204448E+03  0.46363372648E+03  0.45250288289E+03 0.  0.
      99925    2    3    3    0    0  0.36959822017E+02  0.55172854539E+02 -0.27244392748E+02  0.27258504256E+03  0.26296440096E+03 0.  0.
         25    1    4    4    0    0 -0.16423114799E+02  0.34136812260E+02  0.65861838999E+01  0.13086606347E+03  0.12509000000E+03 0.  0.
         25    1    3    3    0    0 -0.36959822017E+02 -0.55172854539E+02  0.12822643722E+03  0.19104868391E+03  0.12509000000E+03 0.  0.
         25    1    4    4    0    0  0.53382936816E+02  0.21036042279E+02 -0.33830576648E+02  0.14171897909E+03  0.12509000000E+03 0.  0.
<mgrwt>
<rscale>  2 0.45250288E+03</rscale>
<asrwt>0</asrwt>
<pdfrwt beam="1">  1       21 0.41515865E-01 0.45250288E+03</pdfrwt>
<pdfrwt beam="2">  1       21 0.26665565E-01 0.45250288E+03</pdfrwt>
<totfact> 0.69274578E+04</totfact>
</mgrwt>
</event>
<event>
 7    0  0.4752811E-002  0.4545973E+03  0.7546771E-02  0.1026360E+00
         21   -1    0    0  502  501  0.00000000000E+00  0.00000000000E+00  0.15183927643E+03  0.15183927643E+03  0.00000000000E+00 0. -1.
         21   -1    0    0  501  502 -0.00000000000E+00 -0.00000000000E+00 -0.34025899119E+03  0.34025899119E+03  0.00000000000E+00 0. -1.
      99926    2    1    2    0    0 -0.14210854715E-13  0.00000000000E+00 -0.18841971476E+03  0.49209826762E+03  0.45459731201E+03 0.  0.
      99925    2    3    3    0    0 -0.76682039811E+02 -0.41446281622E+02 -0.19602210308E+03  0.33944429978E+03  0.26305862135E+03 0.  0.
         25    1    4    4    0    0 -0.65549164406E+02 -0.62625539758E+01 -0.68670164778E+02  0.15715919371E+03  0.12509000000E+03 0.  0.
         25    1    4    4    0    0 -0.11132875405E+02 -0.35183727646E+02 -0.12735193830E+03  0.18228510607E+03  0.12509000000E+03 0.  0.
         25    1    3    3    0    0  0.76682039811E+02  0.41446281622E+02  0.76023883174E+01  0.15265396784E+03  0.12509000000E+03 0.  0.
<mgrwt>
<rscale>  2 0.45459731E+03</rscale>
<asrwt>0</asrwt>
<pdfrwt beam="1">  1       21 0.22329306E-01 0.45459731E+03</pdfrwt>
<pdfrwt beam="2">  1       21 0.50038086E-01 0.45459731E+03</pdfrwt>
<totfact> 0.66040285E+04</totfact>
</mgrwt>
</event>
<event>
 7    0  0.4752811E-002  0.4474784E+03  0.7546771E-02  0.1028477E+00
         21   -1    0    0  502  501  0.00000000000E+00  0.00000000000E+00  0.39880647305E+03  0.39880647305E+03  0.00000000000E+00 0. -1.
         21   -1    0    0  501  502 -0.00000000000E+00 -0.00000000000E+00 -0.12552261156E+03  0.12552261156E+03  0.00000000000E+00 0. -1.
      99926    2    1    2    0    0  0.00000000000E+00  0.00000000000E+00  0.27328386149E+03  0.52432908461E+03  0.44747840173E+03 0.  0.
      99925    2    3    3    0    0 -0.89645920311E+02 -0.35728013212E+02  0.12190989190E+03  0.30552673378E+03  0.26300509758E+03 0.  0.
         25    1    4    4    0    0 -0.48285435451E+02 -0.50073909668E+02  0.90448693966E+02  0.16931436456E+03  0.12509000000E+03 0.  0.
         25    1    3    3    0    0  0.89645920311E+02  0.35728013212E+02  0.15137396960E+03  0.21880235083E+03  0.12509000000E+03 0.  0.
         25    1    4    4    0    0 -0.41360484860E+02  0.14345896456E+02  0.31461197930E+02  0.13621236922E+03  0.12509000000E+03 0.  0.
<mgrwt>
<rscale>  2 0.44747840E+03</rscale>
<asrwt>0</asrwt>
<pdfrwt beam="1">  1       21 0.58648010E-01 0.44747840E+03</pdfrwt>
<pdfrwt beam="2">  1       21 0.18459208E-01 0.44747840E+03</pdfrwt>
<totfact> 0.67527618E+04</totfact>
</mgrwt>
</event>
<event>
 7    0  0.4752811E-002  0.4591999E+03  0.7546771E-02  0.1025014E+00
         21   -1    0    0  502  501  0.00000000000E+00  0.00000000000E+00  0.22696302651E+03  0.22696302651E+03  0.00000000000E+00 0.  1.
         21   -1    0    0  501  502 -0.00000000000E+00 -0.00000000000E+00 -0.23226746863E+03  0.23226746863E+03  0.00000000000E+00 0.  1.
      99926    2    1    2    0    0  0.00000000000E+00  0.00000000000E+00 -0.53044421219E+01  0.45923049514E+03  0.45919985906E+03 0.  0.
      99925    2    3    3    0    0  0.10941044838E+03 -0.16638424722E+02  0.34922859073E+02  0.28743635306E+03  0.26296875781E+03 0.  0.
         25    1    4    4    0    0  0.85865136736E+02 -0.28961552510E+02  0.39634351405E+02  0.15946781224E+03  0.12509000000E+03 0.  0.
         25    1    3    3    0    0 -0.10941044838E+03  0.16638424722E+02 -0.40227301195E+02  0.17179414208E+03  0.12509000000E+03 0.  0.
         25    1    4    4    0    0  0.23545311641E+02  0.12323127788E+02 -0.47114923322E+01  0.12796854082E+03  0.12509000000E+03 0.  0.
<mgrwt>
<rscale>  2 0.45919986E+03</rscale>
<asrwt>0</asrwt>
<pdfrwt beam="1">  1       21 0.33376916E-01 0.45919986E+03</pdfrwt>
<pdfrwt beam="2">  1       21 0.34156981E-01 0.45919986E+03</pdfrwt>
<totfact> 0.65997483E+04</totfact>
</mgrwt>
</event>
<event>
 7    0  0.4752811E-002  0.4541373E+03  0.7546771E-02  0.1026495E+00
         21   -1    0    0  502  501  0.00000000000E+00  0.00000000000E+00  0.27302979043E+03  0.27302979043E+03  0.00000000000E+00 0. -1.
         21   -1    0    0  501  502 -0.00000000000E+00 -0.00000000000E+00 -0.18884446216E+03  0.18884446216E+03  0.00000000000E+00 0. -1.
      99926    2    1    2    0    0  0.35527136788E-14  0.00000000000E+00  0.84185328266E+02  0.46187425259E+03  0.45413726527E+03 0.  0.
      99925    2    3    3    0    0  0.27171755428E+02  0.10811531431E+03  0.67452389447E+02  0.29348564008E+03  0.26297674918E+03 0.  0.
         25    1    4    4    0    0  0.15204222865E+02  0.20082906899E+02  0.46054180850E+01  0.12768402217E+03  0.12509000000E+03 0.  0.
         25    1    4    4    0    0  0.11967532563E+02  0.88032407412E+02  0.62846971362E+02  0.16580161790E+03  0.12509000000E+03 0.  0.
         25    1    3    3    0    0 -0.27171755428E+02 -0.10811531431E+03  0.16732938818E+02  0.16838861251E+03  0.12509000000E+03 0.  0.
<mgrwt>
<rscale>  2 0.45413727E+03</rscale>
<asrwt>0</asrwt>
<pdfrwt beam="1">  1       21 0.40151440E-01 0.45413727E+03</pdfrwt>
<pdfrwt beam="2">  1       21 0.27771244E-01 0.45413727E+03</pdfrwt>
<totfact> 0.68511464E+04</totfact>
</mgrwt>
</event>
<event>
 7    0  0.4752811E-002  0.4562028E+03  0.7546771E-02  0.1025888E+00
         21   -1    0    0  502  501  0.00000000000E+00  0.00000000000E+00  0.36582408553E+03  0.36582408553E+03  0.00000000000E+00 0. -1.
         21   -1    0    0  501  502 -0.00000000000E+00 -0.00000000000E+00 -0.14222750522E+03  0.14222750522E+03  0.00000000000E+00 0. -1.
      99926    2    1    2    0    0  0.00000000000E+00  0.00000000000E+00  0.22359658031E+03  0.50805159075E+03  0.45620279277E+03 0.  0.
      99925    2    3    3    0    0  0.65079023117E+02  0.67219031492E+02  0.21345508847E+03  0.35151394224E+03  0.26314501582E+03 0.  0.
         25    1    3    3    0    0 -0.65079023117E+02 -0.67219031492E+02  0.10141491842E+02  0.15653764851E+03  0.12509000000E+03 0.  0.
         25    1    4    4    0    0  0.59264437071E+02  0.30315595394E+02  0.71716201819E+02  0.15881445315E+03  0.12509000000E+03 0.  0.
         25    1    4    4    0    0  0.58145860462E+01  0.36903436098E+02  0.14173888665E+03  0.19269948909E+03  0.12509000000E+03 0.  0.
<mgrwt>
<rscale>  2 0.45620279E+03</rscale>
<asrwt>0</asrwt>
<pdfrwt beam="1">  1       21 0.53797660E-01 0.45620279E+03</pdfrwt>
<pdfrwt beam="2">  1       21 0.20915810E-01 0.45620279E+03</pdfrwt>
<totfact> 0.64094574E+04</totfact>
</mgrwt>
</event>
<event>
 7    0  0.4752811E-002  0.4553059E+03  0.7546771E-02  0.1026151E+00
         21   -1    0    0  502  501  0.00000000000E+00  0.00000000000E+00  0.23636097605E+03  0.23636097605E+03  0.00000000000E+00 0. -1.
         21   -1    0    0  501  502 -0.00000000000E+00 -0.00000000000E+00 -0.21926570398E+03  0.21926570398E+03  0.00000000000E+00 0. -1.
      99926    2    1    2    0    0  0.00000000000E+00 -0.14210854715E-13  0.17095272067E+02  0.45562668004E+03  0.45530585680E+03 0.  0.
      99925    2    3    3    0    0 -0.66924127542E+02  0.86199059294E+02 -0.20219467090E+02  0.28548258073E+03  0.26302539874E+03 0.  0.
         25    1    4    4    0    0 -0.54424478668E+02  0.21896301018E+02  0.17657457856E+02  0.13928663179E+03  0.12509000000E+03 0.  0.
         25    1    4    4    0    0 -0.12499648874E+02  0.64302758275E+02 -0.37876924946E+02  0.14619594894E+03  0.12509000000E+03 0.  0.
         25    1    3    3    0    0  0.66924127542E+02 -0.86199059294E+02  0.37314739158E+02  0.17014409931E+03  0.12509000000E+03 0.  0.
<mgrwt>
<rscale>  2 0.45530586E+03</rscale>
<asrwt>0</asrwt>
<pdfrwt beam="1">  1       21 0.34758967E-01 0.45530586E+03</pdfrwt>
<pdfrwt beam="2">  1       21 0.32244956E-01 0.45530586E+03</pdfrwt>
<totfact> 0.68333011E+04</totfact>
</mgrwt>
</event>
<event>
 7    0  0.4752811E-002  0.4467805E+03  0.7546771E-02  0.1028687E+00
         21   -1    0    0  502  501  0.00000000000E+00  0.00000000000E+00  0.66591925468E+03  0.66591925468E+03  0.00000000000E+00 0. -1.
         21   -1    0    0  501  502 -0.00000000000E+00 -0.00000000000E+00 -0.74938812405E+02  0.74938812405E+02  0.00000000000E+00 0. -1.
      99926    2    1    2    0    0  0.00000000000E+00  0.00000000000E+00  0.59098044227E+03  0.74085806708E+03  0.44678047452E+03 0.  0.
      99925    2    3    3    0    0 -0.20687937737E+02 -0.77892857613E+02  0.26246631180E+03  0.38021374083E+03  0.26301831847E+03 0.  0.
         25    1    3    3    0    0  0.20687937737E+02  0.77892857613E+02  0.32851413048E+03  0.36064432625E+03  0.12509000000E+03 0.  0.
         25    1    4    4    0    0  0.22503399593E+02 -0.30529087051E+02  0.15814751969E+03  0.20517449703E+03  0.12509000000E+03 0.  0.
         25    1    4    4    0    0 -0.43191337330E+02 -0.47363770562E+02  0.10431879211E+03  0.17503924380E+03  0.12509000000E+03 0.  0.
<mgrwt>
<rscale>  2 0.44678047E+03</rscale>
<asrwt>0</asrwt>
<pdfrwt beam="1">  1       21 0.97929299E-01 0.44678047E+03</pdfrwt>
<pdfrwt beam="2">  1       21 0.11020414E-01 0.44678047E+03</pdfrwt>
<totfact> 0.54155512E+04</totfact>
</mgrwt>
</event>
<event>
 7    0  0.4752811E-002  0.4605510E+03  0.7546771E-02  0.1024622E+00
         21   -1    0    0  502  501  0.00000000000E+00  0.00000000000E+00  0.57375053750E+03  0.57375053750E+03  0.00000000000E+00 0.  1.
         21   -1    0    0  501  502 -0.00000000000E+00 -0.00000000000E+00 -0.92421365082E+02  0.92421365082E+02  0.00000000000E+00 0.  1.
      99926    2    1    2    0    0  0.00000000000E+00  0.00000000000E+00  0.48132917242E+03  0.66617190258E+03  0.46055100865E+03 0.  0.
      99925    2    3    3    0    0  0.39144665032E+02 -0.86988061947E+02  0.20003835138E+03  0.34388125453E+03  0.26294438095E+03 0.  0.
         25    1    4    4    0    0  0.10255349102E+02 -0.19740735411E+02  0.53740540955E+02  0.13795079797E+03  0.12509000000E+03 0.  0.
         25    1    4    4    0    0  0.28889315930E+02 -0.67247326537E+02  0.14629781042E+03  0.20593045655E+03  0.12509000000E+03 0.  0.
         25    1    3    3    0    0 -0.39144665032E+02  0.86988061947E+02  0.28129082104E+03  0.32229064805E+03  0.12509000000E+03 0.  0.
<mgrwt>
<rscale>  2 0.46055101E+03</rscale>
<asrwt>0</asrwt>
<pdfrwt beam="1">  1       21 0.84375077E-01 0.46055101E+03</pdfrwt>
<pdfrwt beam="2">  1       21 0.13591378E-01 0.46055101E+03</pdfrwt>
<totfact> 0.52444955E+04</totfact>
</mgrwt>
</event>
<event>
 7    0  0.4752811E-002  0.4826696E+03  0.7546771E-02  0.1018404E+00
         21   -1    0    0  502  501  0.00000000000E+00  0.00000000000E+00  0.35854466935E+03  0.35854466935E+03  0.00000000000E+00 0. -1.
         21   -1    0    0  501  502 -0.00000000000E+00 -0.00000000000E+00 -0.16244138291E+03  0.16244138291E+03  0.00000000000E+00 0. -1.
      99926    2    1    2    0    0  0.00000000000E+00 -0.71054273576E-14  0.19610328644E+03  0.52098605227E+03  0.48266962583E+03 0.  0.
      99925    2    3    3    0    0  0.30139702117E+02 -0.63165210721E+02  0.24832134650E+03  0.36843285045E+03  0.26302286721E+03 0.  0.
         25    1    3    3    0    0 -0.30139702117E+02  0.63165210721E+02 -0.52218060057E+02  0.15255320182E+03  0.12509000000E+03 0.  0.
         25    1    4    4    0    0 -0.22853932600E+01 -0.21551290273E+02  0.16840926792E+03  0.21090014404E+03  0.12509000000E+03 0.  0.
         25    1    4    4    0    0  0.32425095377E+02 -0.41613920448E+02  0.79912078575E+02  0.15753270641E+03  0.12509000000E+03 0.  0.
<mgrwt>
<rscale>  2 0.48266963E+03</rscale>
<asrwt>0</asrwt>
<pdfrwt beam="1">  1       21 0.52727157E-01 0.48266963E+03</pdfrwt>
<pdfrwt beam="2">  1       21 0.23888439E-01 0.48266963E+03</pdfrwt>
<totfact> 0.51537283E+04</totfact>
</mgrwt>
</event>
<event>
 7    0  0.4752811E-002  0.4551960E+03  0.7546771E-02  0.1026184E+00
         21   -1    0    0  502  501  0.00000000000E+00  0.00000000000E+00  0.63292112158E+02  0.63292112158E+02  0.00000000000E+00 0.  1.
         21   -1    0    0  501  502 -0.00000000000E+00 -0.00000000000E+00 -0.81844089162E+03  0.81844089162E+03  0.00000000000E+00 0.  1.
      99926    2    1    2    0    0  0.00000000000E+00  0.00000000000E+00 -0.75514877946E+03  0.88173300377E+03  0.45519601363E+03 0.  0.
      99925    2    3    3    0    0  0.85951824332E+02 -0.29786558955E+02 -0.34416022009E+03  0.44260425359E+03  0.26301580372E+03 0.  0.
         25    1    4    4    0    0  0.71506072867E+02 -0.32818119358E+02 -0.22516172337E+03  0.26932407465E+03  0.12509000000E+03 0.  0.
         25    1    4    4    0    0  0.14445751465E+02  0.30315604031E+01 -0.11899849672E+03  0.17328017894E+03  0.12509000000E+03 0.  0.
         25    1    3    3    0    0 -0.85951824332E+02  0.29786558955E+02 -0.41098855937E+03  0.43912875018E+03  0.12509000000E+03 0.  0.
<mgrwt>
<rscale>  2 0.45519601E+03</rscale>
<asrwt>0</asrwt>
<pdfrwt beam="1">  1       21 0.93076637E-02 0.45519601E+03</pdfrwt>
<pdfrwt beam="2">  1       21 0.12035895E+00 0.45519601E+03</pdfrwt>
<totfact> 0.43965409E+04</totfact>
</mgrwt>
</event>
<event>
 7    0  0.4752811E-002  0.4601518E+03  0.7546771E-02  0.1024737E+00
         21   -1    0    0  502  501  0.00000000000E+00  0.00000000000E+00  0.12483554984E+04  0.12483554984E+04  0.00000000000E+00 0.  1.
         21   -1    0    0  501  502 -0.00000000000E+00 -0.00000000000E+00 -0.42403727595E+02  0.42403727595E+02  0.00000000000E+00 0.  1.
      99926    2    1    2    0    0  0.00000000000E+00  0.35527136788E-14  0.12059517708E+04  0.12907592260E+04  0.46015182927E+03 0.  0.
      99925    2    3    3    0    0 -0.10995599038E+03 -0.16112358692E+02  0.86144868262E+03  0.90777121862E+03  0.26382726290E+03 0.  0.
         25    1    3    3    0    0  0.10995599038E+03  0.16112358692E+02  0.34450308819E+03  0.38298800738E+03  0.12509000000E+03 0.  0.
         25    1    4    4    0    0 -0.53230172185E+02  0.33544168722E+02  0.43877321359E+03  0.46057366788E+03  0.12509000000E+03 0.  0.
         25    1    4    4    0    0 -0.56725818192E+02 -0.49656527414E+02  0.42267546903E+03  0.44719755074E+03  0.12509000000E+03 0.  0.
<mgrwt>
<rscale>  2 0.46015183E+03</rscale>
<asrwt>0</asrwt>
<pdfrwt beam="1">  1       21 0.18358167E+00 0.46015183E+03</pdfrwt>
<pdfrwt beam="2">  1       21 0.62358431E-02 0.46015183E+03</pdfrwt>
<totfact> 0.28235424E+04</totfact>
</mgrwt>
</event>
<event>
 7    0  0.4752811E-002  0.4521160E+03  0.7546771E-02  0.1027093E+00
         21   -1    0    0  502  501  0.00000000000E+00  0.00000000000E+00  0.10512567659E+03  0.10512567659E+03  0.00000000000E+00 0. -1.
         21   -1    0    0  501  502 -0.00000000000E+00 -0.00000000000E+00 -0.48610596443E+03  0.48610596443E+03  0.00000000000E+00 0. -1.
      99926    2    1    2    0    0  0.00000000000E+00  0.00000000000E+00 -0.38098028784E+03  0.59123164102E+03  0.45211599577E+03 0.  0.
      99925    2    3    3    0    0 -0.47263325675E+02  0.80044139150E+02 -0.16261638861E+03  0.32295717941E+03  0.26309002970E+03 0.  0.
         25    1    4    4    0    0 -0.10544911813E+02  0.86542903619E+00 -0.60123579432E+02  0.13919158393E+03  0.12509000000E+03 0.  0.
         25    1    4    4    0    0 -0.36718413862E+02  0.79178710113E+02 -0.10249280917E+03  0.18376559549E+03  0.12509000000E+03 0.  0.
         25    1    3    3    0    0  0.47263325675E+02 -0.80044139150E+02 -0.21836389923E+03  0.26827446161E+03  0.12509000000E+03 0.  0.
<mgrwt>
<rscale>  2 0.45211600E+03</rscale>
<asrwt>0</asrwt>
<pdfrwt beam="1">  1       21 0.15459658E-01 0.45211600E+03</pdfrwt>
<pdfrwt beam="2">  1       21 0.71486171E-01 0.45211600E+03</pdfrwt>
<totfact> 0.60590511E+04</totfact>
</mgrwt>
</event>
<event>
 7    0  0.4752811E-002  0.4523173E+03  0.7546771E-02  0.1027033E+00
         21   -1    0    0  502  501  0.00000000000E+00  0.00000000000E+00  0.48107397854E+03  0.48107397854E+03  0.00000000000E+00 0. -1.
         21   -1    0    0  501  502 -0.00000000000E+00 -0.00000000000E+00 -0.10631987252E+03  0.10631987252E+03  0.00000000000E+00 0. -1.
      99926    2    1    2    0    0 -0.17763568394E-14  0.00000000000E+00  0.37475410602E+03  0.58739385106E+03  0.45231725181E+03 0.  0.
      99925    2    3    3    0    0 -0.11413380290E+02  0.88318189898E+02  0.15125452468E+03  0.31622980684E+03  0.26304560742E+03 0.  0.
         25    1    4    4    0    0  0.20391832973E+02  0.69184838265E+02  0.56868964311E+02  0.15519006379E+03  0.12509000000E+03 0.  0.
         25    1    3    3    0    0  0.11413380290E+02 -0.88318189898E+02  0.22349958134E+03  0.27116404422E+03  0.12509000000E+03 0.  0.
         25    1    4    4    0    0 -0.31805213264E+02  0.19133351633E+02  0.94385560372E+02  0.16103974305E+03  0.12509000000E+03 0.  0.
<mgrwt>
<rscale>  2 0.45231725E+03</rscale>
<asrwt>0</asrwt>
<pdfrwt beam="1">  1       21 0.70746172E-01 0.45231725E+03</pdfrwt>
<pdfrwt beam="2">  1       21 0.15635276E-01 0.45231725E+03</pdfrwt>
<totfact> 0.60738717E+04</totfact>
</mgrwt>
</event>
<event>
 7    0  0.4752811E-002  0.4563028E+03  0.7546771E-02  0.1025859E+00
         21   -1    0    0  502  501  0.00000000000E+00  0.00000000000E+00  0.83022699587E+03  0.83022699587E+03  0.00000000000E+00 0.  1.
         21   -1    0    0  501  502 -0.00000000000E+00 -0.00000000000E+00 -0.62697394354E+02  0.62697394354E+02  0.00000000000E+00 0.  1.
      99926    2    1    2    0    0  0.00000000000E+00  0.35527136788E-14  0.76752960151E+03  0.89292439022E+03  0.45630283525E+03 0.  0.
      99925    2    3    3    0    0  0.42098300342E+02  0.22167384704E+02  0.27905788031E+03  0.38645051098E+03  0.26307230383E+03 0.  0.
         25    1    4    4    0    0 -0.19355590883E+01 -0.71435284382E+01  0.92778106238E+02  0.15591684157E+03  0.12509000000E+03 0.  0.
         25    1    4    4    0    0  0.44033859430E+02  0.29310913142E+02  0.18627977407E+03  0.23053366942E+03  0.12509000000E+03 0.  0.
         25    1    3    3    0    0 -0.42098300342E+02 -0.22167384704E+02  0.48847172120E+03  0.50647387924E+03  0.12509000000E+03 0.  0.
<mgrwt>
<rscale>  2 0.45630284E+03</rscale>
<asrwt>0</asrwt>
<pdfrwt beam="1">  1       21 0.12209220E+00 0.45630284E+03</pdfrwt>
<pdfrwt beam="2">  1       21 0.92202056E-02 0.45630284E+03</pdfrwt>
<totfact> 0.43099655E+04</totfact>
</mgrwt>
</event>
<event>
 7    0  0.4752811E-002  0.4536830E+03  0.7546771E-02  0.1026629E+00
         21   -1    0    0  502  501  0.00000000000E+00  0.00000000000E+00  0.41494049054E+02  0.41494049054E+02  0.00000000000E+00 0.  1.
         21   -1    0    0  501  502 -0.00000000000E+00 -0.00000000000E+00 -0.12401073745E+04  0.12401073745E+04  0.00000000000E+00 0.  1.
      99926    2    1    2    0    0  0.14210854715E-13 -0.71054273576E-14 -0.11986133255E+04  0.12816014236E+04  0.45368304456E+03 0.  0.
      99925    2    3    3    0    0  0.10297465140E+03 -0.38326549677E+02 -0.69184644725E+03  0.74818518817E+03  0.26278673098E+03 0.  0.
         25    1    3    3    0    0 -0.10297465140E+03  0.38326549677E+02 -0.50676687823E+03  0.53341623543E+03  0.12509000000E+03 0.  0.
         25    1    4    4    0    0  0.76633777292E+02 -0.48872588193E+02 -0.42111927706E+03  0.44860920556E+03  0.12509000000E+03 0.  0.
         25    1    4    4    0    0  0.26340874106E+02  0.10546038516E+02 -0.27072717019E+03  0.29957598261E+03  0.12509000000E+03 0.  0.
<mgrwt>
<rscale>  2 0.45368304E+03</rscale>
<asrwt>0</asrwt>
<pdfrwt beam="1">  1       21 0.61020658E-02 0.45368304E+03</pdfrwt>
<pdfrwt beam="2">  1       21 0.18236874E+00 0.45368304E+03</pdfrwt>
<totfact> 0.29959579E+04</totfact>
</mgrwt>
</event>
<event>
 7    0  0.4752811E-002  0.4455501E+03  0.7546771E-02  0.1029057E+00
         21   -1    0    0  502  501  0.00000000000E+00  0.00000000000E+00  0.69860479964E+02  0.69860479964E+02  0.00000000000E+00 0. -1.
         21   -1    0    0  501  502 -0.00000000000E+00 -0.00000000000E+00 -0.71039762804E+03  0.71039762804E+03  0.00000000000E+00 0. -1.
      99926    2    1    2    0    0  0.00000000000E+00  0.14210854715E-13 -0.64053714808E+03  0.78025810801E+03  0.44555008365E+03 0.  0.
      99925    2    3    3    0    0 -0.40673837464E+02 -0.73143455470E+02 -0.29829061768E+03  0.40638042506E+03  0.26298941261E+03 0.  0.
         25    1    3    3    0    0  0.40673837464E+02  0.73143455470E+02 -0.34224653040E+03  0.37387768294E+03  0.12509000000E+03 0.  0.
         25    1    4    4    0    0 -0.16629585934E+02  0.29775716134E+00 -0.10941464888E+03  0.16702007447E+03  0.12509000000E+03 0.  0.
         25    1    4    4    0    0 -0.24044251530E+02 -0.73441212631E+02 -0.18887596880E+03  0.23936035059E+03  0.12509000000E+03 0.  0.
<mgrwt>
<rscale>  2 0.44555008E+03</rscale>
<asrwt>0</asrwt>
<pdfrwt beam="1">  1       21 0.10273600E-01 0.44555008E+03</pdfrwt>
<pdfrwt beam="2">  1       21 0.10447024E+00 0.44555008E+03</pdfrwt>
<totfact> 0.52523482E+04</totfact>
</mgrwt>
</event>
<event>
 7    0  0.4752811E-002  0.4431239E+03  0.7546771E-02  0.1029793E+00
         21   -1    0    0  502  501  0.00000000000E+00  0.00000000000E+00  0.33218314741E+03  0.33218314741E+03  0.00000000000E+00 0.  1.
         21   -1    0    0  501  502 -0.00000000000E+00 -0.00000000000E+00 -0.14777901324E+03  0.14777901324E+03  0.00000000000E+00 0.  1.
      99926    2    1    2    0    0  0.00000000000E+00  0.00000000000E+00  0.18440413418E+03  0.47996216065E+03  0.44312390023E+03 0.  0.
      99925    2    3    3    0    0  0.14270492402E+02  0.70529058689E+02  0.39389911477E+02  0.27537812423E+03  0.26287554300E+03 0.  0.
         25    1    4    4    0    0  0.12191200939E+02  0.26784601985E+02 -0.20165322729E+02  0.13007762538E+03  0.12509000000E+03 0.  0.
         25    1    3    3    0    0 -0.14270492402E+02 -0.70529058689E+02  0.14501422270E+03  0.20458403642E+03  0.12509000000E+03 0.  0.
         25    1    4    4    0    0  0.20792914624E+01  0.43744456703E+02  0.59555234206E+02  0.14530049885E+03  0.12509000000E+03 0.  0.
<mgrwt>
<rscale>  2 0.44312390E+03</rscale>
<asrwt>0</asrwt>
<pdfrwt beam="1">  1       21 0.48850463E-01 0.44312390E+03</pdfrwt>
<pdfrwt beam="2">  1       21 0.21732208E-01 0.44312390E+03</pdfrwt>
<totfact> 0.73380827E+04</totfact>
</mgrwt>
</event>
<event>
 7    0  0.4752811E-002  0.4567021E+03  0.7546771E-02  0.1025742E+00
         21   -1    0    0  502  501  0.00000000000E+00  0.00000000000E+00  0.37144144698E+04  0.37144144698E+04  0.00000000000E+00 0.  1.
         21   -1    0    0  501  502 -0.00000000000E+00 -0.00000000000E+00 -0.14038334114E+02  0.14038334114E+02  0.00000000000E+00 0.  1.
      99926    2    1    2    0    0  0.00000000000E+00  0.00000000000E+00  0.37003761357E+04  0.37284528039E+04  0.45670205327E+03 0.  0.
      99925    2    3    3    0    0  0.79570606993E+02 -0.82610966360E+02  0.23389931243E+04  0.23565317912E+04  0.26305359584E+03 0.  0.
         25    1    3    3    0    0 -0.79570606993E+02  0.82610966360E+02  0.13613830114E+04  0.13719210127E+04  0.12509000000E+03 0.  0.
         25    1    4    4    0    0  0.52772371649E+02 -0.45545564984E+02  0.15256005036E+04  0.15323066685E+04  0.12509000000E+03 0.  0.
         25    1    4    4    0    0  0.26798235344E+02 -0.37065401376E+02  0.81339262064E+03  0.82422512265E+03  0.12509000000E+03 0.  0.
<mgrwt>
<rscale>  2 0.45670205E+03</rscale>
<asrwt>0</asrwt>
<pdfrwt beam="1">  1       21 0.54623674E+00 0.45670205E+03</pdfrwt>
<pdfrwt beam="2">  1       21 0.20644635E-02 0.45670205E+03</pdfrwt>
<totfact> 0.79863796E+02</totfact>
</mgrwt>
</event>
<event>
 7    0  0.4752811E-002  0.4586599E+03  0.7546771E-02  0.1025171E+00
         21   -1    0    0  502  501  0.00000000000E+00  0.00000000000E+00  0.15840477723E+03  0.15840477723E+03  0.00000000000E+00 0.  1.
         21   -1    0    0  501  502 -0.00000000000E+00 -0.00000000000E+00 -0.33201161530E+03  0.33201161530E+03  0.00000000000E+00 0.  1.
      99926    2    1    2    0    0  0.00000000000E+00  0.00000000000E+00 -0.17360683807E+03  0.49041639253E+03  0.45865989997E+03 0.  0.
      99925    2    3    3    0    0 -0.66553590315E+02 -0.60591022857E+02 -0.18812045171E+03  0.33563007041E+03  0.26297830210E+03 0.  0.
         25    1    4    4    0    0 -0.32595416048E+02  0.10596213972E+02 -0.96597837947E+02  0.16172010170E+03  0.12509000000E+03 0.  0.
         25    1    4    4    0    0 -0.33958174267E+02 -0.71187236830E+02 -0.91522613767E+02  0.17390996871E+03  0.12509000000E+03 0.  0.
         25    1    3    3    0    0  0.66553590315E+02  0.60591022857E+02  0.14513613649E+02  0.15478632212E+03  0.12509000000E+03 0.  0.
<mgrwt>
<rscale>  2 0.45865990E+03</rscale>
<asrwt>0</asrwt>
<pdfrwt beam="1">  1       21 0.23294820E-01 0.45865990E+03</pdfrwt>
<pdfrwt beam="2">  1       21 0.48825237E-01 0.45865990E+03</pdfrwt>
<totfact> 0.64067539E+04</totfact>
</mgrwt>
</event>
<event>
 7    0  0.4752811E-002  0.4539042E+03  0.7546771E-02  0.1026564E+00
         21   -1    0    0  502  501  0.00000000000E+00  0.00000000000E+00  0.25430621279E+03  0.25430621279E+03  0.00000000000E+00 0.  1.
         21   -1    0    0  501  502 -0.00000000000E+00 -0.00000000000E+00 -0.20254028228E+03  0.20254028228E+03  0.00000000000E+00 0.  1.
      99926    2    1    2    0    0 -0.17763568394E-14  0.00000000000E+00  0.51765930516E+02  0.45684649507E+03  0.45390418427E+03 0.  0.
      99925    2    3    3    0    0 -0.46631358801E+01 -0.10407766855E+03 -0.93240546937E+01  0.28296895103E+03  0.26292695435E+03 0.  0.
         25    1    3    3    0    0  0.46631358801E+01  0.10407766855E+03  0.61089985209E+02  0.17387754404E+03  0.12509000000E+03 0.  0.
         25    1    4    4    0    0  0.26538090377E+02 -0.56339891056E+02 -0.32720991820E+02  0.14351524299E+03  0.12509000000E+03 0.  0.
         25    1    4    4    0    0 -0.31201226257E+02 -0.47737777496E+02  0.23396937126E+02  0.13945370804E+03  0.12509000000E+03 0.  0.
<mgrwt>
<rscale>  2 0.45390418E+03</rscale>
<asrwt>0</asrwt>
<pdfrwt beam="1">  1       21 0.37397973E-01 0.45390418E+03</pdfrwt>
<pdfrwt beam="2">  1       21 0.29785335E-01 0.45390418E+03</pdfrwt>
<totfact> 0.69012049E+04</totfact>
</mgrwt>
</event>
<event>
 7    0  0.4752811E-002  0.3930148E+03  0.7546771E-02  0.1046226E+00
         21   -1    0    0  502  501  0.00000000000E+00  0.00000000000E+00  0.29311875681E+02  0.29311875681E+02  0.00000000000E+00 0. -1.
         21   -1    0    0  501  502 -0.00000000000E+00 -0.00000000000E+00 -0.13173892708E+04  0.13173892708E+04  0.00000000000E+00 0. -1.
      99926    2    1    2    0    0  0.26645352591E-14  0.88817841970E-15 -0.12880773951E+04  0.13467011465E+04  0.39301476068E+03 0.  0.
      99925    2    3    3    0    0  0.74408206606E+01 -0.58869302098E+01 -0.77190076567E+03  0.81549888495E+03  0.26290229661E+03 0.  0.
         25    1    4    4    0    0  0.27055344764E+02  0.21286641288E+02 -0.31696006639E+03  0.34248548081E+03  0.12509000000E+03 0.  0.
         25    1    4    4    0    0 -0.19614524104E+02 -0.27173571498E+02 -0.45494069927E+03  0.47301340414E+03  0.12509000000E+03 0.  0.
         25    1    3    3    0    0 -0.74408206606E+01  0.58869302098E+01 -0.51617662944E+03  0.53120226151E+03  0.12509000000E+03 0.  0.
<mgrwt>
<rscale>  2 0.39301476E+03</rscale>
<asrwt>0</asrwt>
<pdfrwt beam="1">  1       21 0.43105703E-02 0.39301476E+03</pdfrwt>
<pdfrwt beam="2">  1       21 0.19373370E+00 0.39301476E+03</pdfrwt>
<totfact> 0.46468261E+04</totfact>
</mgrwt>
</event>
<event>
 7    0  0.4752811E-002  0.4610626E+03  0.7546771E-02  0.1024473E+00
         21   -1    0    0  502  501  0.00000000000E+00  0.00000000000E+00  0.31230882985E+03  0.31230882985E+03  0.00000000000E+00 0.  1.
         21   -1    0    0  501  502 -0.00000000000E+00 -0.00000000000E+00 -0.17016708182E+03  0.17016708182E+03  0.00000000000E+00 0.  1.
      99926    2    1    2    0    0  0.00000000000E+00  0.14210854715E-13  0.14214174803E+03  0.48247591168E+03  0.46106260835E+03 0.  0.
      99925    2    3    3    0    0 -0.55245987669E+02  0.92790567924E+02  0.37232517401E+02  0.28673203969E+03  0.26299580526E+03 0.  0.
         25    1    4    4    0    0 -0.59750832787E+01  0.75283287490E+02 -0.55133009258E-01  0.14611908204E+03  0.12509000000E+03 0.  0.
         25    1    4    4    0    0 -0.49270904390E+02  0.17507280435E+02  0.37287650410E+02  0.14061295766E+03  0.12509000000E+03 0.  0.
         25    1    3    3    0    0  0.55245987669E+02 -0.92790567924E+02  0.10490923063E+03  0.19574387199E+03  0.12509000000E+03 0.  0.
<mgrwt>
<rscale>  2 0.46106261E+03</rscale>
<asrwt>0</asrwt>
<pdfrwt beam="1">  1       21 0.45927769E-01 0.46106261E+03</pdfrwt>
<pdfrwt beam="2">  1       21 0.25024571E-01 0.46106261E+03</pdfrwt>
<totfact> 0.63413487E+04</totfact>
</mgrwt>
</event>
<event>
 7    0  0.4752811E-002  0.4578003E+03  0.7546771E-02  0.1025421E+00
         21   -1    0    0  502  501  0.00000000000E+00  0.00000000000E+00  0.57685261940E+03  0.57685261940E+03  0.00000000000E+00 0. -1.
         21   -1    0    0  501  502 -0.00000000000E+00 -0.00000000000E+00 -0.90829562214E+02  0.90829562214E+02  0.00000000000E+00 0. -1.
      99926    2    1    2    0    0 -0.88817841970E-15  0.71054273576E-14  0.48602305719E+03  0.66768218162E+03  0.45780026598E+03 0.  0.
      99925    2    3    3    0    0 -0.62670102764E+01 -0.60647457245E+02  0.16173941779E+03  0.31480149871E+03  0.26310255573E+03 0.  0.
         25    1    3    3    0    0  0.62670102764E+01  0.60647457245E+02  0.32428363940E+03  0.35288068291E+03  0.12509000000E+03 0.  0.
         25    1    4    4    0    0  0.23459067925E+02 -0.26699319981E+02  0.44276291516E+02  0.13737204827E+03  0.12509000000E+03 0.  0.
         25    1    4    4    0    0 -0.29726078202E+02 -0.33948137264E+02  0.11746312628E+03  0.17742945044E+03  0.12509000000E+03 0.  0.
<mgrwt>
<rscale>  2 0.45780027E+03</rscale>
<asrwt>0</asrwt>
<pdfrwt beam="1">  1       21 0.84831266E-01 0.45780027E+03</pdfrwt>
<pdfrwt beam="2">  1       21 0.13357289E-01 0.45780027E+03</pdfrwt>
<totfact> 0.53501951E+04</totfact>
</mgrwt>
</event>
<event>
 7    0  0.4752811E-002  0.4527284E+03  0.7546771E-02  0.1026912E+00
         21   -1    0    0  502  501  0.00000000000E+00  0.00000000000E+00  0.18541246600E+03  0.18541246600E+03  0.00000000000E+00 0. -1.
         21   -1    0    0  501  502 -0.00000000000E+00 -0.00000000000E+00 -0.27636083161E+03  0.27636083161E+03  0.00000000000E+00 0. -1.
      99926    2    1    2    0    0  0.00000000000E+00  0.00000000000E+00 -0.90948365615E+02  0.46177329761E+03  0.45272836577E+03 0.  0.
      99925    2    3    3    0    0 -0.61923029352E+02  0.16291558952E+02 -0.15019489984E+03  0.30926908004E+03  0.26265753269E+03 0.  0.
         25    1    3    3    0    0  0.61923029352E+02 -0.16291558952E+02  0.59246534223E+02  0.15250421756E+03  0.12509000000E+03 0.  0.
         25    1    4    4    0    0 -0.63091294208E+02 -0.58629305035E+01 -0.10198231898E+03  0.17338623602E+03  0.12509000000E+03 0.  0.
         25    1    4    4    0    0  0.11682648561E+01  0.22154489456E+02 -0.48212580863E+02  0.13588284402E+03  0.12509000000E+03 0.  0.
<mgrwt>
<rscale>  2 0.45272837E+03</rscale>
<asrwt>0</asrwt>
<pdfrwt beam="1">  1       21 0.27266539E-01 0.45272837E+03</pdfrwt>
<pdfrwt beam="2">  1       21 0.40641299E-01 0.45272837E+03</pdfrwt>
<totfact> 0.69293287E+04</totfact>
</mgrwt>
</event>
<event>
 7    0  0.4752811E-002  0.4545867E+03  0.7546771E-02  0.1026363E+00
         21   -1    0    0  502  501  0.00000000000E+00  0.00000000000E+00  0.10252652037E+03  0.10252652037E+03  0.00000000000E+00 0. -1.
         21   -1    0    0  501  502 -0.00000000000E+00 -0.00000000000E+00 -0.50389180538E+03  0.50389180538E+03  0.00000000000E+00 0. -1.
      99926    2    1    2    0    0 -0.71054273576E-14  0.17763568394E-14 -0.40136528501E+03  0.60641832574E+03  0.45458672856E+03 0.  0.
      99925    2    3    3    0    0  0.61201948235E+02 -0.14370187830E+02 -0.12744285144E+03  0.29879324796E+03  0.26283748568E+03 0.  0.
         25    1    4    4    0    0  0.28959579820E+02  0.95178210859E+01 -0.22605672875E+02  0.13072020015E+03  0.12509000000E+03 0.  0.
         25    1    3    3    0    0 -0.61201948235E+02  0.14370187830E+02 -0.27392243357E+03  0.30762507778E+03  0.12509000000E+03 0.  0.
         25    1    4    4    0    0  0.32242368414E+02 -0.23888008916E+02 -0.10483717857E+03  0.16807304781E+03  0.12509000000E+03 0.  0.
<mgrwt>
<rscale>  2 0.45458673E+03</rscale>
<asrwt>0</asrwt>
<pdfrwt beam="1">  1       21 0.15077430E-01 0.45458673E+03</pdfrwt>
<pdfrwt beam="2">  1       21 0.74101735E-01 0.45458673E+03</pdfrwt>
<totfact> 0.58475608E+04</totfact>
</mgrwt>
</event>
<event>
 7    0  0.4752811E-002  0.4662524E+03  0.7546771E-02  0.1022983E+00
         21   -1    0    0  502  501  0.00000000000E+00  0.00000000000E+00  0.66507087373E+02  0.66507087373E+02  0.00000000000E+00 0. -1.
         21   -1    0    0  501  502 -0.00000000000E+00 -0.00000000000E+00 -0.81717332595E+03  0.81717332595E+03  0.00000000000E+00 0. -1.
      99926    2    1    2    0    0  0.00000000000E+00  0.00000000000E+00 -0.75066623857E+03  0.88368041332E+03  0.46625236852E+03 0.  0.
      99925    2    3    3    0    0  0.52720586964E+02 -0.20849748134E+02 -0.25998040411E+03  0.37413721738E+03  0.26301078803E+03 0.  0.
         25    1    4    4    0    0  0.52714571252E+02 -0.24636815807E+01 -0.92460782226E+02  0.16426015980E+03  0.12509000000E+03 0.  0.
         25    1    3    3    0    0 -0.52720586964E+02  0.20849748134E+02 -0.49068583447E+03  0.50954319594E+03  0.12509000000E+03 0.  0.
         25    1    4    4    0    0  0.60157122235E-02 -0.18386066553E+02 -0.16751962188E+03  0.20987705757E+03  0.12509000000E+03 0.  0.
<mgrwt>
<rscale>  2 0.46625237E+03</rscale>
<asrwt>0</asrwt>
<pdfrwt beam="1">  1       21 0.97804538E-02 0.46625237E+03</pdfrwt>
<pdfrwt beam="2">  1       21 0.12017255E+00 0.46625237E+03</pdfrwt>
<totfact> 0.40278325E+04</totfact>
</mgrwt>
</event>
<event>
 7    0  0.4752811E-002  0.4560764E+03  0.7546771E-02  0.1025925E+00
         21   -1    0    0  502  501  0.00000000000E+00  0.00000000000E+00  0.44735950251E+02  0.44735950251E+02  0.00000000000E+00 0.  1.
         21   -1    0    0  501  502 -0.00000000000E+00 -0.00000000000E+00 -0.11624079158E+04  0.11624079158E+04  0.00000000000E+00 0.  1.
      99926    2    1    2    0    0  0.00000000000E+00  0.00000000000E+00 -0.11176719656E+04  0.12071438661E+04  0.45607640892E+03 0.  0.
      99925    2    3    3    0    0 -0.48277301015E+02  0.10302886243E+03 -0.67866052453E+03  0.73669280831E+03  0.26304095113E+03 0.  0.
         25    1    3    3    0    0  0.48277301015E+02 -0.10302886243E+03 -0.43901144106E+03  0.47045105778E+03  0.12509000000E+03 0.  0.
         25    1    4    4    0    0 -0.19871149270E+02  0.85723199348E+02 -0.42949040985E+03  0.45590881734E+03  0.12509000000E+03 0.  0.
         25    1    4    4    0    0 -0.28406151745E+02  0.17305663085E+02 -0.24917011468E+03  0.28078399097E+03  0.12509000000E+03 0.  0.
<mgrwt>
<rscale>  2 0.45607641E+03</rscale>
<asrwt>0</asrwt>
<pdfrwt beam="1">  1       21 0.65788161E-02 0.45607641E+03</pdfrwt>
<pdfrwt beam="2">  1       21 0.17094234E+00 0.45607641E+03</pdfrwt>
<totfact> 0.31664022E+04</totfact>
</mgrwt>
</event>
<event>
 7    0  0.4752811E-002  0.4786932E+03  0.7546771E-02  0.1019495E+00
         21   -1    0    0  502  501  0.00000000000E+00  0.00000000000E+00  0.73378591496E+03  0.73378591496E+03  0.00000000000E+00 0. -1.
         21   -1    0    0  501  502 -0.00000000000E+00 -0.00000000000E+00 -0.78070190850E+02  0.78070190850E+02  0.00000000000E+00 0. -1.
      99926    2    1    2    0    0 -0.71054273576E-14  0.14210854715E-13  0.65571572411E+03  0.81185610581E+03  0.47869324802E+03 0.  0.
      99925    2    3    3    0    0  0.56749337459E+02 -0.98803758392E+02  0.52502018130E+03  0.59805361989E+03  0.26275325215E+03 0.  0.
         25    1    3    3    0    0 -0.56749337459E+02  0.98803758392E+02  0.13069554281E+03  0.21380248592E+03  0.12509000000E+03 0.  0.
         25    1    4    4    0    0 -0.10772980932E+02 -0.48913217988E+02  0.22306606348E+03  0.26060417646E+03  0.12509000000E+03 0.  0.
         25    1    4    4    0    0  0.67522318391E+02 -0.49890540404E+02  0.30195411783E+03  0.33744944344E+03  0.12509000000E+03 0.  0.
<mgrwt>
<rscale>  2 0.47869325E+03</rscale>
<asrwt>0</asrwt>
<pdfrwt beam="1">  1       21 0.10790969E+00 0.47869325E+03</pdfrwt>
<pdfrwt beam="2">  1       21 0.11480911E-01 0.47869325E+03</pdfrwt>
<totfact> 0.39353598E+04</totfact>
</mgrwt>
</event>
<event>
 7    0  0.4752811E-002  0.4574891E+03  0.7546771E-02  0.1025512E+00
         21   -1    0    0  502  501  0.00000000000E+00  0.00000000000E+00  0.65906208096E+02  0.65906208096E+02  0.00000000000E+00 0. -1.
         21   -1    0    0  501  502 -0.00000000000E+00 -0.00000000000E+00 -0.79391719899E+03  0.79391719899E+03  0.00000000000E+00 0. -1.
      99926    2    1    2    0    0  0.00000000000E+00  0.71054273576E-14 -0.72801099089E+03  0.85982340708E+03  0.45748911300E+03 0.  0.
      99925    2    3    3    0    0 -0.98089106631E+02 -0.59827940766E+02 -0.43541776176E+03  0.52150527105E+03  0.26301761374E+03 0.  0.
         25    1    3    3    0    0  0.98089106631E+02  0.59827940766E+02 -0.29259322913E+03  0.33831813603E+03  0.12509000000E+03 0.  0.
         25    1    4    4    0    0 -0.90632066066E+02 -0.44582519784E+02 -0.24535391879E+03  0.29333909735E+03  0.12509000000E+03 0.  0.
         25    1    4    4    0    0 -0.74570405653E+01 -0.15245420983E+02 -0.19006384297E+03  0.22816617370E+03  0.12509000000E+03 0.  0.
<mgrwt>
<rscale>  2 0.45748911E+03</rscale>
<asrwt>0</asrwt>
<pdfrwt beam="1">  1       21 0.96920891E-02 0.45748911E+03</pdfrwt>
<pdfrwt beam="2">  1       21 0.11675253E+00 0.45748911E+03</pdfrwt>
<totfact> 0.44135050E+04</totfact>
</mgrwt>
</event>
<event>
 7    0  0.4752811E-002  0.4549545E+03  0.7546771E-02  0.1026255E+00
         21   -1    0    0  502  501  0.00000000000E+00  0.00000000000E+00  0.13078825993E+03  0.13078825993E+03  0.00000000000E+00 0. -1.
         21   -1    0    0  501  502 -0.00000000000E+00 -0.00000000000E+00 -0.39564642093E+03  0.39564642093E+03  0.00000000000E+00 0. -1.
      99926    2    1    2    0    0  0.00000000000E+00 -0.14210854715E-13 -0.26485816100E+03  0.52643468085E+03  0.45495453373E+03 0.  0.
      99925    2    3    3    0    0 -0.24211844515E+02  0.11024595224E+03 -0.15974512738E+03  0.32784807170E+03  0.26310733360E+03 0.  0.
         25    1    3    3    0    0  0.24211844515E+02 -0.11024595224E+03 -0.10511303361E+03  0.19858660916E+03  0.12509000000E+03 0.  0.
         25    1    4    4    0    0 -0.39006008580E+02  0.58887415012E+02 -0.46936119077E+02  0.15112810369E+03  0.12509000000E+03 0.  0.
         25    1    4    4    0    0  0.14794164065E+02  0.51358537230E+02 -0.11280900831E+03  0.17671996801E+03  0.12509000000E+03 0.  0.
<mgrwt>
<rscale>  2 0.45495453E+03</rscale>
<asrwt>0</asrwt>
<pdfrwt beam="1">  1       21 0.19233567E-01 0.45495453E+03</pdfrwt>
<pdfrwt beam="2">  1       21 0.58183298E-01 0.45495453E+03</pdfrwt>
<totfact> 0.63471401E+04</totfact>
</mgrwt>
</event>
<event>
 7    0  0.4752811E-002  0.4535311E+03  0.7546771E-02  0.1026674E+00
         21   -1    0    0  502  501  0.00000000000E+00  0.00000000000E+00  0.42061331836E+03  0.42061331836E+03  0.00000000000E+00 0. -1.
         21   -1    0    0  501  502 -0.00000000000E+00 -0.00000000000E+00 -0.12225627058E+03  0.12225627058E+03  0.00000000000E+00 0. -1.
      99926    2    1    2    0    0  0.00000000000E+00 -0.35527136788E-14  0.29835704778E+03  0.54286958894E+03  0.45353110437E+03 0.  0.
      99925    2    3    3    0    0 -0.89992075192E+02  0.23087805852E+02  0.26284990257E+03  0.38305755611E+03  0.26270020867E+03 0.  0.
         25    1    3    3    0    0  0.89992075192E+02 -0.23087805852E+02  0.35507145214E+02  0.15981203283E+03  0.12509000000E+03 0.  0.
         25    1    4    4    0    0 -0.29036073715E+02 -0.19614171299E+02  0.15295192351E+03  0.20067288880E+03  0.12509000000E+03 0.  0.
         25    1    4    4    0    0 -0.60956001477E+02  0.42701977151E+02  0.10989797906E+03  0.18238466731E+03  0.12509000000E+03 0.  0.
<mgrwt>
<rscale>  2 0.45353110E+03</rscale>
<asrwt>0</asrwt>
<pdfrwt beam="1">  1       21 0.61854900E-01 0.45353110E+03</pdfrwt>
<pdfrwt beam="2">  1       21 0.17978863E-01 0.45353110E+03</pdfrwt>
<totfact> 0.63070095E+04</totfact>
</mgrwt>
</event>
<event>
 7    0  0.4752811E-002  0.4556114E+03  0.7546771E-02  0.1026062E+00
         21   -1    0    0  502  501  0.00000000000E+00  0.00000000000E+00  0.79300187070E+03  0.79300187070E+03  0.00000000000E+00 0.  1.
         21   -1    0    0  501  502 -0.00000000000E+00 -0.00000000000E+00 -0.65441751647E+02  0.65441751647E+02  0.00000000000E+00 0.  1.
      99926    2    1    2    0    0 -0.35527136788E-14  0.00000000000E+00  0.72756011906E+03  0.85844362235E+03  0.45561137597E+03 0.  0.
      99925    2    3    3    0    0 -0.24106522749E+02 -0.30183101698E+02  0.65955810075E+03  0.71091760207E+03  0.26247819833E+03 0.  0.
         25    1    4    4    0    0  0.24404327660E+02 -0.10005691127E+02  0.27891283407E+03  0.30681519221E+03  0.12509000000E+03 0.  0.
         25    1    4    4    0    0 -0.48510850409E+02 -0.20177410572E+02  0.38064526668E+03  0.40410240986E+03  0.12509000000E+03 0.  0.
         25    1    3    3    0    0  0.24106522749E+02  0.30183101698E+02  0.68002018309E+02  0.14752602029E+03  0.12509000000E+03 0.  0.
<mgrwt>
<rscale>  2 0.45561138E+03</rscale>
<asrwt>0</asrwt>
<pdfrwt beam="1">  1       21 0.11661792E+00 0.45561138E+03</pdfrwt>
<pdfrwt beam="2">  1       21 0.96237874E-02 0.45561138E+03</pdfrwt>
<totfact> 0.44848519E+04</totfact>
</mgrwt>
</event>
<event>
 7    0  0.4752811E-002  0.4463675E+03  0.7546771E-02  0.1028811E+00
         21   -1    0    0  502  501  0.00000000000E+00  0.00000000000E+00  0.21567088848E+03  0.21567088848E+03  0.00000000000E+00 0.  1.
         21   -1    0    0  501  502 -0.00000000000E+00 -0.00000000000E+00 -0.23095832059E+03  0.23095832059E+03  0.00000000000E+00 0.  1.
      99926    2    1    2    0    0  0.71054273576E-14  0.00000000000E+00 -0.15287432115E+02  0.44662920907E+03  0.44636749973E+03 0.  0.
      99925    2    3    3    0    0  0.41163795139E+02 -0.95352160382E+02  0.56153731240E+01  0.28270566626E+03  0.26287728849E+03 0.  0.
         25    1    4    4    0    0  0.33510216719E+02 -0.65837517701E+02  0.37553737847E+02  0.15005100695E+03  0.12509000000E+03 0.  0.
         25    1    3    3    0    0 -0.41163795139E+02  0.95352160382E+02 -0.20902805239E+02  0.16392354281E+03  0.12509000000E+03 0.  0.
         25    1    4    4    0    0  0.76535784206E+01 -0.29514642680E+02 -0.31938364723E+02  0.13265465931E+03  0.12509000000E+03 0.  0.
<mgrwt>
<rscale>  2 0.44636750E+03</rscale>
<asrwt>0</asrwt>
<pdfrwt beam="1">  1       21 0.31716307E-01 0.44636750E+03</pdfrwt>
<pdfrwt beam="2">  1       21 0.33964459E-01 0.44636750E+03</pdfrwt>
<totfact> 0.74139967E+04</totfact>
</mgrwt>
</event>
<event>
 7    0  0.4752811E-002  0.4553134E+03  0.7546771E-02  0.1026149E+00
         21   -1    0    0  502  501  0.00000000000E+00  0.00000000000E+00  0.83596038109E+02  0.83596038109E+02  0.00000000000E+00 0.  1.
         21   -1    0    0  501  502 -0.00000000000E+00 -0.00000000000E+00 -0.61997633371E+03  0.61997633371E+03  0.00000000000E+00 0.  1.
      99926    2    1    2    0    0  0.00000000000E+00  0.00000000000E+00 -0.53638029561E+03  0.70357237182E+03  0.45531336558E+03 0.  0.
      99925    2    3    3    0    0 -0.67810607310E+02  0.39586163997E+02 -0.46372434683E+03  0.53897669194E+03  0.26323043473E+03 0.  0.
         25    1    4    4    0    0 -0.49482738464E+02  0.18465062601E+02 -0.31259090144E+03  0.34080798070E+03  0.12509000000E+03 0.  0.
         25    1    4    4    0    0 -0.18327868845E+02  0.21121101396E+02 -0.15113344539E+03  0.19816871125E+03  0.12509000000E+03 0.  0.
         25    1    3    3    0    0  0.67810607310E+02 -0.39586163997E+02 -0.72655948772E+02  0.16459567988E+03  0.12509000000E+03 0.  0.
<mgrwt>
<rscale>  2 0.45531337E+03</rscale>
<asrwt>0</asrwt>
<pdfrwt beam="1">  1       21 0.12293535E-01 0.45531337E+03</pdfrwt>
<pdfrwt beam="2">  1       21 0.91172991E-01 0.45531337E+03</pdfrwt>
<totfact> 0.52579650E+04</totfact>
</mgrwt>
</event>
<event>
 7    0  0.4752811E-002  0.4542357E+03  0.7546771E-02  0.1026466E+00
         21   -1    0    0  502  501  0.00000000000E+00  0.00000000000E+00  0.37361945505E+03  0.37361945505E+03  0.00000000000E+00 0. -1.
         21   -1    0    0  501  502 -0.00000000000E+00 -0.00000000000E+00 -0.13806165089E+03  0.13806165089E+03  0.00000000000E+00 0. -1.
      99926    2    1    2    0    0  0.00000000000E+00  0.00000000000E+00  0.23555780417E+03  0.51168110594E+03  0.45423570431E+03 0.  0.
      99925    2    3    3    0    0 -0.65004155454E+02 -0.52838322856E+02  0.63473446675E+02  0.28303735951E+03  0.26279999973E+03 0.  0.
         25    1    3    3    0    0  0.65004155454E+02  0.52838322856E+02  0.17208435749E+03  0.22864374643E+03  0.12509000000E+03 0.  0.
         25    1    4    4    0    0 -0.26923418907E+02  0.76742989544E+00 -0.38998688045E+00  0.12795749147E+03  0.12509000000E+03 0.  0.
         25    1    4    4    0    0 -0.38080736547E+02 -0.53605752752E+02  0.63863433555E+02  0.15507986803E+03  0.12509000000E+03 0.  0.
<mgrwt>
<rscale>  2 0.45423570E+03</rscale>
<asrwt>0</asrwt>
<pdfrwt beam="1">  1       21 0.54944038E-01 0.45423570E+03</pdfrwt>
<pdfrwt beam="2">  1       21 0.20303184E-01 0.45423570E+03</pdfrwt>
<totfact> 0.64850017E+04</totfact>
</mgrwt>
</event>
<event>
 7    0  0.4752811E-002  0.4560038E+03  0.7546771E-02  0.1025947E+00
         21   -1    0    0  502  501  0.00000000000E+00  0.00000000000E+00  0.25458101383E+03  0.25458101383E+03  0.00000000000E+00 0. -1.
         21   -1    0    0  501  502 -0.00000000000E+00 -0.00000000000E+00 -0.20419777574E+03  0.20419777574E+03  0.00000000000E+00 0. -1.
      99926    2    1    2    0    0  0.00000000000E+00  0.00000000000E+00  0.50383238085E+02  0.45877878957E+03  0.45600384547E+03 0.  0.
      99925    2    3    3    0    0 -0.77131646518E+02 -0.22766986066E+02 -0.49801643070E+02  0.27946859728E+03  0.26297312916E+03 0.  0.
         25    1    4    4    0    0 -0.37971792856E+02 -0.40325164091E+02 -0.54195976335E+02  0.14714852314E+03  0.12509000000E+03 0.  0.
         25    1    4    4    0    0 -0.39159853662E+02  0.17558178025E+02  0.43943332653E+01  0.13232007414E+03  0.12509000000E+03 0.  0.
         25    1    3    3    0    0  0.77131646518E+02  0.22766986066E+02  0.10018488116E+03  0.17931019230E+03  0.12509000000E+03 0.  0.
<mgrwt>
<rscale>  2 0.45600385E+03</rscale>
<asrwt>0</asrwt>
<pdfrwt beam="1">  1       21 0.37438385E-01 0.45600385E+03</pdfrwt>
<pdfrwt beam="2">  1       21 0.30029085E-01 0.45600385E+03</pdfrwt>
<totfact> 0.67725733E+04</totfact>
</mgrwt>
</event>
<event>
 7    0  0.4752811E-002  0.4503743E+03  0.7546771E-02  0.1027610E+00
         21   -1    0    0  502  501  0.00000000000E+00  0.00000000000E+00  0.67393755822E+02  0.67393755822E+02  0.00000000000E+00 0. -1.
         21   -1    0    0  501  502 -0.00000000000E+00 -0.00000000000E+00 -0.75243264837E+03  0.75243264837E+03  0.00000000000E+00 0. -1.
      99926    2    1    2    0    0 -0.17763568394E-14 -0.14210854715E-13 -0.68503889255E+03  0.81982640419E+03  0.45037434286E+03 0.  0.
      99925    2    3    3    0    0 -0.12462593169E+02 -0.10735451693E+03 -0.45513041547E+03  0.53665556447E+03  0.26301177020E+03 0.  0.
         25    1    4    4    0    0  0.54374634638E+01 -0.85932394568E+02 -0.19978459052E+03  0.25094886562E+03  0.12509000000E+03 0.  0.
         25    1    4    4    0    0 -0.17900056633E+02 -0.21422122358E+02 -0.25534582495E+03  0.28570669886E+03  0.12509000000E+03 0.  0.
         25    1    3    3    0    0  0.12462593169E+02  0.10735451693E+03 -0.22990847708E+03  0.28317083972E+03  0.12509000000E+03 0.  0.
<mgrwt>
<rscale>  2 0.45037434E+03</rscale>
<asrwt>0</asrwt>
<pdfrwt beam="1">  1       21 0.99108457E-02 0.45037434E+03</pdfrwt>
<pdfrwt beam="2">  1       21 0.11065187E+00 0.45037434E+03</pdfrwt>
<totfact> 0.48559406E+04</totfact>
</mgrwt>
</event>
<event>
 7    0  0.4752811E-002  0.4530245E+03  0.7546771E-02  0.1026824E+00
         21   -1    0    0  502  501  0.00000000000E+00  0.00000000000E+00  0.10831285649E+04  0.10831285649E+04  0.00000000000E+00 0. -1.
         21   -1    0    0  501  502 -0.00000000000E+00 -0.00000000000E+00 -0.47369995572E+02  0.47369995572E+02  0.00000000000E+00 0. -1.
      99926    2    1    2    0    0  0.00000000000E+00  0.00000000000E+00  0.10357585693E+04  0.11304985605E+04  0.45302448201E+03 0.  0.
      99925    2    3    3    0    0 -0.50706690182E+02 -0.90318337410E+02  0.55330989650E+03  0.62144767842E+03  0.26328084805E+03 0.  0.
         25    1    4    4    0    0 -0.65508582449E+02 -0.35874582639E+02  0.28708922094E+03  0.32194112650E+03  0.12509000000E+03 0.  0.
         25    1    3    3    0    0  0.50706690182E+02  0.90318337410E+02  0.48244867284E+03  0.50905088206E+03  0.12509000000E+03 0.  0.
         25    1    4    4    0    0  0.14801892267E+02 -0.54443754771E+02  0.26622067557E+03  0.29950655193E+03  0.12509000000E+03 0.  0.
<mgrwt>
<rscale>  2 0.45302448E+03</rscale>
<asrwt>0</asrwt>
<pdfrwt beam="1">  1       21 0.15928360E+00 0.45302448E+03</pdfrwt>
<pdfrwt beam="2">  1       21 0.69661765E-02 0.45302448E+03</pdfrwt>
<totfact> 0.34975713E+04</totfact>
</mgrwt>
</event>
<event>
 7    0  0.4752811E-002  0.4559432E+03  0.7546771E-02  0.1025964E+00
         21   -1    0    0  502  501  0.00000000000E+00  0.00000000000E+00  0.10453039006E+03  0.10453039006E+03  0.00000000000E+00 0. -1.
         21   -1    0    0  501  502 -0.00000000000E+00 -0.00000000000E+00 -0.49718606898E+03  0.49718606898E+03  0.00000000000E+00 0. -1.
      99926    2    1    2    0    0  0.00000000000E+00  0.14210854715E-13 -0.39265567892E+03  0.60171645905E+03  0.45594321456E+03 0.  0.
      99925    2    3    3    0    0  0.21266706422E+02 -0.88025351297E+02 -0.33834796268E+03  0.43801682125E+03  0.26301835786E+03 0.  0.
         25    1    3    3    0    0 -0.21266706422E+02  0.88025351297E+02 -0.54307716236E+02  0.16369963780E+03  0.12509000000E+03 0.  0.
         25    1    4    4    0    0  0.68617475950E+01 -0.21667317975E+02 -0.10595435996E+03  0.16550042520E+03  0.12509000000E+03 0.  0.
         25    1    4    4    0    0  0.14404958827E+02 -0.66358033322E+02 -0.23239360272E+03  0.27251639604E+03  0.12509000000E+03 0.  0.
<mgrwt>
<rscale>  2 0.45594321E+03</rscale>
<asrwt>0</asrwt>
<pdfrwt beam="1">  1       21 0.15372116E-01 0.45594321E+03</pdfrwt>
<pdfrwt beam="2">  1       21 0.73115599E-01 0.45594321E+03</pdfrwt>
<totfact> 0.58138266E+04</totfact>
</mgrwt>
</event>
<event>
 7    0  0.4752811E-002  0.4506113E+03  0.7546771E-02  0.1027540E+00
         21   -1    0    0  502  501  0.00000000000E+00  0.00000000000E+00  0.37226898700E+03  0.37226898700E+03  0.00000000000E+00 0. -1.
         21   -1    0    0  501  502 -0.00000000000E+00 -0.00000000000E+00 -0.13636012423E+03  0.13636012423E+03  0.00000000000E+00 0. -1.
      99926    2    1    2    0    0  0.71054273576E-14  0.00000000000E+00  0.23590886277E+03  0.50862911123E+03  0.45061134168E+03 0.  0.
      99925    2    3    3    0    0  0.38486830488E+02 -0.10132138166E+03  0.15965040289E+03  0.32639267331E+03  0.26324260206E+03 0.  0.
         25    1    3    3    0    0 -0.38486830488E+02  0.10132138166E+03  0.76258459873E+02  0.18223643792E+03  0.12509000000E+03 0.  0.
         25    1    4    4    0    0 -0.95292057199E+01 -0.56252149691E+02  0.45905766754E+02  0.14494812047E+03  0.12509000000E+03 0.  0.
         25    1    4    4    0    0  0.48016036208E+02 -0.45069231971E+02  0.11374463614E+03  0.18144455284E+03  0.12509000000E+03 0.  0.
<mgrwt>
<rscale>  2 0.45061134E+03</rscale>
<asrwt>0</asrwt>
<pdfrwt beam="1">  1       21 0.54745439E-01 0.45061134E+03</pdfrwt>
<pdfrwt beam="2">  1       21 0.20052960E-01 0.45061134E+03</pdfrwt>
<totfact> 0.66970866E+04</totfact>
</mgrwt>
</event>
<event>
 7    0  0.4752811E-002  0.4509122E+03  0.7546771E-02  0.1027450E+00
         21   -1    0    0  502  501  0.00000000000E+00  0.00000000000E+00  0.34870094823E+03  0.34870094823E+03  0.00000000000E+00 0. -1.
         21   -1    0    0  501  502 -0.00000000000E+00 -0.00000000000E+00 -0.14577092119E+03  0.14577092119E+03  0.00000000000E+00 0. -1.
      99926    2    1    2    0    0  0.00000000000E+00 -0.66613381478E-15  0.20293002704E+03  0.49447186942E+03  0.45091222402E+03 0.  0.
      99925    2    3    3    0    0 -0.10589798467E+03 -0.14076231773E+01  0.15752211115E+03  0.32439614662E+03  0.26306516280E+03 0.  0.
         25    1    4    4    0    0 -0.87340915060E+02 -0.25644022449E+02  0.90628346833E+02  0.17929600297E+03  0.12509000000E+03 0.  0.
         25    1    3    3    0    0  0.10589798467E+03  0.14076231773E+01  0.45407915892E+02  0.17007572280E+03  0.12509000000E+03 0.  0.
         25    1    4    4    0    0 -0.18557069611E+02  0.24236399271E+02  0.66893764318E+02  0.14510014365E+03  0.12509000000E+03 0.  0.
<mgrwt>
<rscale>  2 0.45091222E+03</rscale>
<asrwt>0</asrwt>
<pdfrwt beam="1">  1       21 0.51279551E-01 0.45091222E+03</pdfrwt>
<pdfrwt beam="2">  1       21 0.21436900E-01 0.45091222E+03</pdfrwt>
<totfact> 0.67835502E+04</totfact>
</mgrwt>
</event>
<event>
 7    0  0.4752811E-002  0.4586327E+03  0.7546771E-02  0.1025179E+00
         21   -1    0    0  502  501  0.00000000000E+00  0.00000000000E+00  0.28144232795E+03  0.28144232795E+03  0.00000000000E+00 0. -1.
         21   -1    0    0  501  502 -0.00000000000E+00 -0.00000000000E+00 -0.18684463198E+03  0.18684463198E+03  0.00000000000E+00 0. -1.
      99926    2    1    2    0    0  0.00000000000E+00 -0.71054273576E-14  0.94597695975E+02  0.46828695992E+03  0.45863269917E+03 0.  0.
      99925    2    3    3    0    0 -0.22164751829E+02 -0.42354459337E+02  0.16789812936E+03  0.31562511766E+03  0.26295295512E+03 0.  0.
         25    1    4    4    0    0  0.11070685911E+01 -0.85411105052E+01  0.12527605311E+03  0.17724495409E+03  0.12509000000E+03 0.  0.
         25    1    4    4    0    0 -0.23271820420E+02 -0.33813348832E+02  0.42622076251E+02  0.13838016357E+03  0.12509000000E+03 0.  0.
         25    1    3    3    0    0  0.22164751829E+02  0.42354459337E+02 -0.73300433383E+02  0.15266184226E+03  0.12509000000E+03 0.  0.
<mgrwt>
<rscale>  2 0.45863270E+03</rscale>
<asrwt>0</asrwt>
<pdfrwt beam="1">  1       21 0.41388578E-01 0.45863270E+03</pdfrwt>
<pdfrwt beam="2">  1       21 0.27477152E-01 0.45863270E+03</pdfrwt>
<totfact> 0.65650618E+04</totfact>
</mgrwt>
</event>
<event>
 7    0  0.4752811E-002  0.4561467E+03  0.7546771E-02  0.1025905E+00
         21   -1    0    0  502  501  0.00000000000E+00  0.00000000000E+00  0.15435868556E+04  0.15435868556E+04  0.00000000000E+00 0. -1.
         21   -1    0    0  501  502 -0.00000000000E+00 -0.00000000000E+00 -0.33699075391E+02  0.33699075391E+02  0.00000000000E+00 0. -1.
      99926    2    1    2    0    0  0.00000000000E+00  0.00000000000E+00  0.15098877802E+04  0.15772859310E+04  0.45614668614E+03 0.  0.
      99925    2    3    3    0    0  0.55816792312E+02  0.17343860609E+02  0.61010592855E+03  0.66697213208E+03  0.26307082149E+03 0.  0.
         25    1    3    3    0    0 -0.55816792312E+02 -0.17343860609E+02  0.89978185164E+03  0.91031379889E+03  0.12509000000E+03 0.  0.
         25    1    4    4    0    0 -0.12357541948E+02  0.54331864519E+01  0.26153874878E+03  0.29022793383E+03  0.12509000000E+03 0.  0.
         25    1    4    4    0    0  0.68174334260E+02  0.11910674157E+02  0.34856717976E+03  0.37674419826E+03  0.12509000000E+03 0.  0.
<mgrwt>
<rscale>  2 0.45614669E+03</rscale>
<asrwt>0</asrwt>
<pdfrwt beam="1">  1       21 0.22699802E+00 0.45614669E+03</pdfrwt>
<pdfrwt beam="2">  1       21 0.49557474E-02 0.45614669E+03</pdfrwt>
<totfact> 0.21752575E+04</totfact>
</mgrwt>
</event>
